PSF CMAP

     161 !NTITLE
 REMARKS original generated structure x-plor psf file
 REMARKS 142 patches were applied to the molecule.
 REMARKS topology toppar/top_scs.top 
 REMARKS topology toppar/patches6.top 
 REMARKS topology toppar/top_all36_lipid.rtf 
 REMARKS topology toppar/top_all36_cgenff.rtf 
 REMARKS topology toppar/top_all36_prot.rtf 
 REMARKS topology toppar/toppar_all36_lipid_hmmm.str 
 REMARKS topology toppar/toppar_all36_lipid_cholesterol.str 
 REMARKS topology toppar/toppar_water_ions_namd.str 
 REMARKS topology toppar/toppar_all36_prot_na_combined.str 
 REMARKS topology toppar/toppar_all36_lipid_sphingo.str 
 REMARKS topology toppar/toppar_all36_lipid_inositol.str 
 REMARKS topology toppar/ta1/ta1.rtf 
 REMARKS segment PROA { first ; last ; auto none  }
 REMARKS segment MEMB { first ; last ; auto none  }
 REMARKS segment TIP3 { first ; last ; auto none  }
 REMARKS segment IONS { first ; last ; auto none  }
 REMARKS segment HMM0 { first NONE; last NONE; auto angles dihedrals }
 REMARKS patch C6ST MEMB:22  
 REMARKS patch C6FT MEMB:22  
 REMARKS patch C26T MEMB:23  
 REMARKS patch C36T MEMB:23  
 REMARKS patch C26T MEMB:24  
 REMARKS patch C36T MEMB:24  
 REMARKS patch C6ST MEMB:25  
 REMARKS patch C6FT MEMB:25  
 REMARKS patch C26T MEMB:26  
 REMARKS patch C36T MEMB:26  
 REMARKS patch C26T MEMB:27  
 REMARKS patch C36T MEMB:27  
 REMARKS patch C26T MEMB:28  
 REMARKS patch C36T MEMB:28  
 REMARKS patch C26T MEMB:29  
 REMARKS patch C36T MEMB:29  
 REMARKS patch C26T MEMB:30  
 REMARKS patch C36T MEMB:30  
 REMARKS patch C26T MEMB:31  
 REMARKS patch C36T MEMB:31  
 REMARKS patch C26T MEMB:32  
 REMARKS patch C36T MEMB:32  
 REMARKS patch C26T MEMB:33  
 REMARKS patch C36T MEMB:33  
 REMARKS patch C26T MEMB:34  
 REMARKS patch C36T MEMB:34  
 REMARKS patch C6ST MEMB:35  
 REMARKS patch C6FT MEMB:35  
 REMARKS patch C26T MEMB:36  
 REMARKS patch C36T MEMB:36  
 REMARKS patch C26T MEMB:37  
 REMARKS patch C36T MEMB:37  
 REMARKS patch C6ST MEMB:38  
 REMARKS patch C6FT MEMB:38  
 REMARKS patch C26T MEMB:39  
 REMARKS patch C36T MEMB:39  
 REMARKS patch C6ST MEMB:40  
 REMARKS patch C6FT MEMB:40  
 REMARKS patch C26T MEMB:41  
 REMARKS patch C36T MEMB:41  
 REMARKS patch C26T MEMB:42  
 REMARKS patch C36T MEMB:42  
 REMARKS patch C26T MEMB:43  
 REMARKS patch C36T MEMB:43  
 REMARKS patch C26T MEMB:44  
 REMARKS patch C36T MEMB:44  
 REMARKS patch C26T MEMB:45  
 REMARKS patch C36T MEMB:45  
 REMARKS patch C26T MEMB:46  
 REMARKS patch C36T MEMB:46  
 REMARKS patch C26T MEMB:47  
 REMARKS patch C36T MEMB:47  
 REMARKS patch C26T MEMB:48  
 REMARKS patch C36T MEMB:48  
 REMARKS patch C6ST MEMB:49  
 REMARKS patch C6FT MEMB:49  
 REMARKS patch C6ST MEMB:50  
 REMARKS patch C6FT MEMB:50  
 REMARKS patch C26T MEMB:51  
 REMARKS patch C36T MEMB:51  
 REMARKS patch C26T MEMB:52  
 REMARKS patch C36T MEMB:52  
 REMARKS patch C6ST MEMB:53  
 REMARKS patch C6FT MEMB:53  
 REMARKS patch C26T MEMB:54  
 REMARKS patch C36T MEMB:54  
 REMARKS patch C26T MEMB:55  
 REMARKS patch C36T MEMB:55  
 REMARKS patch C26T MEMB:56  
 REMARKS patch C36T MEMB:56  
 REMARKS patch C26T MEMB:57  
 REMARKS patch C36T MEMB:57  
 REMARKS patch C26T MEMB:58  
 REMARKS patch C36T MEMB:58  
 REMARKS patch C26T MEMB:59  
 REMARKS patch C36T MEMB:59  
 REMARKS patch C6ST MEMB:60  
 REMARKS patch C6FT MEMB:60  
 REMARKS patch C26T MEMB:82  
 REMARKS patch C36T MEMB:82  
 REMARKS patch C6ST MEMB:83  
 REMARKS patch C6FT MEMB:83  
 REMARKS patch C26T MEMB:84  
 REMARKS patch C36T MEMB:84  
 REMARKS patch C26T MEMB:85  
 REMARKS patch C36T MEMB:85  
 REMARKS patch C26T MEMB:86  
 REMARKS patch C36T MEMB:86  
 REMARKS patch C6ST MEMB:87  
 REMARKS patch C6FT MEMB:87  
 REMARKS patch C26T MEMB:88  
 REMARKS patch C36T MEMB:88  
 REMARKS patch C6ST MEMB:89  
 REMARKS patch C6FT MEMB:89  
 REMARKS patch C26T MEMB:90  
 REMARKS patch C36T MEMB:90  
 REMARKS patch C26T MEMB:91  
 REMARKS patch C36T MEMB:91  
 REMARKS patch C26T MEMB:92  
 REMARKS patch C36T MEMB:92  
 REMARKS patch C26T MEMB:93  
 REMARKS patch C36T MEMB:93  
 REMARKS patch C26T MEMB:94  
 REMARKS patch C36T MEMB:94  
 REMARKS patch C6ST MEMB:95  
 REMARKS patch C6FT MEMB:95  
 REMARKS patch C26T MEMB:96  
 REMARKS patch C36T MEMB:96  
 REMARKS patch C26T MEMB:97  
 REMARKS patch C36T MEMB:97  
 REMARKS patch C26T MEMB:98  
 REMARKS patch C36T MEMB:98  
 REMARKS patch C26T MEMB:99  
 REMARKS patch C36T MEMB:99  
 REMARKS patch C26T MEMB:100  
 REMARKS patch C36T MEMB:100  
 REMARKS patch C6ST MEMB:101  
 REMARKS patch C6FT MEMB:101  
 REMARKS patch C26T MEMB:102  
 REMARKS patch C36T MEMB:102  
 REMARKS patch C26T MEMB:103  
 REMARKS patch C36T MEMB:103  
 REMARKS patch C26T MEMB:104  
 REMARKS patch C36T MEMB:104  
 REMARKS patch C26T MEMB:105  
 REMARKS patch C36T MEMB:105  
 REMARKS patch C26T MEMB:106  
 REMARKS patch C36T MEMB:106  
 REMARKS patch C6ST MEMB:107  
 REMARKS patch C6FT MEMB:107  
 REMARKS patch C26T MEMB:108  
 REMARKS patch C36T MEMB:108  
 REMARKS patch C26T MEMB:109  
 REMARKS patch C36T MEMB:109  
 REMARKS patch C26T MEMB:110  
 REMARKS patch C36T MEMB:110  
 REMARKS patch C6ST MEMB:111  
 REMARKS patch C6FT MEMB:111  
 REMARKS patch C26T MEMB:112  
 REMARKS patch C36T MEMB:112  
 REMARKS patch C26T MEMB:113  
 REMARKS patch C36T MEMB:113  

   24035 !NATOM
       1 PROA 1    GLN  CAY  CT3   -0.270000       12.0110           0
       2 PROA 1    GLN  HY1  HA3    0.090000        1.0080           0
       3 PROA 1    GLN  HY2  HA3    0.090000        1.0080           0
       4 PROA 1    GLN  HY3  HA3    0.090000        1.0080           0
       5 PROA 1    GLN  CY   C      0.510000       12.0110           0
       6 PROA 1    GLN  OY   O     -0.510000       15.9994           0
       7 PROA 1    GLN  N    NH1   -0.470000       14.0070           0
       8 PROA 1    GLN  HN   H      0.310000        1.0080           0
       9 PROA 1    GLN  CA   CT1    0.070000       12.0110           0
      10 PROA 1    GLN  HA   HB1    0.090000        1.0080           0
      11 PROA 1    GLN  CB   CT2   -0.180000       12.0110           0
      12 PROA 1    GLN  HB1  HA2    0.090000        1.0080           0
      13 PROA 1    GLN  HB2  HA2    0.090000        1.0080           0
      14 PROA 1    GLN  CG   CT2   -0.180000       12.0110           0
      15 PROA 1    GLN  HG1  HA2    0.090000        1.0080           0
      16 PROA 1    GLN  HG2  HA2    0.090000        1.0080           0
      17 PROA 1    GLN  CD   CC     0.550000       12.0110           0
      18 PROA 1    GLN  OE1  O     -0.550000       15.9994           0
      19 PROA 1    GLN  NE2  NH2   -0.620000       14.0070           0
      20 PROA 1    GLN  HE21 H      0.320000        1.0080           0
      21 PROA 1    GLN  HE22 H      0.300000        1.0080           0
      22 PROA 1    GLN  C    C      0.510000       12.0110           0
      23 PROA 1    GLN  O    O     -0.510000       15.9994           0
      24 PROA 2    ALA  N    NH1   -0.470000       14.0070           0
      25 PROA 2    ALA  HN   H      0.310000        1.0080           0
      26 PROA 2    ALA  CA   CT1    0.070000       12.0110           0
      27 PROA 2    ALA  HA   HB1    0.090000        1.0080           0
      28 PROA 2    ALA  CB   CT3   -0.270000       12.0110           0
      29 PROA 2    ALA  HB1  HA3    0.090000        1.0080           0
      30 PROA 2    ALA  HB2  HA3    0.090000        1.0080           0
      31 PROA 2    ALA  HB3  HA3    0.090000        1.0080           0
      32 PROA 2    ALA  C    C      0.510000       12.0110           0
      33 PROA 2    ALA  O    O     -0.510000       15.9994           0
      34 PROA 3    PRO  N    N     -0.290000       14.0070           0
      35 PROA 3    PRO  CD   CP3    0.000000       12.0110           0
      36 PROA 3    PRO  HD1  HA2    0.090000        1.0080           0
      37 PROA 3    PRO  HD2  HA2    0.090000        1.0080           0
      38 PROA 3    PRO  CA   CP1    0.020000       12.0110           0
      39 PROA 3    PRO  HA   HB1    0.090000        1.0080           0
      40 PROA 3    PRO  CB   CP2   -0.180000       12.0110           0
      41 PROA 3    PRO  HB1  HA2    0.090000        1.0080           0
      42 PROA 3    PRO  HB2  HA2    0.090000        1.0080           0
      43 PROA 3    PRO  CG   CP2   -0.180000       12.0110           0
      44 PROA 3    PRO  HG1  HA2    0.090000        1.0080           0
      45 PROA 3    PRO  HG2  HA2    0.090000        1.0080           0
      46 PROA 3    PRO  C    C      0.510000       12.0110           0
      47 PROA 3    PRO  O    O     -0.510000       15.9994           0
      48 PROA 4    ALA  N    NH1   -0.470000       14.0070           0
      49 PROA 4    ALA  HN   H      0.310000        1.0080           0
      50 PROA 4    ALA  CA   CT1    0.070000       12.0110           0
      51 PROA 4    ALA  HA   HB1    0.090000        1.0080           0
      52 PROA 4    ALA  CB   CT3   -0.270000       12.0110           0
      53 PROA 4    ALA  HB1  HA3    0.090000        1.0080           0
      54 PROA 4    ALA  HB2  HA3    0.090000        1.0080           0
      55 PROA 4    ALA  HB3  HA3    0.090000        1.0080           0
      56 PROA 4    ALA  C    C      0.510000       12.0110           0
      57 PROA 4    ALA  O    O     -0.510000       15.9994           0
      58 PROA 5    TYR  N    NH1   -0.470000       14.0070           0
      59 PROA 5    TYR  HN   H      0.310000        1.0080           0
      60 PROA 5    TYR  CA   CT1    0.070000       12.0110           0
      61 PROA 5    TYR  HA   HB1    0.090000        1.0080           0
      62 PROA 5    TYR  CB   CT2   -0.180000       12.0110           0
      63 PROA 5    TYR  HB1  HA2    0.090000        1.0080           0
      64 PROA 5    TYR  HB2  HA2    0.090000        1.0080           0
      65 PROA 5    TYR  CG   CA     0.000000       12.0110           0
      66 PROA 5    TYR  CD1  CA    -0.115000       12.0110           0
      67 PROA 5    TYR  HD1  HP     0.115000        1.0080           0
      68 PROA 5    TYR  CE1  CA    -0.115000       12.0110           0
      69 PROA 5    TYR  HE1  HP     0.115000        1.0080           0
      70 PROA 5    TYR  CZ   CA     0.110000       12.0110           0
      71 PROA 5    TYR  OH   OH1   -0.540000       15.9994           0
      72 PROA 5    TYR  HH   H      0.430000        1.0080           0
      73 PROA 5    TYR  CD2  CA    -0.115000       12.0110           0
      74 PROA 5    TYR  HD2  HP     0.115000        1.0080           0
      75 PROA 5    TYR  CE2  CA    -0.115000       12.0110           0
      76 PROA 5    TYR  HE2  HP     0.115000        1.0080           0
      77 PROA 5    TYR  C    C      0.510000       12.0110           0
      78 PROA 5    TYR  O    O     -0.510000       15.9994           0
      79 PROA 6    LYS  N    NH1   -0.470000       14.0070           0
      80 PROA 6    LYS  HN   H      0.310000        1.0080           0
      81 PROA 6    LYS  CA   CT1    0.070000       12.0110           0
      82 PROA 6    LYS  HA   HB1    0.090000        1.0080           0
      83 PROA 6    LYS  CB   CT2   -0.180000       12.0110           0
      84 PROA 6    LYS  HB1  HA2    0.090000        1.0080           0
      85 PROA 6    LYS  HB2  HA2    0.090000        1.0080           0
      86 PROA 6    LYS  CG   CT2   -0.180000       12.0110           0
      87 PROA 6    LYS  HG1  HA2    0.090000        1.0080           0
      88 PROA 6    LYS  HG2  HA2    0.090000        1.0080           0
      89 PROA 6    LYS  CD   CT2   -0.180000       12.0110           0
      90 PROA 6    LYS  HD1  HA2    0.090000        1.0080           0
      91 PROA 6    LYS  HD2  HA2    0.090000        1.0080           0
      92 PROA 6    LYS  CE   CT2    0.210000       12.0110           0
      93 PROA 6    LYS  HE1  HA2    0.050000        1.0080           0
      94 PROA 6    LYS  HE2  HA2    0.050000        1.0080           0
      95 PROA 6    LYS  NZ   NH3   -0.300000       14.0070           0
      96 PROA 6    LYS  HZ1  HC     0.330000        1.0080           0
      97 PROA 6    LYS  HZ2  HC     0.330000        1.0080           0
      98 PROA 6    LYS  HZ3  HC     0.330000        1.0080           0
      99 PROA 6    LYS  C    C      0.510000       12.0110           0
     100 PROA 6    LYS  O    O     -0.510000       15.9994           0
     101 PROA 7    LYS  N    NH1   -0.470000       14.0070           0
     102 PROA 7    LYS  HN   H      0.310000        1.0080           0
     103 PROA 7    LYS  CA   CT1    0.070000       12.0110           0
     104 PROA 7    LYS  HA   HB1    0.090000        1.0080           0
     105 PROA 7    LYS  CB   CT2   -0.180000       12.0110           0
     106 PROA 7    LYS  HB1  HA2    0.090000        1.0080           0
     107 PROA 7    LYS  HB2  HA2    0.090000        1.0080           0
     108 PROA 7    LYS  CG   CT2   -0.180000       12.0110           0
     109 PROA 7    LYS  HG1  HA2    0.090000        1.0080           0
     110 PROA 7    LYS  HG2  HA2    0.090000        1.0080           0
     111 PROA 7    LYS  CD   CT2   -0.180000       12.0110           0
     112 PROA 7    LYS  HD1  HA2    0.090000        1.0080           0
     113 PROA 7    LYS  HD2  HA2    0.090000        1.0080           0
     114 PROA 7    LYS  CE   CT2    0.210000       12.0110           0
     115 PROA 7    LYS  HE1  HA2    0.050000        1.0080           0
     116 PROA 7    LYS  HE2  HA2    0.050000        1.0080           0
     117 PROA 7    LYS  NZ   NH3   -0.300000       14.0070           0
     118 PROA 7    LYS  HZ1  HC     0.330000        1.0080           0
     119 PROA 7    LYS  HZ2  HC     0.330000        1.0080           0
     120 PROA 7    LYS  HZ3  HC     0.330000        1.0080           0
     121 PROA 7    LYS  C    C      0.510000       12.0110           0
     122 PROA 7    LYS  O    O     -0.510000       15.9994           0
     123 PROA 8    ALA  N    NH1   -0.470000       14.0070           0
     124 PROA 8    ALA  HN   H      0.310000        1.0080           0
     125 PROA 8    ALA  CA   CT1    0.070000       12.0110           0
     126 PROA 8    ALA  HA   HB1    0.090000        1.0080           0
     127 PROA 8    ALA  CB   CT3   -0.270000       12.0110           0
     128 PROA 8    ALA  HB1  HA3    0.090000        1.0080           0
     129 PROA 8    ALA  HB2  HA3    0.090000        1.0080           0
     130 PROA 8    ALA  HB3  HA3    0.090000        1.0080           0
     131 PROA 8    ALA  C    C      0.510000       12.0110           0
     132 PROA 8    ALA  O    O     -0.510000       15.9994           0
     133 PROA 9    ALA  N    NH1   -0.470000       14.0070           0
     134 PROA 9    ALA  HN   H      0.310000        1.0080           0
     135 PROA 9    ALA  CA   CT1    0.070000       12.0110           0
     136 PROA 9    ALA  HA   HB1    0.090000        1.0080           0
     137 PROA 9    ALA  CB   CT3   -0.270000       12.0110           0
     138 PROA 9    ALA  HB1  HA3    0.090000        1.0080           0
     139 PROA 9    ALA  HB2  HA3    0.090000        1.0080           0
     140 PROA 9    ALA  HB3  HA3    0.090000        1.0080           0
     141 PROA 9    ALA  C    C      0.510000       12.0110           0
     142 PROA 9    ALA  O    O     -0.510000       15.9994           0
     143 PROA 10   LYS  N    NH1   -0.470000       14.0070           0
     144 PROA 10   LYS  HN   H      0.310000        1.0080           0
     145 PROA 10   LYS  CA   CT1    0.070000       12.0110           0
     146 PROA 10   LYS  HA   HB1    0.090000        1.0080           0
     147 PROA 10   LYS  CB   CT2   -0.180000       12.0110           0
     148 PROA 10   LYS  HB1  HA2    0.090000        1.0080           0
     149 PROA 10   LYS  HB2  HA2    0.090000        1.0080           0
     150 PROA 10   LYS  CG   CT2   -0.180000       12.0110           0
     151 PROA 10   LYS  HG1  HA2    0.090000        1.0080           0
     152 PROA 10   LYS  HG2  HA2    0.090000        1.0080           0
     153 PROA 10   LYS  CD   CT2   -0.180000       12.0110           0
     154 PROA 10   LYS  HD1  HA2    0.090000        1.0080           0
     155 PROA 10   LYS  HD2  HA2    0.090000        1.0080           0
     156 PROA 10   LYS  CE   CT2    0.210000       12.0110           0
     157 PROA 10   LYS  HE1  HA2    0.050000        1.0080           0
     158 PROA 10   LYS  HE2  HA2    0.050000        1.0080           0
     159 PROA 10   LYS  NZ   NH3   -0.300000       14.0070           0
     160 PROA 10   LYS  HZ1  HC     0.330000        1.0080           0
     161 PROA 10   LYS  HZ2  HC     0.330000        1.0080           0
     162 PROA 10   LYS  HZ3  HC     0.330000        1.0080           0
     163 PROA 10   LYS  C    C      0.510000       12.0110           0
     164 PROA 10   LYS  O    O     -0.510000       15.9994           0
     165 PROA 11   LYS  N    NH1   -0.470000       14.0070           0
     166 PROA 11   LYS  HN   H      0.310000        1.0080           0
     167 PROA 11   LYS  CA   CT1    0.070000       12.0110           0
     168 PROA 11   LYS  HA   HB1    0.090000        1.0080           0
     169 PROA 11   LYS  CB   CT2   -0.180000       12.0110           0
     170 PROA 11   LYS  HB1  HA2    0.090000        1.0080           0
     171 PROA 11   LYS  HB2  HA2    0.090000        1.0080           0
     172 PROA 11   LYS  CG   CT2   -0.180000       12.0110           0
     173 PROA 11   LYS  HG1  HA2    0.090000        1.0080           0
     174 PROA 11   LYS  HG2  HA2    0.090000        1.0080           0
     175 PROA 11   LYS  CD   CT2   -0.180000       12.0110           0
     176 PROA 11   LYS  HD1  HA2    0.090000        1.0080           0
     177 PROA 11   LYS  HD2  HA2    0.090000        1.0080           0
     178 PROA 11   LYS  CE   CT2    0.210000       12.0110           0
     179 PROA 11   LYS  HE1  HA2    0.050000        1.0080           0
     180 PROA 11   LYS  HE2  HA2    0.050000        1.0080           0
     181 PROA 11   LYS  NZ   NH3   -0.300000       14.0070           0
     182 PROA 11   LYS  HZ1  HC     0.330000        1.0080           0
     183 PROA 11   LYS  HZ2  HC     0.330000        1.0080           0
     184 PROA 11   LYS  HZ3  HC     0.330000        1.0080           0
     185 PROA 11   LYS  C    C      0.510000       12.0110           0
     186 PROA 11   LYS  O    O     -0.510000       15.9994           0
     187 PROA 12   LEU  N    NH1   -0.470000       14.0070           0
     188 PROA 12   LEU  HN   H      0.310000        1.0080           0
     189 PROA 12   LEU  CA   CT1    0.070000       12.0110           0
     190 PROA 12   LEU  HA   HB1    0.090000        1.0080           0
     191 PROA 12   LEU  CB   CT2   -0.180000       12.0110           0
     192 PROA 12   LEU  HB1  HA2    0.090000        1.0080           0
     193 PROA 12   LEU  HB2  HA2    0.090000        1.0080           0
     194 PROA 12   LEU  CG   CT1   -0.090000       12.0110           0
     195 PROA 12   LEU  HG   HA1    0.090000        1.0080           0
     196 PROA 12   LEU  CD1  CT3   -0.270000       12.0110           0
     197 PROA 12   LEU  HD11 HA3    0.090000        1.0080           0
     198 PROA 12   LEU  HD12 HA3    0.090000        1.0080           0
     199 PROA 12   LEU  HD13 HA3    0.090000        1.0080           0
     200 PROA 12   LEU  CD2  CT3   -0.270000       12.0110           0
     201 PROA 12   LEU  HD21 HA3    0.090000        1.0080           0
     202 PROA 12   LEU  HD22 HA3    0.090000        1.0080           0
     203 PROA 12   LEU  HD23 HA3    0.090000        1.0080           0
     204 PROA 12   LEU  C    C      0.510000       12.0110           0
     205 PROA 12   LEU  O    O     -0.510000       15.9994           0
     206 PROA 13   ALA  N    NH1   -0.470000       14.0070           0
     207 PROA 13   ALA  HN   H      0.310000        1.0080           0
     208 PROA 13   ALA  CA   CT1    0.070000       12.0110           0
     209 PROA 13   ALA  HA   HB1    0.090000        1.0080           0
     210 PROA 13   ALA  CB   CT3   -0.270000       12.0110           0
     211 PROA 13   ALA  HB1  HA3    0.090000        1.0080           0
     212 PROA 13   ALA  HB2  HA3    0.090000        1.0080           0
     213 PROA 13   ALA  HB3  HA3    0.090000        1.0080           0
     214 PROA 13   ALA  C    C      0.510000       12.0110           0
     215 PROA 13   ALA  O    O     -0.510000       15.9994           0
     216 PROA 14   GLU  N    NH1   -0.470000       14.0070           0
     217 PROA 14   GLU  HN   H      0.310000        1.0080           0
     218 PROA 14   GLU  CA   CT1    0.070000       12.0110           0
     219 PROA 14   GLU  HA   HB1    0.090000        1.0080           0
     220 PROA 14   GLU  CB   CT2A  -0.180000       12.0110           0
     221 PROA 14   GLU  HB1  HA2    0.090000        1.0080           0
     222 PROA 14   GLU  HB2  HA2    0.090000        1.0080           0
     223 PROA 14   GLU  CG   CT2   -0.280000       12.0110           0
     224 PROA 14   GLU  HG1  HA2    0.090000        1.0080           0
     225 PROA 14   GLU  HG2  HA2    0.090000        1.0080           0
     226 PROA 14   GLU  CD   CC     0.620000       12.0110           0
     227 PROA 14   GLU  OE1  OC    -0.760000       15.9994           0
     228 PROA 14   GLU  OE2  OC    -0.760000       15.9994           0
     229 PROA 14   GLU  C    C      0.510000       12.0110           0
     230 PROA 14   GLU  O    O     -0.510000       15.9994           0
     231 PROA 15   SER  N    NH1   -0.470000       14.0070           0
     232 PROA 15   SER  HN   H      0.310000        1.0080           0
     233 PROA 15   SER  CA   CT1    0.070000       12.0110           0
     234 PROA 15   SER  HA   HB1    0.090000        1.0080           0
     235 PROA 15   SER  CB   CT2    0.050000       12.0110           0
     236 PROA 15   SER  HB1  HA2    0.090000        1.0080           0
     237 PROA 15   SER  HB2  HA2    0.090000        1.0080           0
     238 PROA 15   SER  OG   OH1   -0.660000       15.9994           0
     239 PROA 15   SER  HG1  H      0.430000        1.0080           0
     240 PROA 15   SER  C    C      0.510000       12.0110           0
     241 PROA 15   SER  O    O     -0.510000       15.9994           0
     242 PROA 15   SER  NT   NH1   -0.470000       14.0070           0
     243 PROA 15   SER  HNT  H      0.310000        1.0080           0
     244 PROA 15   SER  CAT  CT3   -0.110000       12.0110           0
     245 PROA 15   SER  HT1  HA3    0.090000        1.0080           0
     246 PROA 15   SER  HT2  HA3    0.090000        1.0080           0
     247 PROA 15   SER  HT3  HA3    0.090000        1.0080           0
     248 MEMB 1    CHL1 C3   CRL1   0.140000       12.0110           0
     249 MEMB 1    CHL1 H3   HGA1   0.090000        1.0080           0
     250 MEMB 1    CHL1 O3   OHL   -0.660000       15.9994           0
     251 MEMB 1    CHL1 H3'  HOL    0.430000        1.0080           0
     252 MEMB 1    CHL1 C4   CRL2  -0.180000       12.0110           0
     253 MEMB 1    CHL1 H4A  HGA2   0.090000        1.0080           0
     254 MEMB 1    CHL1 H4B  HGA2   0.090000        1.0080           0
     255 MEMB 1    CHL1 C5   CEL1   0.000000       12.0110           0
     256 MEMB 1    CHL1 C6   CEL1  -0.150000       12.0110           0
     257 MEMB 1    CHL1 H6   HEL1   0.150000        1.0080           0
     258 MEMB 1    CHL1 C7   CRL2  -0.180000       12.0110           0
     259 MEMB 1    CHL1 H7A  HGA2   0.090000        1.0080           0
     260 MEMB 1    CHL1 H7B  HGA2   0.090000        1.0080           0
     261 MEMB 1    CHL1 C8   CRL1  -0.090000       12.0110           0
     262 MEMB 1    CHL1 H8   HGA1   0.090000        1.0080           0
     263 MEMB 1    CHL1 C14  CRL1  -0.090000       12.0110           0
     264 MEMB 1    CHL1 H14  HGA1   0.090000        1.0080           0
     265 MEMB 1    CHL1 C15  CRL2  -0.180000       12.0110           0
     266 MEMB 1    CHL1 H15A HGA2   0.090000        1.0080           0
     267 MEMB 1    CHL1 H15B HGA2   0.090000        1.0080           0
     268 MEMB 1    CHL1 C16  CRL2  -0.180000       12.0110           0
     269 MEMB 1    CHL1 H16A HGA2   0.090000        1.0080           0
     270 MEMB 1    CHL1 H16B HGA2   0.090000        1.0080           0
     271 MEMB 1    CHL1 C17  CRL1  -0.090000       12.0110           0
     272 MEMB 1    CHL1 H17  HGA1   0.090000        1.0080           0
     273 MEMB 1    CHL1 C13  CRL1   0.000000       12.0110           0
     274 MEMB 1    CHL1 C18  CTL3  -0.270000       12.0110           0
     275 MEMB 1    CHL1 H18A HAL3   0.090000        1.0080           0
     276 MEMB 1    CHL1 H18B HAL3   0.090000        1.0080           0
     277 MEMB 1    CHL1 H18C HAL3   0.090000        1.0080           0
     278 MEMB 1    CHL1 C12  CRL2  -0.180000       12.0110           0
     279 MEMB 1    CHL1 H12A HGA2   0.090000        1.0080           0
     280 MEMB 1    CHL1 H12B HGA2   0.090000        1.0080           0
     281 MEMB 1    CHL1 C11  CRL2  -0.180000       12.0110           0
     282 MEMB 1    CHL1 H11A HGA2   0.090000        1.0080           0
     283 MEMB 1    CHL1 H11B HGA2   0.090000        1.0080           0
     284 MEMB 1    CHL1 C9   CRL1  -0.090000       12.0110           0
     285 MEMB 1    CHL1 H9   HGA1   0.090000        1.0080           0
     286 MEMB 1    CHL1 C10  CRL1   0.000000       12.0110           0
     287 MEMB 1    CHL1 C19  CTL3  -0.270000       12.0110           0
     288 MEMB 1    CHL1 H19A HAL3   0.090000        1.0080           0
     289 MEMB 1    CHL1 H19B HAL3   0.090000        1.0080           0
     290 MEMB 1    CHL1 H19C HAL3   0.090000        1.0080           0
     291 MEMB 1    CHL1 C1   CRL2  -0.180000       12.0110           0
     292 MEMB 1    CHL1 H1A  HGA2   0.090000        1.0080           0
     293 MEMB 1    CHL1 H1B  HGA2   0.090000        1.0080           0
     294 MEMB 1    CHL1 C2   CRL2  -0.180000       12.0110           0
     295 MEMB 1    CHL1 H2A  HGA2   0.090000        1.0080           0
     296 MEMB 1    CHL1 H2B  HGA2   0.090000        1.0080           0
     297 MEMB 1    CHL1 C20  CTL1  -0.090000       12.0110           0
     298 MEMB 1    CHL1 H20  HAL1   0.090000        1.0080           0
     299 MEMB 1    CHL1 C21  CTL3  -0.270000       12.0110           0
     300 MEMB 1    CHL1 H21A HAL3   0.090000        1.0080           0
     301 MEMB 1    CHL1 H21B HAL3   0.090000        1.0080           0
     302 MEMB 1    CHL1 H21C HAL3   0.090000        1.0080           0
     303 MEMB 1    CHL1 C22  CTL2  -0.180000       12.0110           0
     304 MEMB 1    CHL1 H22A HAL2   0.090000        1.0080           0
     305 MEMB 1    CHL1 H22B HAL2   0.090000        1.0080           0
     306 MEMB 1    CHL1 C23  CTL2  -0.180000       12.0110           0
     307 MEMB 1    CHL1 H23A HAL2   0.090000        1.0080           0
     308 MEMB 1    CHL1 H23B HAL2   0.090000        1.0080           0
     309 MEMB 1    CHL1 C24  CTL2  -0.180000       12.0110           0
     310 MEMB 1    CHL1 H24A HAL2   0.090000        1.0080           0
     311 MEMB 1    CHL1 H24B HAL2   0.090000        1.0080           0
     312 MEMB 1    CHL1 C25  CTL1  -0.090000       12.0110           0
     313 MEMB 1    CHL1 H25  HAL1   0.090000        1.0080           0
     314 MEMB 1    CHL1 C26  CTL3  -0.270000       12.0110           0
     315 MEMB 1    CHL1 H26A HAL3   0.090000        1.0080           0
     316 MEMB 1    CHL1 H26B HAL3   0.090000        1.0080           0
     317 MEMB 1    CHL1 H26C HAL3   0.090000        1.0080           0
     318 MEMB 1    CHL1 C27  CTL3  -0.270000       12.0110           0
     319 MEMB 1    CHL1 H27A HAL3   0.090000        1.0080           0
     320 MEMB 1    CHL1 H27B HAL3   0.090000        1.0080           0
     321 MEMB 1    CHL1 H27C HAL3   0.090000        1.0080           0
     322 MEMB 2    CHL1 C3   CRL1   0.140000       12.0110           0
     323 MEMB 2    CHL1 H3   HGA1   0.090000        1.0080           0
     324 MEMB 2    CHL1 O3   OHL   -0.660000       15.9994           0
     325 MEMB 2    CHL1 H3'  HOL    0.430000        1.0080           0
     326 MEMB 2    CHL1 C4   CRL2  -0.180000       12.0110           0
     327 MEMB 2    CHL1 H4A  HGA2   0.090000        1.0080           0
     328 MEMB 2    CHL1 H4B  HGA2   0.090000        1.0080           0
     329 MEMB 2    CHL1 C5   CEL1   0.000000       12.0110           0
     330 MEMB 2    CHL1 C6   CEL1  -0.150000       12.0110           0
     331 MEMB 2    CHL1 H6   HEL1   0.150000        1.0080           0
     332 MEMB 2    CHL1 C7   CRL2  -0.180000       12.0110           0
     333 MEMB 2    CHL1 H7A  HGA2   0.090000        1.0080           0
     334 MEMB 2    CHL1 H7B  HGA2   0.090000        1.0080           0
     335 MEMB 2    CHL1 C8   CRL1  -0.090000       12.0110           0
     336 MEMB 2    CHL1 H8   HGA1   0.090000        1.0080           0
     337 MEMB 2    CHL1 C14  CRL1  -0.090000       12.0110           0
     338 MEMB 2    CHL1 H14  HGA1   0.090000        1.0080           0
     339 MEMB 2    CHL1 C15  CRL2  -0.180000       12.0110           0
     340 MEMB 2    CHL1 H15A HGA2   0.090000        1.0080           0
     341 MEMB 2    CHL1 H15B HGA2   0.090000        1.0080           0
     342 MEMB 2    CHL1 C16  CRL2  -0.180000       12.0110           0
     343 MEMB 2    CHL1 H16A HGA2   0.090000        1.0080           0
     344 MEMB 2    CHL1 H16B HGA2   0.090000        1.0080           0
     345 MEMB 2    CHL1 C17  CRL1  -0.090000       12.0110           0
     346 MEMB 2    CHL1 H17  HGA1   0.090000        1.0080           0
     347 MEMB 2    CHL1 C13  CRL1   0.000000       12.0110           0
     348 MEMB 2    CHL1 C18  CTL3  -0.270000       12.0110           0
     349 MEMB 2    CHL1 H18A HAL3   0.090000        1.0080           0
     350 MEMB 2    CHL1 H18B HAL3   0.090000        1.0080           0
     351 MEMB 2    CHL1 H18C HAL3   0.090000        1.0080           0
     352 MEMB 2    CHL1 C12  CRL2  -0.180000       12.0110           0
     353 MEMB 2    CHL1 H12A HGA2   0.090000        1.0080           0
     354 MEMB 2    CHL1 H12B HGA2   0.090000        1.0080           0
     355 MEMB 2    CHL1 C11  CRL2  -0.180000       12.0110           0
     356 MEMB 2    CHL1 H11A HGA2   0.090000        1.0080           0
     357 MEMB 2    CHL1 H11B HGA2   0.090000        1.0080           0
     358 MEMB 2    CHL1 C9   CRL1  -0.090000       12.0110           0
     359 MEMB 2    CHL1 H9   HGA1   0.090000        1.0080           0
     360 MEMB 2    CHL1 C10  CRL1   0.000000       12.0110           0
     361 MEMB 2    CHL1 C19  CTL3  -0.270000       12.0110           0
     362 MEMB 2    CHL1 H19A HAL3   0.090000        1.0080           0
     363 MEMB 2    CHL1 H19B HAL3   0.090000        1.0080           0
     364 MEMB 2    CHL1 H19C HAL3   0.090000        1.0080           0
     365 MEMB 2    CHL1 C1   CRL2  -0.180000       12.0110           0
     366 MEMB 2    CHL1 H1A  HGA2   0.090000        1.0080           0
     367 MEMB 2    CHL1 H1B  HGA2   0.090000        1.0080           0
     368 MEMB 2    CHL1 C2   CRL2  -0.180000       12.0110           0
     369 MEMB 2    CHL1 H2A  HGA2   0.090000        1.0080           0
     370 MEMB 2    CHL1 H2B  HGA2   0.090000        1.0080           0
     371 MEMB 2    CHL1 C20  CTL1  -0.090000       12.0110           0
     372 MEMB 2    CHL1 H20  HAL1   0.090000        1.0080           0
     373 MEMB 2    CHL1 C21  CTL3  -0.270000       12.0110           0
     374 MEMB 2    CHL1 H21A HAL3   0.090000        1.0080           0
     375 MEMB 2    CHL1 H21B HAL3   0.090000        1.0080           0
     376 MEMB 2    CHL1 H21C HAL3   0.090000        1.0080           0
     377 MEMB 2    CHL1 C22  CTL2  -0.180000       12.0110           0
     378 MEMB 2    CHL1 H22A HAL2   0.090000        1.0080           0
     379 MEMB 2    CHL1 H22B HAL2   0.090000        1.0080           0
     380 MEMB 2    CHL1 C23  CTL2  -0.180000       12.0110           0
     381 MEMB 2    CHL1 H23A HAL2   0.090000        1.0080           0
     382 MEMB 2    CHL1 H23B HAL2   0.090000        1.0080           0
     383 MEMB 2    CHL1 C24  CTL2  -0.180000       12.0110           0
     384 MEMB 2    CHL1 H24A HAL2   0.090000        1.0080           0
     385 MEMB 2    CHL1 H24B HAL2   0.090000        1.0080           0
     386 MEMB 2    CHL1 C25  CTL1  -0.090000       12.0110           0
     387 MEMB 2    CHL1 H25  HAL1   0.090000        1.0080           0
     388 MEMB 2    CHL1 C26  CTL3  -0.270000       12.0110           0
     389 MEMB 2    CHL1 H26A HAL3   0.090000        1.0080           0
     390 MEMB 2    CHL1 H26B HAL3   0.090000        1.0080           0
     391 MEMB 2    CHL1 H26C HAL3   0.090000        1.0080           0
     392 MEMB 2    CHL1 C27  CTL3  -0.270000       12.0110           0
     393 MEMB 2    CHL1 H27A HAL3   0.090000        1.0080           0
     394 MEMB 2    CHL1 H27B HAL3   0.090000        1.0080           0
     395 MEMB 2    CHL1 H27C HAL3   0.090000        1.0080           0
     396 MEMB 3    CHL1 C3   CRL1   0.140000       12.0110           0
     397 MEMB 3    CHL1 H3   HGA1   0.090000        1.0080           0
     398 MEMB 3    CHL1 O3   OHL   -0.660000       15.9994           0
     399 MEMB 3    CHL1 H3'  HOL    0.430000        1.0080           0
     400 MEMB 3    CHL1 C4   CRL2  -0.180000       12.0110           0
     401 MEMB 3    CHL1 H4A  HGA2   0.090000        1.0080           0
     402 MEMB 3    CHL1 H4B  HGA2   0.090000        1.0080           0
     403 MEMB 3    CHL1 C5   CEL1   0.000000       12.0110           0
     404 MEMB 3    CHL1 C6   CEL1  -0.150000       12.0110           0
     405 MEMB 3    CHL1 H6   HEL1   0.150000        1.0080           0
     406 MEMB 3    CHL1 C7   CRL2  -0.180000       12.0110           0
     407 MEMB 3    CHL1 H7A  HGA2   0.090000        1.0080           0
     408 MEMB 3    CHL1 H7B  HGA2   0.090000        1.0080           0
     409 MEMB 3    CHL1 C8   CRL1  -0.090000       12.0110           0
     410 MEMB 3    CHL1 H8   HGA1   0.090000        1.0080           0
     411 MEMB 3    CHL1 C14  CRL1  -0.090000       12.0110           0
     412 MEMB 3    CHL1 H14  HGA1   0.090000        1.0080           0
     413 MEMB 3    CHL1 C15  CRL2  -0.180000       12.0110           0
     414 MEMB 3    CHL1 H15A HGA2   0.090000        1.0080           0
     415 MEMB 3    CHL1 H15B HGA2   0.090000        1.0080           0
     416 MEMB 3    CHL1 C16  CRL2  -0.180000       12.0110           0
     417 MEMB 3    CHL1 H16A HGA2   0.090000        1.0080           0
     418 MEMB 3    CHL1 H16B HGA2   0.090000        1.0080           0
     419 MEMB 3    CHL1 C17  CRL1  -0.090000       12.0110           0
     420 MEMB 3    CHL1 H17  HGA1   0.090000        1.0080           0
     421 MEMB 3    CHL1 C13  CRL1   0.000000       12.0110           0
     422 MEMB 3    CHL1 C18  CTL3  -0.270000       12.0110           0
     423 MEMB 3    CHL1 H18A HAL3   0.090000        1.0080           0
     424 MEMB 3    CHL1 H18B HAL3   0.090000        1.0080           0
     425 MEMB 3    CHL1 H18C HAL3   0.090000        1.0080           0
     426 MEMB 3    CHL1 C12  CRL2  -0.180000       12.0110           0
     427 MEMB 3    CHL1 H12A HGA2   0.090000        1.0080           0
     428 MEMB 3    CHL1 H12B HGA2   0.090000        1.0080           0
     429 MEMB 3    CHL1 C11  CRL2  -0.180000       12.0110           0
     430 MEMB 3    CHL1 H11A HGA2   0.090000        1.0080           0
     431 MEMB 3    CHL1 H11B HGA2   0.090000        1.0080           0
     432 MEMB 3    CHL1 C9   CRL1  -0.090000       12.0110           0
     433 MEMB 3    CHL1 H9   HGA1   0.090000        1.0080           0
     434 MEMB 3    CHL1 C10  CRL1   0.000000       12.0110           0
     435 MEMB 3    CHL1 C19  CTL3  -0.270000       12.0110           0
     436 MEMB 3    CHL1 H19A HAL3   0.090000        1.0080           0
     437 MEMB 3    CHL1 H19B HAL3   0.090000        1.0080           0
     438 MEMB 3    CHL1 H19C HAL3   0.090000        1.0080           0
     439 MEMB 3    CHL1 C1   CRL2  -0.180000       12.0110           0
     440 MEMB 3    CHL1 H1A  HGA2   0.090000        1.0080           0
     441 MEMB 3    CHL1 H1B  HGA2   0.090000        1.0080           0
     442 MEMB 3    CHL1 C2   CRL2  -0.180000       12.0110           0
     443 MEMB 3    CHL1 H2A  HGA2   0.090000        1.0080           0
     444 MEMB 3    CHL1 H2B  HGA2   0.090000        1.0080           0
     445 MEMB 3    CHL1 C20  CTL1  -0.090000       12.0110           0
     446 MEMB 3    CHL1 H20  HAL1   0.090000        1.0080           0
     447 MEMB 3    CHL1 C21  CTL3  -0.270000       12.0110           0
     448 MEMB 3    CHL1 H21A HAL3   0.090000        1.0080           0
     449 MEMB 3    CHL1 H21B HAL3   0.090000        1.0080           0
     450 MEMB 3    CHL1 H21C HAL3   0.090000        1.0080           0
     451 MEMB 3    CHL1 C22  CTL2  -0.180000       12.0110           0
     452 MEMB 3    CHL1 H22A HAL2   0.090000        1.0080           0
     453 MEMB 3    CHL1 H22B HAL2   0.090000        1.0080           0
     454 MEMB 3    CHL1 C23  CTL2  -0.180000       12.0110           0
     455 MEMB 3    CHL1 H23A HAL2   0.090000        1.0080           0
     456 MEMB 3    CHL1 H23B HAL2   0.090000        1.0080           0
     457 MEMB 3    CHL1 C24  CTL2  -0.180000       12.0110           0
     458 MEMB 3    CHL1 H24A HAL2   0.090000        1.0080           0
     459 MEMB 3    CHL1 H24B HAL2   0.090000        1.0080           0
     460 MEMB 3    CHL1 C25  CTL1  -0.090000       12.0110           0
     461 MEMB 3    CHL1 H25  HAL1   0.090000        1.0080           0
     462 MEMB 3    CHL1 C26  CTL3  -0.270000       12.0110           0
     463 MEMB 3    CHL1 H26A HAL3   0.090000        1.0080           0
     464 MEMB 3    CHL1 H26B HAL3   0.090000        1.0080           0
     465 MEMB 3    CHL1 H26C HAL3   0.090000        1.0080           0
     466 MEMB 3    CHL1 C27  CTL3  -0.270000       12.0110           0
     467 MEMB 3    CHL1 H27A HAL3   0.090000        1.0080           0
     468 MEMB 3    CHL1 H27B HAL3   0.090000        1.0080           0
     469 MEMB 3    CHL1 H27C HAL3   0.090000        1.0080           0
     470 MEMB 4    CHL1 C3   CRL1   0.140000       12.0110           0
     471 MEMB 4    CHL1 H3   HGA1   0.090000        1.0080           0
     472 MEMB 4    CHL1 O3   OHL   -0.660000       15.9994           0
     473 MEMB 4    CHL1 H3'  HOL    0.430000        1.0080           0
     474 MEMB 4    CHL1 C4   CRL2  -0.180000       12.0110           0
     475 MEMB 4    CHL1 H4A  HGA2   0.090000        1.0080           0
     476 MEMB 4    CHL1 H4B  HGA2   0.090000        1.0080           0
     477 MEMB 4    CHL1 C5   CEL1   0.000000       12.0110           0
     478 MEMB 4    CHL1 C6   CEL1  -0.150000       12.0110           0
     479 MEMB 4    CHL1 H6   HEL1   0.150000        1.0080           0
     480 MEMB 4    CHL1 C7   CRL2  -0.180000       12.0110           0
     481 MEMB 4    CHL1 H7A  HGA2   0.090000        1.0080           0
     482 MEMB 4    CHL1 H7B  HGA2   0.090000        1.0080           0
     483 MEMB 4    CHL1 C8   CRL1  -0.090000       12.0110           0
     484 MEMB 4    CHL1 H8   HGA1   0.090000        1.0080           0
     485 MEMB 4    CHL1 C14  CRL1  -0.090000       12.0110           0
     486 MEMB 4    CHL1 H14  HGA1   0.090000        1.0080           0
     487 MEMB 4    CHL1 C15  CRL2  -0.180000       12.0110           0
     488 MEMB 4    CHL1 H15A HGA2   0.090000        1.0080           0
     489 MEMB 4    CHL1 H15B HGA2   0.090000        1.0080           0
     490 MEMB 4    CHL1 C16  CRL2  -0.180000       12.0110           0
     491 MEMB 4    CHL1 H16A HGA2   0.090000        1.0080           0
     492 MEMB 4    CHL1 H16B HGA2   0.090000        1.0080           0
     493 MEMB 4    CHL1 C17  CRL1  -0.090000       12.0110           0
     494 MEMB 4    CHL1 H17  HGA1   0.090000        1.0080           0
     495 MEMB 4    CHL1 C13  CRL1   0.000000       12.0110           0
     496 MEMB 4    CHL1 C18  CTL3  -0.270000       12.0110           0
     497 MEMB 4    CHL1 H18A HAL3   0.090000        1.0080           0
     498 MEMB 4    CHL1 H18B HAL3   0.090000        1.0080           0
     499 MEMB 4    CHL1 H18C HAL3   0.090000        1.0080           0
     500 MEMB 4    CHL1 C12  CRL2  -0.180000       12.0110           0
     501 MEMB 4    CHL1 H12A HGA2   0.090000        1.0080           0
     502 MEMB 4    CHL1 H12B HGA2   0.090000        1.0080           0
     503 MEMB 4    CHL1 C11  CRL2  -0.180000       12.0110           0
     504 MEMB 4    CHL1 H11A HGA2   0.090000        1.0080           0
     505 MEMB 4    CHL1 H11B HGA2   0.090000        1.0080           0
     506 MEMB 4    CHL1 C9   CRL1  -0.090000       12.0110           0
     507 MEMB 4    CHL1 H9   HGA1   0.090000        1.0080           0
     508 MEMB 4    CHL1 C10  CRL1   0.000000       12.0110           0
     509 MEMB 4    CHL1 C19  CTL3  -0.270000       12.0110           0
     510 MEMB 4    CHL1 H19A HAL3   0.090000        1.0080           0
     511 MEMB 4    CHL1 H19B HAL3   0.090000        1.0080           0
     512 MEMB 4    CHL1 H19C HAL3   0.090000        1.0080           0
     513 MEMB 4    CHL1 C1   CRL2  -0.180000       12.0110           0
     514 MEMB 4    CHL1 H1A  HGA2   0.090000        1.0080           0
     515 MEMB 4    CHL1 H1B  HGA2   0.090000        1.0080           0
     516 MEMB 4    CHL1 C2   CRL2  -0.180000       12.0110           0
     517 MEMB 4    CHL1 H2A  HGA2   0.090000        1.0080           0
     518 MEMB 4    CHL1 H2B  HGA2   0.090000        1.0080           0
     519 MEMB 4    CHL1 C20  CTL1  -0.090000       12.0110           0
     520 MEMB 4    CHL1 H20  HAL1   0.090000        1.0080           0
     521 MEMB 4    CHL1 C21  CTL3  -0.270000       12.0110           0
     522 MEMB 4    CHL1 H21A HAL3   0.090000        1.0080           0
     523 MEMB 4    CHL1 H21B HAL3   0.090000        1.0080           0
     524 MEMB 4    CHL1 H21C HAL3   0.090000        1.0080           0
     525 MEMB 4    CHL1 C22  CTL2  -0.180000       12.0110           0
     526 MEMB 4    CHL1 H22A HAL2   0.090000        1.0080           0
     527 MEMB 4    CHL1 H22B HAL2   0.090000        1.0080           0
     528 MEMB 4    CHL1 C23  CTL2  -0.180000       12.0110           0
     529 MEMB 4    CHL1 H23A HAL2   0.090000        1.0080           0
     530 MEMB 4    CHL1 H23B HAL2   0.090000        1.0080           0
     531 MEMB 4    CHL1 C24  CTL2  -0.180000       12.0110           0
     532 MEMB 4    CHL1 H24A HAL2   0.090000        1.0080           0
     533 MEMB 4    CHL1 H24B HAL2   0.090000        1.0080           0
     534 MEMB 4    CHL1 C25  CTL1  -0.090000       12.0110           0
     535 MEMB 4    CHL1 H25  HAL1   0.090000        1.0080           0
     536 MEMB 4    CHL1 C26  CTL3  -0.270000       12.0110           0
     537 MEMB 4    CHL1 H26A HAL3   0.090000        1.0080           0
     538 MEMB 4    CHL1 H26B HAL3   0.090000        1.0080           0
     539 MEMB 4    CHL1 H26C HAL3   0.090000        1.0080           0
     540 MEMB 4    CHL1 C27  CTL3  -0.270000       12.0110           0
     541 MEMB 4    CHL1 H27A HAL3   0.090000        1.0080           0
     542 MEMB 4    CHL1 H27B HAL3   0.090000        1.0080           0
     543 MEMB 4    CHL1 H27C HAL3   0.090000        1.0080           0
     544 MEMB 5    CHL1 C3   CRL1   0.140000       12.0110           0
     545 MEMB 5    CHL1 H3   HGA1   0.090000        1.0080           0
     546 MEMB 5    CHL1 O3   OHL   -0.660000       15.9994           0
     547 MEMB 5    CHL1 H3'  HOL    0.430000        1.0080           0
     548 MEMB 5    CHL1 C4   CRL2  -0.180000       12.0110           0
     549 MEMB 5    CHL1 H4A  HGA2   0.090000        1.0080           0
     550 MEMB 5    CHL1 H4B  HGA2   0.090000        1.0080           0
     551 MEMB 5    CHL1 C5   CEL1   0.000000       12.0110           0
     552 MEMB 5    CHL1 C6   CEL1  -0.150000       12.0110           0
     553 MEMB 5    CHL1 H6   HEL1   0.150000        1.0080           0
     554 MEMB 5    CHL1 C7   CRL2  -0.180000       12.0110           0
     555 MEMB 5    CHL1 H7A  HGA2   0.090000        1.0080           0
     556 MEMB 5    CHL1 H7B  HGA2   0.090000        1.0080           0
     557 MEMB 5    CHL1 C8   CRL1  -0.090000       12.0110           0
     558 MEMB 5    CHL1 H8   HGA1   0.090000        1.0080           0
     559 MEMB 5    CHL1 C14  CRL1  -0.090000       12.0110           0
     560 MEMB 5    CHL1 H14  HGA1   0.090000        1.0080           0
     561 MEMB 5    CHL1 C15  CRL2  -0.180000       12.0110           0
     562 MEMB 5    CHL1 H15A HGA2   0.090000        1.0080           0
     563 MEMB 5    CHL1 H15B HGA2   0.090000        1.0080           0
     564 MEMB 5    CHL1 C16  CRL2  -0.180000       12.0110           0
     565 MEMB 5    CHL1 H16A HGA2   0.090000        1.0080           0
     566 MEMB 5    CHL1 H16B HGA2   0.090000        1.0080           0
     567 MEMB 5    CHL1 C17  CRL1  -0.090000       12.0110           0
     568 MEMB 5    CHL1 H17  HGA1   0.090000        1.0080           0
     569 MEMB 5    CHL1 C13  CRL1   0.000000       12.0110           0
     570 MEMB 5    CHL1 C18  CTL3  -0.270000       12.0110           0
     571 MEMB 5    CHL1 H18A HAL3   0.090000        1.0080           0
     572 MEMB 5    CHL1 H18B HAL3   0.090000        1.0080           0
     573 MEMB 5    CHL1 H18C HAL3   0.090000        1.0080           0
     574 MEMB 5    CHL1 C12  CRL2  -0.180000       12.0110           0
     575 MEMB 5    CHL1 H12A HGA2   0.090000        1.0080           0
     576 MEMB 5    CHL1 H12B HGA2   0.090000        1.0080           0
     577 MEMB 5    CHL1 C11  CRL2  -0.180000       12.0110           0
     578 MEMB 5    CHL1 H11A HGA2   0.090000        1.0080           0
     579 MEMB 5    CHL1 H11B HGA2   0.090000        1.0080           0
     580 MEMB 5    CHL1 C9   CRL1  -0.090000       12.0110           0
     581 MEMB 5    CHL1 H9   HGA1   0.090000        1.0080           0
     582 MEMB 5    CHL1 C10  CRL1   0.000000       12.0110           0
     583 MEMB 5    CHL1 C19  CTL3  -0.270000       12.0110           0
     584 MEMB 5    CHL1 H19A HAL3   0.090000        1.0080           0
     585 MEMB 5    CHL1 H19B HAL3   0.090000        1.0080           0
     586 MEMB 5    CHL1 H19C HAL3   0.090000        1.0080           0
     587 MEMB 5    CHL1 C1   CRL2  -0.180000       12.0110           0
     588 MEMB 5    CHL1 H1A  HGA2   0.090000        1.0080           0
     589 MEMB 5    CHL1 H1B  HGA2   0.090000        1.0080           0
     590 MEMB 5    CHL1 C2   CRL2  -0.180000       12.0110           0
     591 MEMB 5    CHL1 H2A  HGA2   0.090000        1.0080           0
     592 MEMB 5    CHL1 H2B  HGA2   0.090000        1.0080           0
     593 MEMB 5    CHL1 C20  CTL1  -0.090000       12.0110           0
     594 MEMB 5    CHL1 H20  HAL1   0.090000        1.0080           0
     595 MEMB 5    CHL1 C21  CTL3  -0.270000       12.0110           0
     596 MEMB 5    CHL1 H21A HAL3   0.090000        1.0080           0
     597 MEMB 5    CHL1 H21B HAL3   0.090000        1.0080           0
     598 MEMB 5    CHL1 H21C HAL3   0.090000        1.0080           0
     599 MEMB 5    CHL1 C22  CTL2  -0.180000       12.0110           0
     600 MEMB 5    CHL1 H22A HAL2   0.090000        1.0080           0
     601 MEMB 5    CHL1 H22B HAL2   0.090000        1.0080           0
     602 MEMB 5    CHL1 C23  CTL2  -0.180000       12.0110           0
     603 MEMB 5    CHL1 H23A HAL2   0.090000        1.0080           0
     604 MEMB 5    CHL1 H23B HAL2   0.090000        1.0080           0
     605 MEMB 5    CHL1 C24  CTL2  -0.180000       12.0110           0
     606 MEMB 5    CHL1 H24A HAL2   0.090000        1.0080           0
     607 MEMB 5    CHL1 H24B HAL2   0.090000        1.0080           0
     608 MEMB 5    CHL1 C25  CTL1  -0.090000       12.0110           0
     609 MEMB 5    CHL1 H25  HAL1   0.090000        1.0080           0
     610 MEMB 5    CHL1 C26  CTL3  -0.270000       12.0110           0
     611 MEMB 5    CHL1 H26A HAL3   0.090000        1.0080           0
     612 MEMB 5    CHL1 H26B HAL3   0.090000        1.0080           0
     613 MEMB 5    CHL1 H26C HAL3   0.090000        1.0080           0
     614 MEMB 5    CHL1 C27  CTL3  -0.270000       12.0110           0
     615 MEMB 5    CHL1 H27A HAL3   0.090000        1.0080           0
     616 MEMB 5    CHL1 H27B HAL3   0.090000        1.0080           0
     617 MEMB 5    CHL1 H27C HAL3   0.090000        1.0080           0
     618 MEMB 6    CHL1 C3   CRL1   0.140000       12.0110           0
     619 MEMB 6    CHL1 H3   HGA1   0.090000        1.0080           0
     620 MEMB 6    CHL1 O3   OHL   -0.660000       15.9994           0
     621 MEMB 6    CHL1 H3'  HOL    0.430000        1.0080           0
     622 MEMB 6    CHL1 C4   CRL2  -0.180000       12.0110           0
     623 MEMB 6    CHL1 H4A  HGA2   0.090000        1.0080           0
     624 MEMB 6    CHL1 H4B  HGA2   0.090000        1.0080           0
     625 MEMB 6    CHL1 C5   CEL1   0.000000       12.0110           0
     626 MEMB 6    CHL1 C6   CEL1  -0.150000       12.0110           0
     627 MEMB 6    CHL1 H6   HEL1   0.150000        1.0080           0
     628 MEMB 6    CHL1 C7   CRL2  -0.180000       12.0110           0
     629 MEMB 6    CHL1 H7A  HGA2   0.090000        1.0080           0
     630 MEMB 6    CHL1 H7B  HGA2   0.090000        1.0080           0
     631 MEMB 6    CHL1 C8   CRL1  -0.090000       12.0110           0
     632 MEMB 6    CHL1 H8   HGA1   0.090000        1.0080           0
     633 MEMB 6    CHL1 C14  CRL1  -0.090000       12.0110           0
     634 MEMB 6    CHL1 H14  HGA1   0.090000        1.0080           0
     635 MEMB 6    CHL1 C15  CRL2  -0.180000       12.0110           0
     636 MEMB 6    CHL1 H15A HGA2   0.090000        1.0080           0
     637 MEMB 6    CHL1 H15B HGA2   0.090000        1.0080           0
     638 MEMB 6    CHL1 C16  CRL2  -0.180000       12.0110           0
     639 MEMB 6    CHL1 H16A HGA2   0.090000        1.0080           0
     640 MEMB 6    CHL1 H16B HGA2   0.090000        1.0080           0
     641 MEMB 6    CHL1 C17  CRL1  -0.090000       12.0110           0
     642 MEMB 6    CHL1 H17  HGA1   0.090000        1.0080           0
     643 MEMB 6    CHL1 C13  CRL1   0.000000       12.0110           0
     644 MEMB 6    CHL1 C18  CTL3  -0.270000       12.0110           0
     645 MEMB 6    CHL1 H18A HAL3   0.090000        1.0080           0
     646 MEMB 6    CHL1 H18B HAL3   0.090000        1.0080           0
     647 MEMB 6    CHL1 H18C HAL3   0.090000        1.0080           0
     648 MEMB 6    CHL1 C12  CRL2  -0.180000       12.0110           0
     649 MEMB 6    CHL1 H12A HGA2   0.090000        1.0080           0
     650 MEMB 6    CHL1 H12B HGA2   0.090000        1.0080           0
     651 MEMB 6    CHL1 C11  CRL2  -0.180000       12.0110           0
     652 MEMB 6    CHL1 H11A HGA2   0.090000        1.0080           0
     653 MEMB 6    CHL1 H11B HGA2   0.090000        1.0080           0
     654 MEMB 6    CHL1 C9   CRL1  -0.090000       12.0110           0
     655 MEMB 6    CHL1 H9   HGA1   0.090000        1.0080           0
     656 MEMB 6    CHL1 C10  CRL1   0.000000       12.0110           0
     657 MEMB 6    CHL1 C19  CTL3  -0.270000       12.0110           0
     658 MEMB 6    CHL1 H19A HAL3   0.090000        1.0080           0
     659 MEMB 6    CHL1 H19B HAL3   0.090000        1.0080           0
     660 MEMB 6    CHL1 H19C HAL3   0.090000        1.0080           0
     661 MEMB 6    CHL1 C1   CRL2  -0.180000       12.0110           0
     662 MEMB 6    CHL1 H1A  HGA2   0.090000        1.0080           0
     663 MEMB 6    CHL1 H1B  HGA2   0.090000        1.0080           0
     664 MEMB 6    CHL1 C2   CRL2  -0.180000       12.0110           0
     665 MEMB 6    CHL1 H2A  HGA2   0.090000        1.0080           0
     666 MEMB 6    CHL1 H2B  HGA2   0.090000        1.0080           0
     667 MEMB 6    CHL1 C20  CTL1  -0.090000       12.0110           0
     668 MEMB 6    CHL1 H20  HAL1   0.090000        1.0080           0
     669 MEMB 6    CHL1 C21  CTL3  -0.270000       12.0110           0
     670 MEMB 6    CHL1 H21A HAL3   0.090000        1.0080           0
     671 MEMB 6    CHL1 H21B HAL3   0.090000        1.0080           0
     672 MEMB 6    CHL1 H21C HAL3   0.090000        1.0080           0
     673 MEMB 6    CHL1 C22  CTL2  -0.180000       12.0110           0
     674 MEMB 6    CHL1 H22A HAL2   0.090000        1.0080           0
     675 MEMB 6    CHL1 H22B HAL2   0.090000        1.0080           0
     676 MEMB 6    CHL1 C23  CTL2  -0.180000       12.0110           0
     677 MEMB 6    CHL1 H23A HAL2   0.090000        1.0080           0
     678 MEMB 6    CHL1 H23B HAL2   0.090000        1.0080           0
     679 MEMB 6    CHL1 C24  CTL2  -0.180000       12.0110           0
     680 MEMB 6    CHL1 H24A HAL2   0.090000        1.0080           0
     681 MEMB 6    CHL1 H24B HAL2   0.090000        1.0080           0
     682 MEMB 6    CHL1 C25  CTL1  -0.090000       12.0110           0
     683 MEMB 6    CHL1 H25  HAL1   0.090000        1.0080           0
     684 MEMB 6    CHL1 C26  CTL3  -0.270000       12.0110           0
     685 MEMB 6    CHL1 H26A HAL3   0.090000        1.0080           0
     686 MEMB 6    CHL1 H26B HAL3   0.090000        1.0080           0
     687 MEMB 6    CHL1 H26C HAL3   0.090000        1.0080           0
     688 MEMB 6    CHL1 C27  CTL3  -0.270000       12.0110           0
     689 MEMB 6    CHL1 H27A HAL3   0.090000        1.0080           0
     690 MEMB 6    CHL1 H27B HAL3   0.090000        1.0080           0
     691 MEMB 6    CHL1 H27C HAL3   0.090000        1.0080           0
     692 MEMB 7    CHL1 C3   CRL1   0.140000       12.0110           0
     693 MEMB 7    CHL1 H3   HGA1   0.090000        1.0080           0
     694 MEMB 7    CHL1 O3   OHL   -0.660000       15.9994           0
     695 MEMB 7    CHL1 H3'  HOL    0.430000        1.0080           0
     696 MEMB 7    CHL1 C4   CRL2  -0.180000       12.0110           0
     697 MEMB 7    CHL1 H4A  HGA2   0.090000        1.0080           0
     698 MEMB 7    CHL1 H4B  HGA2   0.090000        1.0080           0
     699 MEMB 7    CHL1 C5   CEL1   0.000000       12.0110           0
     700 MEMB 7    CHL1 C6   CEL1  -0.150000       12.0110           0
     701 MEMB 7    CHL1 H6   HEL1   0.150000        1.0080           0
     702 MEMB 7    CHL1 C7   CRL2  -0.180000       12.0110           0
     703 MEMB 7    CHL1 H7A  HGA2   0.090000        1.0080           0
     704 MEMB 7    CHL1 H7B  HGA2   0.090000        1.0080           0
     705 MEMB 7    CHL1 C8   CRL1  -0.090000       12.0110           0
     706 MEMB 7    CHL1 H8   HGA1   0.090000        1.0080           0
     707 MEMB 7    CHL1 C14  CRL1  -0.090000       12.0110           0
     708 MEMB 7    CHL1 H14  HGA1   0.090000        1.0080           0
     709 MEMB 7    CHL1 C15  CRL2  -0.180000       12.0110           0
     710 MEMB 7    CHL1 H15A HGA2   0.090000        1.0080           0
     711 MEMB 7    CHL1 H15B HGA2   0.090000        1.0080           0
     712 MEMB 7    CHL1 C16  CRL2  -0.180000       12.0110           0
     713 MEMB 7    CHL1 H16A HGA2   0.090000        1.0080           0
     714 MEMB 7    CHL1 H16B HGA2   0.090000        1.0080           0
     715 MEMB 7    CHL1 C17  CRL1  -0.090000       12.0110           0
     716 MEMB 7    CHL1 H17  HGA1   0.090000        1.0080           0
     717 MEMB 7    CHL1 C13  CRL1   0.000000       12.0110           0
     718 MEMB 7    CHL1 C18  CTL3  -0.270000       12.0110           0
     719 MEMB 7    CHL1 H18A HAL3   0.090000        1.0080           0
     720 MEMB 7    CHL1 H18B HAL3   0.090000        1.0080           0
     721 MEMB 7    CHL1 H18C HAL3   0.090000        1.0080           0
     722 MEMB 7    CHL1 C12  CRL2  -0.180000       12.0110           0
     723 MEMB 7    CHL1 H12A HGA2   0.090000        1.0080           0
     724 MEMB 7    CHL1 H12B HGA2   0.090000        1.0080           0
     725 MEMB 7    CHL1 C11  CRL2  -0.180000       12.0110           0
     726 MEMB 7    CHL1 H11A HGA2   0.090000        1.0080           0
     727 MEMB 7    CHL1 H11B HGA2   0.090000        1.0080           0
     728 MEMB 7    CHL1 C9   CRL1  -0.090000       12.0110           0
     729 MEMB 7    CHL1 H9   HGA1   0.090000        1.0080           0
     730 MEMB 7    CHL1 C10  CRL1   0.000000       12.0110           0
     731 MEMB 7    CHL1 C19  CTL3  -0.270000       12.0110           0
     732 MEMB 7    CHL1 H19A HAL3   0.090000        1.0080           0
     733 MEMB 7    CHL1 H19B HAL3   0.090000        1.0080           0
     734 MEMB 7    CHL1 H19C HAL3   0.090000        1.0080           0
     735 MEMB 7    CHL1 C1   CRL2  -0.180000       12.0110           0
     736 MEMB 7    CHL1 H1A  HGA2   0.090000        1.0080           0
     737 MEMB 7    CHL1 H1B  HGA2   0.090000        1.0080           0
     738 MEMB 7    CHL1 C2   CRL2  -0.180000       12.0110           0
     739 MEMB 7    CHL1 H2A  HGA2   0.090000        1.0080           0
     740 MEMB 7    CHL1 H2B  HGA2   0.090000        1.0080           0
     741 MEMB 7    CHL1 C20  CTL1  -0.090000       12.0110           0
     742 MEMB 7    CHL1 H20  HAL1   0.090000        1.0080           0
     743 MEMB 7    CHL1 C21  CTL3  -0.270000       12.0110           0
     744 MEMB 7    CHL1 H21A HAL3   0.090000        1.0080           0
     745 MEMB 7    CHL1 H21B HAL3   0.090000        1.0080           0
     746 MEMB 7    CHL1 H21C HAL3   0.090000        1.0080           0
     747 MEMB 7    CHL1 C22  CTL2  -0.180000       12.0110           0
     748 MEMB 7    CHL1 H22A HAL2   0.090000        1.0080           0
     749 MEMB 7    CHL1 H22B HAL2   0.090000        1.0080           0
     750 MEMB 7    CHL1 C23  CTL2  -0.180000       12.0110           0
     751 MEMB 7    CHL1 H23A HAL2   0.090000        1.0080           0
     752 MEMB 7    CHL1 H23B HAL2   0.090000        1.0080           0
     753 MEMB 7    CHL1 C24  CTL2  -0.180000       12.0110           0
     754 MEMB 7    CHL1 H24A HAL2   0.090000        1.0080           0
     755 MEMB 7    CHL1 H24B HAL2   0.090000        1.0080           0
     756 MEMB 7    CHL1 C25  CTL1  -0.090000       12.0110           0
     757 MEMB 7    CHL1 H25  HAL1   0.090000        1.0080           0
     758 MEMB 7    CHL1 C26  CTL3  -0.270000       12.0110           0
     759 MEMB 7    CHL1 H26A HAL3   0.090000        1.0080           0
     760 MEMB 7    CHL1 H26B HAL3   0.090000        1.0080           0
     761 MEMB 7    CHL1 H26C HAL3   0.090000        1.0080           0
     762 MEMB 7    CHL1 C27  CTL3  -0.270000       12.0110           0
     763 MEMB 7    CHL1 H27A HAL3   0.090000        1.0080           0
     764 MEMB 7    CHL1 H27B HAL3   0.090000        1.0080           0
     765 MEMB 7    CHL1 H27C HAL3   0.090000        1.0080           0
     766 MEMB 8    CHL1 C3   CRL1   0.140000       12.0110           0
     767 MEMB 8    CHL1 H3   HGA1   0.090000        1.0080           0
     768 MEMB 8    CHL1 O3   OHL   -0.660000       15.9994           0
     769 MEMB 8    CHL1 H3'  HOL    0.430000        1.0080           0
     770 MEMB 8    CHL1 C4   CRL2  -0.180000       12.0110           0
     771 MEMB 8    CHL1 H4A  HGA2   0.090000        1.0080           0
     772 MEMB 8    CHL1 H4B  HGA2   0.090000        1.0080           0
     773 MEMB 8    CHL1 C5   CEL1   0.000000       12.0110           0
     774 MEMB 8    CHL1 C6   CEL1  -0.150000       12.0110           0
     775 MEMB 8    CHL1 H6   HEL1   0.150000        1.0080           0
     776 MEMB 8    CHL1 C7   CRL2  -0.180000       12.0110           0
     777 MEMB 8    CHL1 H7A  HGA2   0.090000        1.0080           0
     778 MEMB 8    CHL1 H7B  HGA2   0.090000        1.0080           0
     779 MEMB 8    CHL1 C8   CRL1  -0.090000       12.0110           0
     780 MEMB 8    CHL1 H8   HGA1   0.090000        1.0080           0
     781 MEMB 8    CHL1 C14  CRL1  -0.090000       12.0110           0
     782 MEMB 8    CHL1 H14  HGA1   0.090000        1.0080           0
     783 MEMB 8    CHL1 C15  CRL2  -0.180000       12.0110           0
     784 MEMB 8    CHL1 H15A HGA2   0.090000        1.0080           0
     785 MEMB 8    CHL1 H15B HGA2   0.090000        1.0080           0
     786 MEMB 8    CHL1 C16  CRL2  -0.180000       12.0110           0
     787 MEMB 8    CHL1 H16A HGA2   0.090000        1.0080           0
     788 MEMB 8    CHL1 H16B HGA2   0.090000        1.0080           0
     789 MEMB 8    CHL1 C17  CRL1  -0.090000       12.0110           0
     790 MEMB 8    CHL1 H17  HGA1   0.090000        1.0080           0
     791 MEMB 8    CHL1 C13  CRL1   0.000000       12.0110           0
     792 MEMB 8    CHL1 C18  CTL3  -0.270000       12.0110           0
     793 MEMB 8    CHL1 H18A HAL3   0.090000        1.0080           0
     794 MEMB 8    CHL1 H18B HAL3   0.090000        1.0080           0
     795 MEMB 8    CHL1 H18C HAL3   0.090000        1.0080           0
     796 MEMB 8    CHL1 C12  CRL2  -0.180000       12.0110           0
     797 MEMB 8    CHL1 H12A HGA2   0.090000        1.0080           0
     798 MEMB 8    CHL1 H12B HGA2   0.090000        1.0080           0
     799 MEMB 8    CHL1 C11  CRL2  -0.180000       12.0110           0
     800 MEMB 8    CHL1 H11A HGA2   0.090000        1.0080           0
     801 MEMB 8    CHL1 H11B HGA2   0.090000        1.0080           0
     802 MEMB 8    CHL1 C9   CRL1  -0.090000       12.0110           0
     803 MEMB 8    CHL1 H9   HGA1   0.090000        1.0080           0
     804 MEMB 8    CHL1 C10  CRL1   0.000000       12.0110           0
     805 MEMB 8    CHL1 C19  CTL3  -0.270000       12.0110           0
     806 MEMB 8    CHL1 H19A HAL3   0.090000        1.0080           0
     807 MEMB 8    CHL1 H19B HAL3   0.090000        1.0080           0
     808 MEMB 8    CHL1 H19C HAL3   0.090000        1.0080           0
     809 MEMB 8    CHL1 C1   CRL2  -0.180000       12.0110           0
     810 MEMB 8    CHL1 H1A  HGA2   0.090000        1.0080           0
     811 MEMB 8    CHL1 H1B  HGA2   0.090000        1.0080           0
     812 MEMB 8    CHL1 C2   CRL2  -0.180000       12.0110           0
     813 MEMB 8    CHL1 H2A  HGA2   0.090000        1.0080           0
     814 MEMB 8    CHL1 H2B  HGA2   0.090000        1.0080           0
     815 MEMB 8    CHL1 C20  CTL1  -0.090000       12.0110           0
     816 MEMB 8    CHL1 H20  HAL1   0.090000        1.0080           0
     817 MEMB 8    CHL1 C21  CTL3  -0.270000       12.0110           0
     818 MEMB 8    CHL1 H21A HAL3   0.090000        1.0080           0
     819 MEMB 8    CHL1 H21B HAL3   0.090000        1.0080           0
     820 MEMB 8    CHL1 H21C HAL3   0.090000        1.0080           0
     821 MEMB 8    CHL1 C22  CTL2  -0.180000       12.0110           0
     822 MEMB 8    CHL1 H22A HAL2   0.090000        1.0080           0
     823 MEMB 8    CHL1 H22B HAL2   0.090000        1.0080           0
     824 MEMB 8    CHL1 C23  CTL2  -0.180000       12.0110           0
     825 MEMB 8    CHL1 H23A HAL2   0.090000        1.0080           0
     826 MEMB 8    CHL1 H23B HAL2   0.090000        1.0080           0
     827 MEMB 8    CHL1 C24  CTL2  -0.180000       12.0110           0
     828 MEMB 8    CHL1 H24A HAL2   0.090000        1.0080           0
     829 MEMB 8    CHL1 H24B HAL2   0.090000        1.0080           0
     830 MEMB 8    CHL1 C25  CTL1  -0.090000       12.0110           0
     831 MEMB 8    CHL1 H25  HAL1   0.090000        1.0080           0
     832 MEMB 8    CHL1 C26  CTL3  -0.270000       12.0110           0
     833 MEMB 8    CHL1 H26A HAL3   0.090000        1.0080           0
     834 MEMB 8    CHL1 H26B HAL3   0.090000        1.0080           0
     835 MEMB 8    CHL1 H26C HAL3   0.090000        1.0080           0
     836 MEMB 8    CHL1 C27  CTL3  -0.270000       12.0110           0
     837 MEMB 8    CHL1 H27A HAL3   0.090000        1.0080           0
     838 MEMB 8    CHL1 H27B HAL3   0.090000        1.0080           0
     839 MEMB 8    CHL1 H27C HAL3   0.090000        1.0080           0
     840 MEMB 9    CHL1 C3   CRL1   0.140000       12.0110           0
     841 MEMB 9    CHL1 H3   HGA1   0.090000        1.0080           0
     842 MEMB 9    CHL1 O3   OHL   -0.660000       15.9994           0
     843 MEMB 9    CHL1 H3'  HOL    0.430000        1.0080           0
     844 MEMB 9    CHL1 C4   CRL2  -0.180000       12.0110           0
     845 MEMB 9    CHL1 H4A  HGA2   0.090000        1.0080           0
     846 MEMB 9    CHL1 H4B  HGA2   0.090000        1.0080           0
     847 MEMB 9    CHL1 C5   CEL1   0.000000       12.0110           0
     848 MEMB 9    CHL1 C6   CEL1  -0.150000       12.0110           0
     849 MEMB 9    CHL1 H6   HEL1   0.150000        1.0080           0
     850 MEMB 9    CHL1 C7   CRL2  -0.180000       12.0110           0
     851 MEMB 9    CHL1 H7A  HGA2   0.090000        1.0080           0
     852 MEMB 9    CHL1 H7B  HGA2   0.090000        1.0080           0
     853 MEMB 9    CHL1 C8   CRL1  -0.090000       12.0110           0
     854 MEMB 9    CHL1 H8   HGA1   0.090000        1.0080           0
     855 MEMB 9    CHL1 C14  CRL1  -0.090000       12.0110           0
     856 MEMB 9    CHL1 H14  HGA1   0.090000        1.0080           0
     857 MEMB 9    CHL1 C15  CRL2  -0.180000       12.0110           0
     858 MEMB 9    CHL1 H15A HGA2   0.090000        1.0080           0
     859 MEMB 9    CHL1 H15B HGA2   0.090000        1.0080           0
     860 MEMB 9    CHL1 C16  CRL2  -0.180000       12.0110           0
     861 MEMB 9    CHL1 H16A HGA2   0.090000        1.0080           0
     862 MEMB 9    CHL1 H16B HGA2   0.090000        1.0080           0
     863 MEMB 9    CHL1 C17  CRL1  -0.090000       12.0110           0
     864 MEMB 9    CHL1 H17  HGA1   0.090000        1.0080           0
     865 MEMB 9    CHL1 C13  CRL1   0.000000       12.0110           0
     866 MEMB 9    CHL1 C18  CTL3  -0.270000       12.0110           0
     867 MEMB 9    CHL1 H18A HAL3   0.090000        1.0080           0
     868 MEMB 9    CHL1 H18B HAL3   0.090000        1.0080           0
     869 MEMB 9    CHL1 H18C HAL3   0.090000        1.0080           0
     870 MEMB 9    CHL1 C12  CRL2  -0.180000       12.0110           0
     871 MEMB 9    CHL1 H12A HGA2   0.090000        1.0080           0
     872 MEMB 9    CHL1 H12B HGA2   0.090000        1.0080           0
     873 MEMB 9    CHL1 C11  CRL2  -0.180000       12.0110           0
     874 MEMB 9    CHL1 H11A HGA2   0.090000        1.0080           0
     875 MEMB 9    CHL1 H11B HGA2   0.090000        1.0080           0
     876 MEMB 9    CHL1 C9   CRL1  -0.090000       12.0110           0
     877 MEMB 9    CHL1 H9   HGA1   0.090000        1.0080           0
     878 MEMB 9    CHL1 C10  CRL1   0.000000       12.0110           0
     879 MEMB 9    CHL1 C19  CTL3  -0.270000       12.0110           0
     880 MEMB 9    CHL1 H19A HAL3   0.090000        1.0080           0
     881 MEMB 9    CHL1 H19B HAL3   0.090000        1.0080           0
     882 MEMB 9    CHL1 H19C HAL3   0.090000        1.0080           0
     883 MEMB 9    CHL1 C1   CRL2  -0.180000       12.0110           0
     884 MEMB 9    CHL1 H1A  HGA2   0.090000        1.0080           0
     885 MEMB 9    CHL1 H1B  HGA2   0.090000        1.0080           0
     886 MEMB 9    CHL1 C2   CRL2  -0.180000       12.0110           0
     887 MEMB 9    CHL1 H2A  HGA2   0.090000        1.0080           0
     888 MEMB 9    CHL1 H2B  HGA2   0.090000        1.0080           0
     889 MEMB 9    CHL1 C20  CTL1  -0.090000       12.0110           0
     890 MEMB 9    CHL1 H20  HAL1   0.090000        1.0080           0
     891 MEMB 9    CHL1 C21  CTL3  -0.270000       12.0110           0
     892 MEMB 9    CHL1 H21A HAL3   0.090000        1.0080           0
     893 MEMB 9    CHL1 H21B HAL3   0.090000        1.0080           0
     894 MEMB 9    CHL1 H21C HAL3   0.090000        1.0080           0
     895 MEMB 9    CHL1 C22  CTL2  -0.180000       12.0110           0
     896 MEMB 9    CHL1 H22A HAL2   0.090000        1.0080           0
     897 MEMB 9    CHL1 H22B HAL2   0.090000        1.0080           0
     898 MEMB 9    CHL1 C23  CTL2  -0.180000       12.0110           0
     899 MEMB 9    CHL1 H23A HAL2   0.090000        1.0080           0
     900 MEMB 9    CHL1 H23B HAL2   0.090000        1.0080           0
     901 MEMB 9    CHL1 C24  CTL2  -0.180000       12.0110           0
     902 MEMB 9    CHL1 H24A HAL2   0.090000        1.0080           0
     903 MEMB 9    CHL1 H24B HAL2   0.090000        1.0080           0
     904 MEMB 9    CHL1 C25  CTL1  -0.090000       12.0110           0
     905 MEMB 9    CHL1 H25  HAL1   0.090000        1.0080           0
     906 MEMB 9    CHL1 C26  CTL3  -0.270000       12.0110           0
     907 MEMB 9    CHL1 H26A HAL3   0.090000        1.0080           0
     908 MEMB 9    CHL1 H26B HAL3   0.090000        1.0080           0
     909 MEMB 9    CHL1 H26C HAL3   0.090000        1.0080           0
     910 MEMB 9    CHL1 C27  CTL3  -0.270000       12.0110           0
     911 MEMB 9    CHL1 H27A HAL3   0.090000        1.0080           0
     912 MEMB 9    CHL1 H27B HAL3   0.090000        1.0080           0
     913 MEMB 9    CHL1 H27C HAL3   0.090000        1.0080           0
     914 MEMB 10   CHL1 C3   CRL1   0.140000       12.0110           0
     915 MEMB 10   CHL1 H3   HGA1   0.090000        1.0080           0
     916 MEMB 10   CHL1 O3   OHL   -0.660000       15.9994           0
     917 MEMB 10   CHL1 H3'  HOL    0.430000        1.0080           0
     918 MEMB 10   CHL1 C4   CRL2  -0.180000       12.0110           0
     919 MEMB 10   CHL1 H4A  HGA2   0.090000        1.0080           0
     920 MEMB 10   CHL1 H4B  HGA2   0.090000        1.0080           0
     921 MEMB 10   CHL1 C5   CEL1   0.000000       12.0110           0
     922 MEMB 10   CHL1 C6   CEL1  -0.150000       12.0110           0
     923 MEMB 10   CHL1 H6   HEL1   0.150000        1.0080           0
     924 MEMB 10   CHL1 C7   CRL2  -0.180000       12.0110           0
     925 MEMB 10   CHL1 H7A  HGA2   0.090000        1.0080           0
     926 MEMB 10   CHL1 H7B  HGA2   0.090000        1.0080           0
     927 MEMB 10   CHL1 C8   CRL1  -0.090000       12.0110           0
     928 MEMB 10   CHL1 H8   HGA1   0.090000        1.0080           0
     929 MEMB 10   CHL1 C14  CRL1  -0.090000       12.0110           0
     930 MEMB 10   CHL1 H14  HGA1   0.090000        1.0080           0
     931 MEMB 10   CHL1 C15  CRL2  -0.180000       12.0110           0
     932 MEMB 10   CHL1 H15A HGA2   0.090000        1.0080           0
     933 MEMB 10   CHL1 H15B HGA2   0.090000        1.0080           0
     934 MEMB 10   CHL1 C16  CRL2  -0.180000       12.0110           0
     935 MEMB 10   CHL1 H16A HGA2   0.090000        1.0080           0
     936 MEMB 10   CHL1 H16B HGA2   0.090000        1.0080           0
     937 MEMB 10   CHL1 C17  CRL1  -0.090000       12.0110           0
     938 MEMB 10   CHL1 H17  HGA1   0.090000        1.0080           0
     939 MEMB 10   CHL1 C13  CRL1   0.000000       12.0110           0
     940 MEMB 10   CHL1 C18  CTL3  -0.270000       12.0110           0
     941 MEMB 10   CHL1 H18A HAL3   0.090000        1.0080           0
     942 MEMB 10   CHL1 H18B HAL3   0.090000        1.0080           0
     943 MEMB 10   CHL1 H18C HAL3   0.090000        1.0080           0
     944 MEMB 10   CHL1 C12  CRL2  -0.180000       12.0110           0
     945 MEMB 10   CHL1 H12A HGA2   0.090000        1.0080           0
     946 MEMB 10   CHL1 H12B HGA2   0.090000        1.0080           0
     947 MEMB 10   CHL1 C11  CRL2  -0.180000       12.0110           0
     948 MEMB 10   CHL1 H11A HGA2   0.090000        1.0080           0
     949 MEMB 10   CHL1 H11B HGA2   0.090000        1.0080           0
     950 MEMB 10   CHL1 C9   CRL1  -0.090000       12.0110           0
     951 MEMB 10   CHL1 H9   HGA1   0.090000        1.0080           0
     952 MEMB 10   CHL1 C10  CRL1   0.000000       12.0110           0
     953 MEMB 10   CHL1 C19  CTL3  -0.270000       12.0110           0
     954 MEMB 10   CHL1 H19A HAL3   0.090000        1.0080           0
     955 MEMB 10   CHL1 H19B HAL3   0.090000        1.0080           0
     956 MEMB 10   CHL1 H19C HAL3   0.090000        1.0080           0
     957 MEMB 10   CHL1 C1   CRL2  -0.180000       12.0110           0
     958 MEMB 10   CHL1 H1A  HGA2   0.090000        1.0080           0
     959 MEMB 10   CHL1 H1B  HGA2   0.090000        1.0080           0
     960 MEMB 10   CHL1 C2   CRL2  -0.180000       12.0110           0
     961 MEMB 10   CHL1 H2A  HGA2   0.090000        1.0080           0
     962 MEMB 10   CHL1 H2B  HGA2   0.090000        1.0080           0
     963 MEMB 10   CHL1 C20  CTL1  -0.090000       12.0110           0
     964 MEMB 10   CHL1 H20  HAL1   0.090000        1.0080           0
     965 MEMB 10   CHL1 C21  CTL3  -0.270000       12.0110           0
     966 MEMB 10   CHL1 H21A HAL3   0.090000        1.0080           0
     967 MEMB 10   CHL1 H21B HAL3   0.090000        1.0080           0
     968 MEMB 10   CHL1 H21C HAL3   0.090000        1.0080           0
     969 MEMB 10   CHL1 C22  CTL2  -0.180000       12.0110           0
     970 MEMB 10   CHL1 H22A HAL2   0.090000        1.0080           0
     971 MEMB 10   CHL1 H22B HAL2   0.090000        1.0080           0
     972 MEMB 10   CHL1 C23  CTL2  -0.180000       12.0110           0
     973 MEMB 10   CHL1 H23A HAL2   0.090000        1.0080           0
     974 MEMB 10   CHL1 H23B HAL2   0.090000        1.0080           0
     975 MEMB 10   CHL1 C24  CTL2  -0.180000       12.0110           0
     976 MEMB 10   CHL1 H24A HAL2   0.090000        1.0080           0
     977 MEMB 10   CHL1 H24B HAL2   0.090000        1.0080           0
     978 MEMB 10   CHL1 C25  CTL1  -0.090000       12.0110           0
     979 MEMB 10   CHL1 H25  HAL1   0.090000        1.0080           0
     980 MEMB 10   CHL1 C26  CTL3  -0.270000       12.0110           0
     981 MEMB 10   CHL1 H26A HAL3   0.090000        1.0080           0
     982 MEMB 10   CHL1 H26B HAL3   0.090000        1.0080           0
     983 MEMB 10   CHL1 H26C HAL3   0.090000        1.0080           0
     984 MEMB 10   CHL1 C27  CTL3  -0.270000       12.0110           0
     985 MEMB 10   CHL1 H27A HAL3   0.090000        1.0080           0
     986 MEMB 10   CHL1 H27B HAL3   0.090000        1.0080           0
     987 MEMB 10   CHL1 H27C HAL3   0.090000        1.0080           0
     988 MEMB 11   CHL1 C3   CRL1   0.140000       12.0110           0
     989 MEMB 11   CHL1 H3   HGA1   0.090000        1.0080           0
     990 MEMB 11   CHL1 O3   OHL   -0.660000       15.9994           0
     991 MEMB 11   CHL1 H3'  HOL    0.430000        1.0080           0
     992 MEMB 11   CHL1 C4   CRL2  -0.180000       12.0110           0
     993 MEMB 11   CHL1 H4A  HGA2   0.090000        1.0080           0
     994 MEMB 11   CHL1 H4B  HGA2   0.090000        1.0080           0
     995 MEMB 11   CHL1 C5   CEL1   0.000000       12.0110           0
     996 MEMB 11   CHL1 C6   CEL1  -0.150000       12.0110           0
     997 MEMB 11   CHL1 H6   HEL1   0.150000        1.0080           0
     998 MEMB 11   CHL1 C7   CRL2  -0.180000       12.0110           0
     999 MEMB 11   CHL1 H7A  HGA2   0.090000        1.0080           0
    1000 MEMB 11   CHL1 H7B  HGA2   0.090000        1.0080           0
    1001 MEMB 11   CHL1 C8   CRL1  -0.090000       12.0110           0
    1002 MEMB 11   CHL1 H8   HGA1   0.090000        1.0080           0
    1003 MEMB 11   CHL1 C14  CRL1  -0.090000       12.0110           0
    1004 MEMB 11   CHL1 H14  HGA1   0.090000        1.0080           0
    1005 MEMB 11   CHL1 C15  CRL2  -0.180000       12.0110           0
    1006 MEMB 11   CHL1 H15A HGA2   0.090000        1.0080           0
    1007 MEMB 11   CHL1 H15B HGA2   0.090000        1.0080           0
    1008 MEMB 11   CHL1 C16  CRL2  -0.180000       12.0110           0
    1009 MEMB 11   CHL1 H16A HGA2   0.090000        1.0080           0
    1010 MEMB 11   CHL1 H16B HGA2   0.090000        1.0080           0
    1011 MEMB 11   CHL1 C17  CRL1  -0.090000       12.0110           0
    1012 MEMB 11   CHL1 H17  HGA1   0.090000        1.0080           0
    1013 MEMB 11   CHL1 C13  CRL1   0.000000       12.0110           0
    1014 MEMB 11   CHL1 C18  CTL3  -0.270000       12.0110           0
    1015 MEMB 11   CHL1 H18A HAL3   0.090000        1.0080           0
    1016 MEMB 11   CHL1 H18B HAL3   0.090000        1.0080           0
    1017 MEMB 11   CHL1 H18C HAL3   0.090000        1.0080           0
    1018 MEMB 11   CHL1 C12  CRL2  -0.180000       12.0110           0
    1019 MEMB 11   CHL1 H12A HGA2   0.090000        1.0080           0
    1020 MEMB 11   CHL1 H12B HGA2   0.090000        1.0080           0
    1021 MEMB 11   CHL1 C11  CRL2  -0.180000       12.0110           0
    1022 MEMB 11   CHL1 H11A HGA2   0.090000        1.0080           0
    1023 MEMB 11   CHL1 H11B HGA2   0.090000        1.0080           0
    1024 MEMB 11   CHL1 C9   CRL1  -0.090000       12.0110           0
    1025 MEMB 11   CHL1 H9   HGA1   0.090000        1.0080           0
    1026 MEMB 11   CHL1 C10  CRL1   0.000000       12.0110           0
    1027 MEMB 11   CHL1 C19  CTL3  -0.270000       12.0110           0
    1028 MEMB 11   CHL1 H19A HAL3   0.090000        1.0080           0
    1029 MEMB 11   CHL1 H19B HAL3   0.090000        1.0080           0
    1030 MEMB 11   CHL1 H19C HAL3   0.090000        1.0080           0
    1031 MEMB 11   CHL1 C1   CRL2  -0.180000       12.0110           0
    1032 MEMB 11   CHL1 H1A  HGA2   0.090000        1.0080           0
    1033 MEMB 11   CHL1 H1B  HGA2   0.090000        1.0080           0
    1034 MEMB 11   CHL1 C2   CRL2  -0.180000       12.0110           0
    1035 MEMB 11   CHL1 H2A  HGA2   0.090000        1.0080           0
    1036 MEMB 11   CHL1 H2B  HGA2   0.090000        1.0080           0
    1037 MEMB 11   CHL1 C20  CTL1  -0.090000       12.0110           0
    1038 MEMB 11   CHL1 H20  HAL1   0.090000        1.0080           0
    1039 MEMB 11   CHL1 C21  CTL3  -0.270000       12.0110           0
    1040 MEMB 11   CHL1 H21A HAL3   0.090000        1.0080           0
    1041 MEMB 11   CHL1 H21B HAL3   0.090000        1.0080           0
    1042 MEMB 11   CHL1 H21C HAL3   0.090000        1.0080           0
    1043 MEMB 11   CHL1 C22  CTL2  -0.180000       12.0110           0
    1044 MEMB 11   CHL1 H22A HAL2   0.090000        1.0080           0
    1045 MEMB 11   CHL1 H22B HAL2   0.090000        1.0080           0
    1046 MEMB 11   CHL1 C23  CTL2  -0.180000       12.0110           0
    1047 MEMB 11   CHL1 H23A HAL2   0.090000        1.0080           0
    1048 MEMB 11   CHL1 H23B HAL2   0.090000        1.0080           0
    1049 MEMB 11   CHL1 C24  CTL2  -0.180000       12.0110           0
    1050 MEMB 11   CHL1 H24A HAL2   0.090000        1.0080           0
    1051 MEMB 11   CHL1 H24B HAL2   0.090000        1.0080           0
    1052 MEMB 11   CHL1 C25  CTL1  -0.090000       12.0110           0
    1053 MEMB 11   CHL1 H25  HAL1   0.090000        1.0080           0
    1054 MEMB 11   CHL1 C26  CTL3  -0.270000       12.0110           0
    1055 MEMB 11   CHL1 H26A HAL3   0.090000        1.0080           0
    1056 MEMB 11   CHL1 H26B HAL3   0.090000        1.0080           0
    1057 MEMB 11   CHL1 H26C HAL3   0.090000        1.0080           0
    1058 MEMB 11   CHL1 C27  CTL3  -0.270000       12.0110           0
    1059 MEMB 11   CHL1 H27A HAL3   0.090000        1.0080           0
    1060 MEMB 11   CHL1 H27B HAL3   0.090000        1.0080           0
    1061 MEMB 11   CHL1 H27C HAL3   0.090000        1.0080           0
    1062 MEMB 12   CHL1 C3   CRL1   0.140000       12.0110           0
    1063 MEMB 12   CHL1 H3   HGA1   0.090000        1.0080           0
    1064 MEMB 12   CHL1 O3   OHL   -0.660000       15.9994           0
    1065 MEMB 12   CHL1 H3'  HOL    0.430000        1.0080           0
    1066 MEMB 12   CHL1 C4   CRL2  -0.180000       12.0110           0
    1067 MEMB 12   CHL1 H4A  HGA2   0.090000        1.0080           0
    1068 MEMB 12   CHL1 H4B  HGA2   0.090000        1.0080           0
    1069 MEMB 12   CHL1 C5   CEL1   0.000000       12.0110           0
    1070 MEMB 12   CHL1 C6   CEL1  -0.150000       12.0110           0
    1071 MEMB 12   CHL1 H6   HEL1   0.150000        1.0080           0
    1072 MEMB 12   CHL1 C7   CRL2  -0.180000       12.0110           0
    1073 MEMB 12   CHL1 H7A  HGA2   0.090000        1.0080           0
    1074 MEMB 12   CHL1 H7B  HGA2   0.090000        1.0080           0
    1075 MEMB 12   CHL1 C8   CRL1  -0.090000       12.0110           0
    1076 MEMB 12   CHL1 H8   HGA1   0.090000        1.0080           0
    1077 MEMB 12   CHL1 C14  CRL1  -0.090000       12.0110           0
    1078 MEMB 12   CHL1 H14  HGA1   0.090000        1.0080           0
    1079 MEMB 12   CHL1 C15  CRL2  -0.180000       12.0110           0
    1080 MEMB 12   CHL1 H15A HGA2   0.090000        1.0080           0
    1081 MEMB 12   CHL1 H15B HGA2   0.090000        1.0080           0
    1082 MEMB 12   CHL1 C16  CRL2  -0.180000       12.0110           0
    1083 MEMB 12   CHL1 H16A HGA2   0.090000        1.0080           0
    1084 MEMB 12   CHL1 H16B HGA2   0.090000        1.0080           0
    1085 MEMB 12   CHL1 C17  CRL1  -0.090000       12.0110           0
    1086 MEMB 12   CHL1 H17  HGA1   0.090000        1.0080           0
    1087 MEMB 12   CHL1 C13  CRL1   0.000000       12.0110           0
    1088 MEMB 12   CHL1 C18  CTL3  -0.270000       12.0110           0
    1089 MEMB 12   CHL1 H18A HAL3   0.090000        1.0080           0
    1090 MEMB 12   CHL1 H18B HAL3   0.090000        1.0080           0
    1091 MEMB 12   CHL1 H18C HAL3   0.090000        1.0080           0
    1092 MEMB 12   CHL1 C12  CRL2  -0.180000       12.0110           0
    1093 MEMB 12   CHL1 H12A HGA2   0.090000        1.0080           0
    1094 MEMB 12   CHL1 H12B HGA2   0.090000        1.0080           0
    1095 MEMB 12   CHL1 C11  CRL2  -0.180000       12.0110           0
    1096 MEMB 12   CHL1 H11A HGA2   0.090000        1.0080           0
    1097 MEMB 12   CHL1 H11B HGA2   0.090000        1.0080           0
    1098 MEMB 12   CHL1 C9   CRL1  -0.090000       12.0110           0
    1099 MEMB 12   CHL1 H9   HGA1   0.090000        1.0080           0
    1100 MEMB 12   CHL1 C10  CRL1   0.000000       12.0110           0
    1101 MEMB 12   CHL1 C19  CTL3  -0.270000       12.0110           0
    1102 MEMB 12   CHL1 H19A HAL3   0.090000        1.0080           0
    1103 MEMB 12   CHL1 H19B HAL3   0.090000        1.0080           0
    1104 MEMB 12   CHL1 H19C HAL3   0.090000        1.0080           0
    1105 MEMB 12   CHL1 C1   CRL2  -0.180000       12.0110           0
    1106 MEMB 12   CHL1 H1A  HGA2   0.090000        1.0080           0
    1107 MEMB 12   CHL1 H1B  HGA2   0.090000        1.0080           0
    1108 MEMB 12   CHL1 C2   CRL2  -0.180000       12.0110           0
    1109 MEMB 12   CHL1 H2A  HGA2   0.090000        1.0080           0
    1110 MEMB 12   CHL1 H2B  HGA2   0.090000        1.0080           0
    1111 MEMB 12   CHL1 C20  CTL1  -0.090000       12.0110           0
    1112 MEMB 12   CHL1 H20  HAL1   0.090000        1.0080           0
    1113 MEMB 12   CHL1 C21  CTL3  -0.270000       12.0110           0
    1114 MEMB 12   CHL1 H21A HAL3   0.090000        1.0080           0
    1115 MEMB 12   CHL1 H21B HAL3   0.090000        1.0080           0
    1116 MEMB 12   CHL1 H21C HAL3   0.090000        1.0080           0
    1117 MEMB 12   CHL1 C22  CTL2  -0.180000       12.0110           0
    1118 MEMB 12   CHL1 H22A HAL2   0.090000        1.0080           0
    1119 MEMB 12   CHL1 H22B HAL2   0.090000        1.0080           0
    1120 MEMB 12   CHL1 C23  CTL2  -0.180000       12.0110           0
    1121 MEMB 12   CHL1 H23A HAL2   0.090000        1.0080           0
    1122 MEMB 12   CHL1 H23B HAL2   0.090000        1.0080           0
    1123 MEMB 12   CHL1 C24  CTL2  -0.180000       12.0110           0
    1124 MEMB 12   CHL1 H24A HAL2   0.090000        1.0080           0
    1125 MEMB 12   CHL1 H24B HAL2   0.090000        1.0080           0
    1126 MEMB 12   CHL1 C25  CTL1  -0.090000       12.0110           0
    1127 MEMB 12   CHL1 H25  HAL1   0.090000        1.0080           0
    1128 MEMB 12   CHL1 C26  CTL3  -0.270000       12.0110           0
    1129 MEMB 12   CHL1 H26A HAL3   0.090000        1.0080           0
    1130 MEMB 12   CHL1 H26B HAL3   0.090000        1.0080           0
    1131 MEMB 12   CHL1 H26C HAL3   0.090000        1.0080           0
    1132 MEMB 12   CHL1 C27  CTL3  -0.270000       12.0110           0
    1133 MEMB 12   CHL1 H27A HAL3   0.090000        1.0080           0
    1134 MEMB 12   CHL1 H27B HAL3   0.090000        1.0080           0
    1135 MEMB 12   CHL1 H27C HAL3   0.090000        1.0080           0
    1136 MEMB 13   CHL1 C3   CRL1   0.140000       12.0110           0
    1137 MEMB 13   CHL1 H3   HGA1   0.090000        1.0080           0
    1138 MEMB 13   CHL1 O3   OHL   -0.660000       15.9994           0
    1139 MEMB 13   CHL1 H3'  HOL    0.430000        1.0080           0
    1140 MEMB 13   CHL1 C4   CRL2  -0.180000       12.0110           0
    1141 MEMB 13   CHL1 H4A  HGA2   0.090000        1.0080           0
    1142 MEMB 13   CHL1 H4B  HGA2   0.090000        1.0080           0
    1143 MEMB 13   CHL1 C5   CEL1   0.000000       12.0110           0
    1144 MEMB 13   CHL1 C6   CEL1  -0.150000       12.0110           0
    1145 MEMB 13   CHL1 H6   HEL1   0.150000        1.0080           0
    1146 MEMB 13   CHL1 C7   CRL2  -0.180000       12.0110           0
    1147 MEMB 13   CHL1 H7A  HGA2   0.090000        1.0080           0
    1148 MEMB 13   CHL1 H7B  HGA2   0.090000        1.0080           0
    1149 MEMB 13   CHL1 C8   CRL1  -0.090000       12.0110           0
    1150 MEMB 13   CHL1 H8   HGA1   0.090000        1.0080           0
    1151 MEMB 13   CHL1 C14  CRL1  -0.090000       12.0110           0
    1152 MEMB 13   CHL1 H14  HGA1   0.090000        1.0080           0
    1153 MEMB 13   CHL1 C15  CRL2  -0.180000       12.0110           0
    1154 MEMB 13   CHL1 H15A HGA2   0.090000        1.0080           0
    1155 MEMB 13   CHL1 H15B HGA2   0.090000        1.0080           0
    1156 MEMB 13   CHL1 C16  CRL2  -0.180000       12.0110           0
    1157 MEMB 13   CHL1 H16A HGA2   0.090000        1.0080           0
    1158 MEMB 13   CHL1 H16B HGA2   0.090000        1.0080           0
    1159 MEMB 13   CHL1 C17  CRL1  -0.090000       12.0110           0
    1160 MEMB 13   CHL1 H17  HGA1   0.090000        1.0080           0
    1161 MEMB 13   CHL1 C13  CRL1   0.000000       12.0110           0
    1162 MEMB 13   CHL1 C18  CTL3  -0.270000       12.0110           0
    1163 MEMB 13   CHL1 H18A HAL3   0.090000        1.0080           0
    1164 MEMB 13   CHL1 H18B HAL3   0.090000        1.0080           0
    1165 MEMB 13   CHL1 H18C HAL3   0.090000        1.0080           0
    1166 MEMB 13   CHL1 C12  CRL2  -0.180000       12.0110           0
    1167 MEMB 13   CHL1 H12A HGA2   0.090000        1.0080           0
    1168 MEMB 13   CHL1 H12B HGA2   0.090000        1.0080           0
    1169 MEMB 13   CHL1 C11  CRL2  -0.180000       12.0110           0
    1170 MEMB 13   CHL1 H11A HGA2   0.090000        1.0080           0
    1171 MEMB 13   CHL1 H11B HGA2   0.090000        1.0080           0
    1172 MEMB 13   CHL1 C9   CRL1  -0.090000       12.0110           0
    1173 MEMB 13   CHL1 H9   HGA1   0.090000        1.0080           0
    1174 MEMB 13   CHL1 C10  CRL1   0.000000       12.0110           0
    1175 MEMB 13   CHL1 C19  CTL3  -0.270000       12.0110           0
    1176 MEMB 13   CHL1 H19A HAL3   0.090000        1.0080           0
    1177 MEMB 13   CHL1 H19B HAL3   0.090000        1.0080           0
    1178 MEMB 13   CHL1 H19C HAL3   0.090000        1.0080           0
    1179 MEMB 13   CHL1 C1   CRL2  -0.180000       12.0110           0
    1180 MEMB 13   CHL1 H1A  HGA2   0.090000        1.0080           0
    1181 MEMB 13   CHL1 H1B  HGA2   0.090000        1.0080           0
    1182 MEMB 13   CHL1 C2   CRL2  -0.180000       12.0110           0
    1183 MEMB 13   CHL1 H2A  HGA2   0.090000        1.0080           0
    1184 MEMB 13   CHL1 H2B  HGA2   0.090000        1.0080           0
    1185 MEMB 13   CHL1 C20  CTL1  -0.090000       12.0110           0
    1186 MEMB 13   CHL1 H20  HAL1   0.090000        1.0080           0
    1187 MEMB 13   CHL1 C21  CTL3  -0.270000       12.0110           0
    1188 MEMB 13   CHL1 H21A HAL3   0.090000        1.0080           0
    1189 MEMB 13   CHL1 H21B HAL3   0.090000        1.0080           0
    1190 MEMB 13   CHL1 H21C HAL3   0.090000        1.0080           0
    1191 MEMB 13   CHL1 C22  CTL2  -0.180000       12.0110           0
    1192 MEMB 13   CHL1 H22A HAL2   0.090000        1.0080           0
    1193 MEMB 13   CHL1 H22B HAL2   0.090000        1.0080           0
    1194 MEMB 13   CHL1 C23  CTL2  -0.180000       12.0110           0
    1195 MEMB 13   CHL1 H23A HAL2   0.090000        1.0080           0
    1196 MEMB 13   CHL1 H23B HAL2   0.090000        1.0080           0
    1197 MEMB 13   CHL1 C24  CTL2  -0.180000       12.0110           0
    1198 MEMB 13   CHL1 H24A HAL2   0.090000        1.0080           0
    1199 MEMB 13   CHL1 H24B HAL2   0.090000        1.0080           0
    1200 MEMB 13   CHL1 C25  CTL1  -0.090000       12.0110           0
    1201 MEMB 13   CHL1 H25  HAL1   0.090000        1.0080           0
    1202 MEMB 13   CHL1 C26  CTL3  -0.270000       12.0110           0
    1203 MEMB 13   CHL1 H26A HAL3   0.090000        1.0080           0
    1204 MEMB 13   CHL1 H26B HAL3   0.090000        1.0080           0
    1205 MEMB 13   CHL1 H26C HAL3   0.090000        1.0080           0
    1206 MEMB 13   CHL1 C27  CTL3  -0.270000       12.0110           0
    1207 MEMB 13   CHL1 H27A HAL3   0.090000        1.0080           0
    1208 MEMB 13   CHL1 H27B HAL3   0.090000        1.0080           0
    1209 MEMB 13   CHL1 H27C HAL3   0.090000        1.0080           0
    1210 MEMB 14   CHL1 C3   CRL1   0.140000       12.0110           0
    1211 MEMB 14   CHL1 H3   HGA1   0.090000        1.0080           0
    1212 MEMB 14   CHL1 O3   OHL   -0.660000       15.9994           0
    1213 MEMB 14   CHL1 H3'  HOL    0.430000        1.0080           0
    1214 MEMB 14   CHL1 C4   CRL2  -0.180000       12.0110           0
    1215 MEMB 14   CHL1 H4A  HGA2   0.090000        1.0080           0
    1216 MEMB 14   CHL1 H4B  HGA2   0.090000        1.0080           0
    1217 MEMB 14   CHL1 C5   CEL1   0.000000       12.0110           0
    1218 MEMB 14   CHL1 C6   CEL1  -0.150000       12.0110           0
    1219 MEMB 14   CHL1 H6   HEL1   0.150000        1.0080           0
    1220 MEMB 14   CHL1 C7   CRL2  -0.180000       12.0110           0
    1221 MEMB 14   CHL1 H7A  HGA2   0.090000        1.0080           0
    1222 MEMB 14   CHL1 H7B  HGA2   0.090000        1.0080           0
    1223 MEMB 14   CHL1 C8   CRL1  -0.090000       12.0110           0
    1224 MEMB 14   CHL1 H8   HGA1   0.090000        1.0080           0
    1225 MEMB 14   CHL1 C14  CRL1  -0.090000       12.0110           0
    1226 MEMB 14   CHL1 H14  HGA1   0.090000        1.0080           0
    1227 MEMB 14   CHL1 C15  CRL2  -0.180000       12.0110           0
    1228 MEMB 14   CHL1 H15A HGA2   0.090000        1.0080           0
    1229 MEMB 14   CHL1 H15B HGA2   0.090000        1.0080           0
    1230 MEMB 14   CHL1 C16  CRL2  -0.180000       12.0110           0
    1231 MEMB 14   CHL1 H16A HGA2   0.090000        1.0080           0
    1232 MEMB 14   CHL1 H16B HGA2   0.090000        1.0080           0
    1233 MEMB 14   CHL1 C17  CRL1  -0.090000       12.0110           0
    1234 MEMB 14   CHL1 H17  HGA1   0.090000        1.0080           0
    1235 MEMB 14   CHL1 C13  CRL1   0.000000       12.0110           0
    1236 MEMB 14   CHL1 C18  CTL3  -0.270000       12.0110           0
    1237 MEMB 14   CHL1 H18A HAL3   0.090000        1.0080           0
    1238 MEMB 14   CHL1 H18B HAL3   0.090000        1.0080           0
    1239 MEMB 14   CHL1 H18C HAL3   0.090000        1.0080           0
    1240 MEMB 14   CHL1 C12  CRL2  -0.180000       12.0110           0
    1241 MEMB 14   CHL1 H12A HGA2   0.090000        1.0080           0
    1242 MEMB 14   CHL1 H12B HGA2   0.090000        1.0080           0
    1243 MEMB 14   CHL1 C11  CRL2  -0.180000       12.0110           0
    1244 MEMB 14   CHL1 H11A HGA2   0.090000        1.0080           0
    1245 MEMB 14   CHL1 H11B HGA2   0.090000        1.0080           0
    1246 MEMB 14   CHL1 C9   CRL1  -0.090000       12.0110           0
    1247 MEMB 14   CHL1 H9   HGA1   0.090000        1.0080           0
    1248 MEMB 14   CHL1 C10  CRL1   0.000000       12.0110           0
    1249 MEMB 14   CHL1 C19  CTL3  -0.270000       12.0110           0
    1250 MEMB 14   CHL1 H19A HAL3   0.090000        1.0080           0
    1251 MEMB 14   CHL1 H19B HAL3   0.090000        1.0080           0
    1252 MEMB 14   CHL1 H19C HAL3   0.090000        1.0080           0
    1253 MEMB 14   CHL1 C1   CRL2  -0.180000       12.0110           0
    1254 MEMB 14   CHL1 H1A  HGA2   0.090000        1.0080           0
    1255 MEMB 14   CHL1 H1B  HGA2   0.090000        1.0080           0
    1256 MEMB 14   CHL1 C2   CRL2  -0.180000       12.0110           0
    1257 MEMB 14   CHL1 H2A  HGA2   0.090000        1.0080           0
    1258 MEMB 14   CHL1 H2B  HGA2   0.090000        1.0080           0
    1259 MEMB 14   CHL1 C20  CTL1  -0.090000       12.0110           0
    1260 MEMB 14   CHL1 H20  HAL1   0.090000        1.0080           0
    1261 MEMB 14   CHL1 C21  CTL3  -0.270000       12.0110           0
    1262 MEMB 14   CHL1 H21A HAL3   0.090000        1.0080           0
    1263 MEMB 14   CHL1 H21B HAL3   0.090000        1.0080           0
    1264 MEMB 14   CHL1 H21C HAL3   0.090000        1.0080           0
    1265 MEMB 14   CHL1 C22  CTL2  -0.180000       12.0110           0
    1266 MEMB 14   CHL1 H22A HAL2   0.090000        1.0080           0
    1267 MEMB 14   CHL1 H22B HAL2   0.090000        1.0080           0
    1268 MEMB 14   CHL1 C23  CTL2  -0.180000       12.0110           0
    1269 MEMB 14   CHL1 H23A HAL2   0.090000        1.0080           0
    1270 MEMB 14   CHL1 H23B HAL2   0.090000        1.0080           0
    1271 MEMB 14   CHL1 C24  CTL2  -0.180000       12.0110           0
    1272 MEMB 14   CHL1 H24A HAL2   0.090000        1.0080           0
    1273 MEMB 14   CHL1 H24B HAL2   0.090000        1.0080           0
    1274 MEMB 14   CHL1 C25  CTL1  -0.090000       12.0110           0
    1275 MEMB 14   CHL1 H25  HAL1   0.090000        1.0080           0
    1276 MEMB 14   CHL1 C26  CTL3  -0.270000       12.0110           0
    1277 MEMB 14   CHL1 H26A HAL3   0.090000        1.0080           0
    1278 MEMB 14   CHL1 H26B HAL3   0.090000        1.0080           0
    1279 MEMB 14   CHL1 H26C HAL3   0.090000        1.0080           0
    1280 MEMB 14   CHL1 C27  CTL3  -0.270000       12.0110           0
    1281 MEMB 14   CHL1 H27A HAL3   0.090000        1.0080           0
    1282 MEMB 14   CHL1 H27B HAL3   0.090000        1.0080           0
    1283 MEMB 14   CHL1 H27C HAL3   0.090000        1.0080           0
    1284 MEMB 15   CHL1 C3   CRL1   0.140000       12.0110           0
    1285 MEMB 15   CHL1 H3   HGA1   0.090000        1.0080           0
    1286 MEMB 15   CHL1 O3   OHL   -0.660000       15.9994           0
    1287 MEMB 15   CHL1 H3'  HOL    0.430000        1.0080           0
    1288 MEMB 15   CHL1 C4   CRL2  -0.180000       12.0110           0
    1289 MEMB 15   CHL1 H4A  HGA2   0.090000        1.0080           0
    1290 MEMB 15   CHL1 H4B  HGA2   0.090000        1.0080           0
    1291 MEMB 15   CHL1 C5   CEL1   0.000000       12.0110           0
    1292 MEMB 15   CHL1 C6   CEL1  -0.150000       12.0110           0
    1293 MEMB 15   CHL1 H6   HEL1   0.150000        1.0080           0
    1294 MEMB 15   CHL1 C7   CRL2  -0.180000       12.0110           0
    1295 MEMB 15   CHL1 H7A  HGA2   0.090000        1.0080           0
    1296 MEMB 15   CHL1 H7B  HGA2   0.090000        1.0080           0
    1297 MEMB 15   CHL1 C8   CRL1  -0.090000       12.0110           0
    1298 MEMB 15   CHL1 H8   HGA1   0.090000        1.0080           0
    1299 MEMB 15   CHL1 C14  CRL1  -0.090000       12.0110           0
    1300 MEMB 15   CHL1 H14  HGA1   0.090000        1.0080           0
    1301 MEMB 15   CHL1 C15  CRL2  -0.180000       12.0110           0
    1302 MEMB 15   CHL1 H15A HGA2   0.090000        1.0080           0
    1303 MEMB 15   CHL1 H15B HGA2   0.090000        1.0080           0
    1304 MEMB 15   CHL1 C16  CRL2  -0.180000       12.0110           0
    1305 MEMB 15   CHL1 H16A HGA2   0.090000        1.0080           0
    1306 MEMB 15   CHL1 H16B HGA2   0.090000        1.0080           0
    1307 MEMB 15   CHL1 C17  CRL1  -0.090000       12.0110           0
    1308 MEMB 15   CHL1 H17  HGA1   0.090000        1.0080           0
    1309 MEMB 15   CHL1 C13  CRL1   0.000000       12.0110           0
    1310 MEMB 15   CHL1 C18  CTL3  -0.270000       12.0110           0
    1311 MEMB 15   CHL1 H18A HAL3   0.090000        1.0080           0
    1312 MEMB 15   CHL1 H18B HAL3   0.090000        1.0080           0
    1313 MEMB 15   CHL1 H18C HAL3   0.090000        1.0080           0
    1314 MEMB 15   CHL1 C12  CRL2  -0.180000       12.0110           0
    1315 MEMB 15   CHL1 H12A HGA2   0.090000        1.0080           0
    1316 MEMB 15   CHL1 H12B HGA2   0.090000        1.0080           0
    1317 MEMB 15   CHL1 C11  CRL2  -0.180000       12.0110           0
    1318 MEMB 15   CHL1 H11A HGA2   0.090000        1.0080           0
    1319 MEMB 15   CHL1 H11B HGA2   0.090000        1.0080           0
    1320 MEMB 15   CHL1 C9   CRL1  -0.090000       12.0110           0
    1321 MEMB 15   CHL1 H9   HGA1   0.090000        1.0080           0
    1322 MEMB 15   CHL1 C10  CRL1   0.000000       12.0110           0
    1323 MEMB 15   CHL1 C19  CTL3  -0.270000       12.0110           0
    1324 MEMB 15   CHL1 H19A HAL3   0.090000        1.0080           0
    1325 MEMB 15   CHL1 H19B HAL3   0.090000        1.0080           0
    1326 MEMB 15   CHL1 H19C HAL3   0.090000        1.0080           0
    1327 MEMB 15   CHL1 C1   CRL2  -0.180000       12.0110           0
    1328 MEMB 15   CHL1 H1A  HGA2   0.090000        1.0080           0
    1329 MEMB 15   CHL1 H1B  HGA2   0.090000        1.0080           0
    1330 MEMB 15   CHL1 C2   CRL2  -0.180000       12.0110           0
    1331 MEMB 15   CHL1 H2A  HGA2   0.090000        1.0080           0
    1332 MEMB 15   CHL1 H2B  HGA2   0.090000        1.0080           0
    1333 MEMB 15   CHL1 C20  CTL1  -0.090000       12.0110           0
    1334 MEMB 15   CHL1 H20  HAL1   0.090000        1.0080           0
    1335 MEMB 15   CHL1 C21  CTL3  -0.270000       12.0110           0
    1336 MEMB 15   CHL1 H21A HAL3   0.090000        1.0080           0
    1337 MEMB 15   CHL1 H21B HAL3   0.090000        1.0080           0
    1338 MEMB 15   CHL1 H21C HAL3   0.090000        1.0080           0
    1339 MEMB 15   CHL1 C22  CTL2  -0.180000       12.0110           0
    1340 MEMB 15   CHL1 H22A HAL2   0.090000        1.0080           0
    1341 MEMB 15   CHL1 H22B HAL2   0.090000        1.0080           0
    1342 MEMB 15   CHL1 C23  CTL2  -0.180000       12.0110           0
    1343 MEMB 15   CHL1 H23A HAL2   0.090000        1.0080           0
    1344 MEMB 15   CHL1 H23B HAL2   0.090000        1.0080           0
    1345 MEMB 15   CHL1 C24  CTL2  -0.180000       12.0110           0
    1346 MEMB 15   CHL1 H24A HAL2   0.090000        1.0080           0
    1347 MEMB 15   CHL1 H24B HAL2   0.090000        1.0080           0
    1348 MEMB 15   CHL1 C25  CTL1  -0.090000       12.0110           0
    1349 MEMB 15   CHL1 H25  HAL1   0.090000        1.0080           0
    1350 MEMB 15   CHL1 C26  CTL3  -0.270000       12.0110           0
    1351 MEMB 15   CHL1 H26A HAL3   0.090000        1.0080           0
    1352 MEMB 15   CHL1 H26B HAL3   0.090000        1.0080           0
    1353 MEMB 15   CHL1 H26C HAL3   0.090000        1.0080           0
    1354 MEMB 15   CHL1 C27  CTL3  -0.270000       12.0110           0
    1355 MEMB 15   CHL1 H27A HAL3   0.090000        1.0080           0
    1356 MEMB 15   CHL1 H27B HAL3   0.090000        1.0080           0
    1357 MEMB 15   CHL1 H27C HAL3   0.090000        1.0080           0
    1358 MEMB 16   CHL1 C3   CRL1   0.140000       12.0110           0
    1359 MEMB 16   CHL1 H3   HGA1   0.090000        1.0080           0
    1360 MEMB 16   CHL1 O3   OHL   -0.660000       15.9994           0
    1361 MEMB 16   CHL1 H3'  HOL    0.430000        1.0080           0
    1362 MEMB 16   CHL1 C4   CRL2  -0.180000       12.0110           0
    1363 MEMB 16   CHL1 H4A  HGA2   0.090000        1.0080           0
    1364 MEMB 16   CHL1 H4B  HGA2   0.090000        1.0080           0
    1365 MEMB 16   CHL1 C5   CEL1   0.000000       12.0110           0
    1366 MEMB 16   CHL1 C6   CEL1  -0.150000       12.0110           0
    1367 MEMB 16   CHL1 H6   HEL1   0.150000        1.0080           0
    1368 MEMB 16   CHL1 C7   CRL2  -0.180000       12.0110           0
    1369 MEMB 16   CHL1 H7A  HGA2   0.090000        1.0080           0
    1370 MEMB 16   CHL1 H7B  HGA2   0.090000        1.0080           0
    1371 MEMB 16   CHL1 C8   CRL1  -0.090000       12.0110           0
    1372 MEMB 16   CHL1 H8   HGA1   0.090000        1.0080           0
    1373 MEMB 16   CHL1 C14  CRL1  -0.090000       12.0110           0
    1374 MEMB 16   CHL1 H14  HGA1   0.090000        1.0080           0
    1375 MEMB 16   CHL1 C15  CRL2  -0.180000       12.0110           0
    1376 MEMB 16   CHL1 H15A HGA2   0.090000        1.0080           0
    1377 MEMB 16   CHL1 H15B HGA2   0.090000        1.0080           0
    1378 MEMB 16   CHL1 C16  CRL2  -0.180000       12.0110           0
    1379 MEMB 16   CHL1 H16A HGA2   0.090000        1.0080           0
    1380 MEMB 16   CHL1 H16B HGA2   0.090000        1.0080           0
    1381 MEMB 16   CHL1 C17  CRL1  -0.090000       12.0110           0
    1382 MEMB 16   CHL1 H17  HGA1   0.090000        1.0080           0
    1383 MEMB 16   CHL1 C13  CRL1   0.000000       12.0110           0
    1384 MEMB 16   CHL1 C18  CTL3  -0.270000       12.0110           0
    1385 MEMB 16   CHL1 H18A HAL3   0.090000        1.0080           0
    1386 MEMB 16   CHL1 H18B HAL3   0.090000        1.0080           0
    1387 MEMB 16   CHL1 H18C HAL3   0.090000        1.0080           0
    1388 MEMB 16   CHL1 C12  CRL2  -0.180000       12.0110           0
    1389 MEMB 16   CHL1 H12A HGA2   0.090000        1.0080           0
    1390 MEMB 16   CHL1 H12B HGA2   0.090000        1.0080           0
    1391 MEMB 16   CHL1 C11  CRL2  -0.180000       12.0110           0
    1392 MEMB 16   CHL1 H11A HGA2   0.090000        1.0080           0
    1393 MEMB 16   CHL1 H11B HGA2   0.090000        1.0080           0
    1394 MEMB 16   CHL1 C9   CRL1  -0.090000       12.0110           0
    1395 MEMB 16   CHL1 H9   HGA1   0.090000        1.0080           0
    1396 MEMB 16   CHL1 C10  CRL1   0.000000       12.0110           0
    1397 MEMB 16   CHL1 C19  CTL3  -0.270000       12.0110           0
    1398 MEMB 16   CHL1 H19A HAL3   0.090000        1.0080           0
    1399 MEMB 16   CHL1 H19B HAL3   0.090000        1.0080           0
    1400 MEMB 16   CHL1 H19C HAL3   0.090000        1.0080           0
    1401 MEMB 16   CHL1 C1   CRL2  -0.180000       12.0110           0
    1402 MEMB 16   CHL1 H1A  HGA2   0.090000        1.0080           0
    1403 MEMB 16   CHL1 H1B  HGA2   0.090000        1.0080           0
    1404 MEMB 16   CHL1 C2   CRL2  -0.180000       12.0110           0
    1405 MEMB 16   CHL1 H2A  HGA2   0.090000        1.0080           0
    1406 MEMB 16   CHL1 H2B  HGA2   0.090000        1.0080           0
    1407 MEMB 16   CHL1 C20  CTL1  -0.090000       12.0110           0
    1408 MEMB 16   CHL1 H20  HAL1   0.090000        1.0080           0
    1409 MEMB 16   CHL1 C21  CTL3  -0.270000       12.0110           0
    1410 MEMB 16   CHL1 H21A HAL3   0.090000        1.0080           0
    1411 MEMB 16   CHL1 H21B HAL3   0.090000        1.0080           0
    1412 MEMB 16   CHL1 H21C HAL3   0.090000        1.0080           0
    1413 MEMB 16   CHL1 C22  CTL2  -0.180000       12.0110           0
    1414 MEMB 16   CHL1 H22A HAL2   0.090000        1.0080           0
    1415 MEMB 16   CHL1 H22B HAL2   0.090000        1.0080           0
    1416 MEMB 16   CHL1 C23  CTL2  -0.180000       12.0110           0
    1417 MEMB 16   CHL1 H23A HAL2   0.090000        1.0080           0
    1418 MEMB 16   CHL1 H23B HAL2   0.090000        1.0080           0
    1419 MEMB 16   CHL1 C24  CTL2  -0.180000       12.0110           0
    1420 MEMB 16   CHL1 H24A HAL2   0.090000        1.0080           0
    1421 MEMB 16   CHL1 H24B HAL2   0.090000        1.0080           0
    1422 MEMB 16   CHL1 C25  CTL1  -0.090000       12.0110           0
    1423 MEMB 16   CHL1 H25  HAL1   0.090000        1.0080           0
    1424 MEMB 16   CHL1 C26  CTL3  -0.270000       12.0110           0
    1425 MEMB 16   CHL1 H26A HAL3   0.090000        1.0080           0
    1426 MEMB 16   CHL1 H26B HAL3   0.090000        1.0080           0
    1427 MEMB 16   CHL1 H26C HAL3   0.090000        1.0080           0
    1428 MEMB 16   CHL1 C27  CTL3  -0.270000       12.0110           0
    1429 MEMB 16   CHL1 H27A HAL3   0.090000        1.0080           0
    1430 MEMB 16   CHL1 H27B HAL3   0.090000        1.0080           0
    1431 MEMB 16   CHL1 H27C HAL3   0.090000        1.0080           0
    1432 MEMB 17   CHL1 C3   CRL1   0.140000       12.0110           0
    1433 MEMB 17   CHL1 H3   HGA1   0.090000        1.0080           0
    1434 MEMB 17   CHL1 O3   OHL   -0.660000       15.9994           0
    1435 MEMB 17   CHL1 H3'  HOL    0.430000        1.0080           0
    1436 MEMB 17   CHL1 C4   CRL2  -0.180000       12.0110           0
    1437 MEMB 17   CHL1 H4A  HGA2   0.090000        1.0080           0
    1438 MEMB 17   CHL1 H4B  HGA2   0.090000        1.0080           0
    1439 MEMB 17   CHL1 C5   CEL1   0.000000       12.0110           0
    1440 MEMB 17   CHL1 C6   CEL1  -0.150000       12.0110           0
    1441 MEMB 17   CHL1 H6   HEL1   0.150000        1.0080           0
    1442 MEMB 17   CHL1 C7   CRL2  -0.180000       12.0110           0
    1443 MEMB 17   CHL1 H7A  HGA2   0.090000        1.0080           0
    1444 MEMB 17   CHL1 H7B  HGA2   0.090000        1.0080           0
    1445 MEMB 17   CHL1 C8   CRL1  -0.090000       12.0110           0
    1446 MEMB 17   CHL1 H8   HGA1   0.090000        1.0080           0
    1447 MEMB 17   CHL1 C14  CRL1  -0.090000       12.0110           0
    1448 MEMB 17   CHL1 H14  HGA1   0.090000        1.0080           0
    1449 MEMB 17   CHL1 C15  CRL2  -0.180000       12.0110           0
    1450 MEMB 17   CHL1 H15A HGA2   0.090000        1.0080           0
    1451 MEMB 17   CHL1 H15B HGA2   0.090000        1.0080           0
    1452 MEMB 17   CHL1 C16  CRL2  -0.180000       12.0110           0
    1453 MEMB 17   CHL1 H16A HGA2   0.090000        1.0080           0
    1454 MEMB 17   CHL1 H16B HGA2   0.090000        1.0080           0
    1455 MEMB 17   CHL1 C17  CRL1  -0.090000       12.0110           0
    1456 MEMB 17   CHL1 H17  HGA1   0.090000        1.0080           0
    1457 MEMB 17   CHL1 C13  CRL1   0.000000       12.0110           0
    1458 MEMB 17   CHL1 C18  CTL3  -0.270000       12.0110           0
    1459 MEMB 17   CHL1 H18A HAL3   0.090000        1.0080           0
    1460 MEMB 17   CHL1 H18B HAL3   0.090000        1.0080           0
    1461 MEMB 17   CHL1 H18C HAL3   0.090000        1.0080           0
    1462 MEMB 17   CHL1 C12  CRL2  -0.180000       12.0110           0
    1463 MEMB 17   CHL1 H12A HGA2   0.090000        1.0080           0
    1464 MEMB 17   CHL1 H12B HGA2   0.090000        1.0080           0
    1465 MEMB 17   CHL1 C11  CRL2  -0.180000       12.0110           0
    1466 MEMB 17   CHL1 H11A HGA2   0.090000        1.0080           0
    1467 MEMB 17   CHL1 H11B HGA2   0.090000        1.0080           0
    1468 MEMB 17   CHL1 C9   CRL1  -0.090000       12.0110           0
    1469 MEMB 17   CHL1 H9   HGA1   0.090000        1.0080           0
    1470 MEMB 17   CHL1 C10  CRL1   0.000000       12.0110           0
    1471 MEMB 17   CHL1 C19  CTL3  -0.270000       12.0110           0
    1472 MEMB 17   CHL1 H19A HAL3   0.090000        1.0080           0
    1473 MEMB 17   CHL1 H19B HAL3   0.090000        1.0080           0
    1474 MEMB 17   CHL1 H19C HAL3   0.090000        1.0080           0
    1475 MEMB 17   CHL1 C1   CRL2  -0.180000       12.0110           0
    1476 MEMB 17   CHL1 H1A  HGA2   0.090000        1.0080           0
    1477 MEMB 17   CHL1 H1B  HGA2   0.090000        1.0080           0
    1478 MEMB 17   CHL1 C2   CRL2  -0.180000       12.0110           0
    1479 MEMB 17   CHL1 H2A  HGA2   0.090000        1.0080           0
    1480 MEMB 17   CHL1 H2B  HGA2   0.090000        1.0080           0
    1481 MEMB 17   CHL1 C20  CTL1  -0.090000       12.0110           0
    1482 MEMB 17   CHL1 H20  HAL1   0.090000        1.0080           0
    1483 MEMB 17   CHL1 C21  CTL3  -0.270000       12.0110           0
    1484 MEMB 17   CHL1 H21A HAL3   0.090000        1.0080           0
    1485 MEMB 17   CHL1 H21B HAL3   0.090000        1.0080           0
    1486 MEMB 17   CHL1 H21C HAL3   0.090000        1.0080           0
    1487 MEMB 17   CHL1 C22  CTL2  -0.180000       12.0110           0
    1488 MEMB 17   CHL1 H22A HAL2   0.090000        1.0080           0
    1489 MEMB 17   CHL1 H22B HAL2   0.090000        1.0080           0
    1490 MEMB 17   CHL1 C23  CTL2  -0.180000       12.0110           0
    1491 MEMB 17   CHL1 H23A HAL2   0.090000        1.0080           0
    1492 MEMB 17   CHL1 H23B HAL2   0.090000        1.0080           0
    1493 MEMB 17   CHL1 C24  CTL2  -0.180000       12.0110           0
    1494 MEMB 17   CHL1 H24A HAL2   0.090000        1.0080           0
    1495 MEMB 17   CHL1 H24B HAL2   0.090000        1.0080           0
    1496 MEMB 17   CHL1 C25  CTL1  -0.090000       12.0110           0
    1497 MEMB 17   CHL1 H25  HAL1   0.090000        1.0080           0
    1498 MEMB 17   CHL1 C26  CTL3  -0.270000       12.0110           0
    1499 MEMB 17   CHL1 H26A HAL3   0.090000        1.0080           0
    1500 MEMB 17   CHL1 H26B HAL3   0.090000        1.0080           0
    1501 MEMB 17   CHL1 H26C HAL3   0.090000        1.0080           0
    1502 MEMB 17   CHL1 C27  CTL3  -0.270000       12.0110           0
    1503 MEMB 17   CHL1 H27A HAL3   0.090000        1.0080           0
    1504 MEMB 17   CHL1 H27B HAL3   0.090000        1.0080           0
    1505 MEMB 17   CHL1 H27C HAL3   0.090000        1.0080           0
    1506 MEMB 18   CHL1 C3   CRL1   0.140000       12.0110           0
    1507 MEMB 18   CHL1 H3   HGA1   0.090000        1.0080           0
    1508 MEMB 18   CHL1 O3   OHL   -0.660000       15.9994           0
    1509 MEMB 18   CHL1 H3'  HOL    0.430000        1.0080           0
    1510 MEMB 18   CHL1 C4   CRL2  -0.180000       12.0110           0
    1511 MEMB 18   CHL1 H4A  HGA2   0.090000        1.0080           0
    1512 MEMB 18   CHL1 H4B  HGA2   0.090000        1.0080           0
    1513 MEMB 18   CHL1 C5   CEL1   0.000000       12.0110           0
    1514 MEMB 18   CHL1 C6   CEL1  -0.150000       12.0110           0
    1515 MEMB 18   CHL1 H6   HEL1   0.150000        1.0080           0
    1516 MEMB 18   CHL1 C7   CRL2  -0.180000       12.0110           0
    1517 MEMB 18   CHL1 H7A  HGA2   0.090000        1.0080           0
    1518 MEMB 18   CHL1 H7B  HGA2   0.090000        1.0080           0
    1519 MEMB 18   CHL1 C8   CRL1  -0.090000       12.0110           0
    1520 MEMB 18   CHL1 H8   HGA1   0.090000        1.0080           0
    1521 MEMB 18   CHL1 C14  CRL1  -0.090000       12.0110           0
    1522 MEMB 18   CHL1 H14  HGA1   0.090000        1.0080           0
    1523 MEMB 18   CHL1 C15  CRL2  -0.180000       12.0110           0
    1524 MEMB 18   CHL1 H15A HGA2   0.090000        1.0080           0
    1525 MEMB 18   CHL1 H15B HGA2   0.090000        1.0080           0
    1526 MEMB 18   CHL1 C16  CRL2  -0.180000       12.0110           0
    1527 MEMB 18   CHL1 H16A HGA2   0.090000        1.0080           0
    1528 MEMB 18   CHL1 H16B HGA2   0.090000        1.0080           0
    1529 MEMB 18   CHL1 C17  CRL1  -0.090000       12.0110           0
    1530 MEMB 18   CHL1 H17  HGA1   0.090000        1.0080           0
    1531 MEMB 18   CHL1 C13  CRL1   0.000000       12.0110           0
    1532 MEMB 18   CHL1 C18  CTL3  -0.270000       12.0110           0
    1533 MEMB 18   CHL1 H18A HAL3   0.090000        1.0080           0
    1534 MEMB 18   CHL1 H18B HAL3   0.090000        1.0080           0
    1535 MEMB 18   CHL1 H18C HAL3   0.090000        1.0080           0
    1536 MEMB 18   CHL1 C12  CRL2  -0.180000       12.0110           0
    1537 MEMB 18   CHL1 H12A HGA2   0.090000        1.0080           0
    1538 MEMB 18   CHL1 H12B HGA2   0.090000        1.0080           0
    1539 MEMB 18   CHL1 C11  CRL2  -0.180000       12.0110           0
    1540 MEMB 18   CHL1 H11A HGA2   0.090000        1.0080           0
    1541 MEMB 18   CHL1 H11B HGA2   0.090000        1.0080           0
    1542 MEMB 18   CHL1 C9   CRL1  -0.090000       12.0110           0
    1543 MEMB 18   CHL1 H9   HGA1   0.090000        1.0080           0
    1544 MEMB 18   CHL1 C10  CRL1   0.000000       12.0110           0
    1545 MEMB 18   CHL1 C19  CTL3  -0.270000       12.0110           0
    1546 MEMB 18   CHL1 H19A HAL3   0.090000        1.0080           0
    1547 MEMB 18   CHL1 H19B HAL3   0.090000        1.0080           0
    1548 MEMB 18   CHL1 H19C HAL3   0.090000        1.0080           0
    1549 MEMB 18   CHL1 C1   CRL2  -0.180000       12.0110           0
    1550 MEMB 18   CHL1 H1A  HGA2   0.090000        1.0080           0
    1551 MEMB 18   CHL1 H1B  HGA2   0.090000        1.0080           0
    1552 MEMB 18   CHL1 C2   CRL2  -0.180000       12.0110           0
    1553 MEMB 18   CHL1 H2A  HGA2   0.090000        1.0080           0
    1554 MEMB 18   CHL1 H2B  HGA2   0.090000        1.0080           0
    1555 MEMB 18   CHL1 C20  CTL1  -0.090000       12.0110           0
    1556 MEMB 18   CHL1 H20  HAL1   0.090000        1.0080           0
    1557 MEMB 18   CHL1 C21  CTL3  -0.270000       12.0110           0
    1558 MEMB 18   CHL1 H21A HAL3   0.090000        1.0080           0
    1559 MEMB 18   CHL1 H21B HAL3   0.090000        1.0080           0
    1560 MEMB 18   CHL1 H21C HAL3   0.090000        1.0080           0
    1561 MEMB 18   CHL1 C22  CTL2  -0.180000       12.0110           0
    1562 MEMB 18   CHL1 H22A HAL2   0.090000        1.0080           0
    1563 MEMB 18   CHL1 H22B HAL2   0.090000        1.0080           0
    1564 MEMB 18   CHL1 C23  CTL2  -0.180000       12.0110           0
    1565 MEMB 18   CHL1 H23A HAL2   0.090000        1.0080           0
    1566 MEMB 18   CHL1 H23B HAL2   0.090000        1.0080           0
    1567 MEMB 18   CHL1 C24  CTL2  -0.180000       12.0110           0
    1568 MEMB 18   CHL1 H24A HAL2   0.090000        1.0080           0
    1569 MEMB 18   CHL1 H24B HAL2   0.090000        1.0080           0
    1570 MEMB 18   CHL1 C25  CTL1  -0.090000       12.0110           0
    1571 MEMB 18   CHL1 H25  HAL1   0.090000        1.0080           0
    1572 MEMB 18   CHL1 C26  CTL3  -0.270000       12.0110           0
    1573 MEMB 18   CHL1 H26A HAL3   0.090000        1.0080           0
    1574 MEMB 18   CHL1 H26B HAL3   0.090000        1.0080           0
    1575 MEMB 18   CHL1 H26C HAL3   0.090000        1.0080           0
    1576 MEMB 18   CHL1 C27  CTL3  -0.270000       12.0110           0
    1577 MEMB 18   CHL1 H27A HAL3   0.090000        1.0080           0
    1578 MEMB 18   CHL1 H27B HAL3   0.090000        1.0080           0
    1579 MEMB 18   CHL1 H27C HAL3   0.090000        1.0080           0
    1580 MEMB 19   CHL1 C3   CRL1   0.140000       12.0110           0
    1581 MEMB 19   CHL1 H3   HGA1   0.090000        1.0080           0
    1582 MEMB 19   CHL1 O3   OHL   -0.660000       15.9994           0
    1583 MEMB 19   CHL1 H3'  HOL    0.430000        1.0080           0
    1584 MEMB 19   CHL1 C4   CRL2  -0.180000       12.0110           0
    1585 MEMB 19   CHL1 H4A  HGA2   0.090000        1.0080           0
    1586 MEMB 19   CHL1 H4B  HGA2   0.090000        1.0080           0
    1587 MEMB 19   CHL1 C5   CEL1   0.000000       12.0110           0
    1588 MEMB 19   CHL1 C6   CEL1  -0.150000       12.0110           0
    1589 MEMB 19   CHL1 H6   HEL1   0.150000        1.0080           0
    1590 MEMB 19   CHL1 C7   CRL2  -0.180000       12.0110           0
    1591 MEMB 19   CHL1 H7A  HGA2   0.090000        1.0080           0
    1592 MEMB 19   CHL1 H7B  HGA2   0.090000        1.0080           0
    1593 MEMB 19   CHL1 C8   CRL1  -0.090000       12.0110           0
    1594 MEMB 19   CHL1 H8   HGA1   0.090000        1.0080           0
    1595 MEMB 19   CHL1 C14  CRL1  -0.090000       12.0110           0
    1596 MEMB 19   CHL1 H14  HGA1   0.090000        1.0080           0
    1597 MEMB 19   CHL1 C15  CRL2  -0.180000       12.0110           0
    1598 MEMB 19   CHL1 H15A HGA2   0.090000        1.0080           0
    1599 MEMB 19   CHL1 H15B HGA2   0.090000        1.0080           0
    1600 MEMB 19   CHL1 C16  CRL2  -0.180000       12.0110           0
    1601 MEMB 19   CHL1 H16A HGA2   0.090000        1.0080           0
    1602 MEMB 19   CHL1 H16B HGA2   0.090000        1.0080           0
    1603 MEMB 19   CHL1 C17  CRL1  -0.090000       12.0110           0
    1604 MEMB 19   CHL1 H17  HGA1   0.090000        1.0080           0
    1605 MEMB 19   CHL1 C13  CRL1   0.000000       12.0110           0
    1606 MEMB 19   CHL1 C18  CTL3  -0.270000       12.0110           0
    1607 MEMB 19   CHL1 H18A HAL3   0.090000        1.0080           0
    1608 MEMB 19   CHL1 H18B HAL3   0.090000        1.0080           0
    1609 MEMB 19   CHL1 H18C HAL3   0.090000        1.0080           0
    1610 MEMB 19   CHL1 C12  CRL2  -0.180000       12.0110           0
    1611 MEMB 19   CHL1 H12A HGA2   0.090000        1.0080           0
    1612 MEMB 19   CHL1 H12B HGA2   0.090000        1.0080           0
    1613 MEMB 19   CHL1 C11  CRL2  -0.180000       12.0110           0
    1614 MEMB 19   CHL1 H11A HGA2   0.090000        1.0080           0
    1615 MEMB 19   CHL1 H11B HGA2   0.090000        1.0080           0
    1616 MEMB 19   CHL1 C9   CRL1  -0.090000       12.0110           0
    1617 MEMB 19   CHL1 H9   HGA1   0.090000        1.0080           0
    1618 MEMB 19   CHL1 C10  CRL1   0.000000       12.0110           0
    1619 MEMB 19   CHL1 C19  CTL3  -0.270000       12.0110           0
    1620 MEMB 19   CHL1 H19A HAL3   0.090000        1.0080           0
    1621 MEMB 19   CHL1 H19B HAL3   0.090000        1.0080           0
    1622 MEMB 19   CHL1 H19C HAL3   0.090000        1.0080           0
    1623 MEMB 19   CHL1 C1   CRL2  -0.180000       12.0110           0
    1624 MEMB 19   CHL1 H1A  HGA2   0.090000        1.0080           0
    1625 MEMB 19   CHL1 H1B  HGA2   0.090000        1.0080           0
    1626 MEMB 19   CHL1 C2   CRL2  -0.180000       12.0110           0
    1627 MEMB 19   CHL1 H2A  HGA2   0.090000        1.0080           0
    1628 MEMB 19   CHL1 H2B  HGA2   0.090000        1.0080           0
    1629 MEMB 19   CHL1 C20  CTL1  -0.090000       12.0110           0
    1630 MEMB 19   CHL1 H20  HAL1   0.090000        1.0080           0
    1631 MEMB 19   CHL1 C21  CTL3  -0.270000       12.0110           0
    1632 MEMB 19   CHL1 H21A HAL3   0.090000        1.0080           0
    1633 MEMB 19   CHL1 H21B HAL3   0.090000        1.0080           0
    1634 MEMB 19   CHL1 H21C HAL3   0.090000        1.0080           0
    1635 MEMB 19   CHL1 C22  CTL2  -0.180000       12.0110           0
    1636 MEMB 19   CHL1 H22A HAL2   0.090000        1.0080           0
    1637 MEMB 19   CHL1 H22B HAL2   0.090000        1.0080           0
    1638 MEMB 19   CHL1 C23  CTL2  -0.180000       12.0110           0
    1639 MEMB 19   CHL1 H23A HAL2   0.090000        1.0080           0
    1640 MEMB 19   CHL1 H23B HAL2   0.090000        1.0080           0
    1641 MEMB 19   CHL1 C24  CTL2  -0.180000       12.0110           0
    1642 MEMB 19   CHL1 H24A HAL2   0.090000        1.0080           0
    1643 MEMB 19   CHL1 H24B HAL2   0.090000        1.0080           0
    1644 MEMB 19   CHL1 C25  CTL1  -0.090000       12.0110           0
    1645 MEMB 19   CHL1 H25  HAL1   0.090000        1.0080           0
    1646 MEMB 19   CHL1 C26  CTL3  -0.270000       12.0110           0
    1647 MEMB 19   CHL1 H26A HAL3   0.090000        1.0080           0
    1648 MEMB 19   CHL1 H26B HAL3   0.090000        1.0080           0
    1649 MEMB 19   CHL1 H26C HAL3   0.090000        1.0080           0
    1650 MEMB 19   CHL1 C27  CTL3  -0.270000       12.0110           0
    1651 MEMB 19   CHL1 H27A HAL3   0.090000        1.0080           0
    1652 MEMB 19   CHL1 H27B HAL3   0.090000        1.0080           0
    1653 MEMB 19   CHL1 H27C HAL3   0.090000        1.0080           0
    1654 MEMB 20   CHL1 C3   CRL1   0.140000       12.0110           0
    1655 MEMB 20   CHL1 H3   HGA1   0.090000        1.0080           0
    1656 MEMB 20   CHL1 O3   OHL   -0.660000       15.9994           0
    1657 MEMB 20   CHL1 H3'  HOL    0.430000        1.0080           0
    1658 MEMB 20   CHL1 C4   CRL2  -0.180000       12.0110           0
    1659 MEMB 20   CHL1 H4A  HGA2   0.090000        1.0080           0
    1660 MEMB 20   CHL1 H4B  HGA2   0.090000        1.0080           0
    1661 MEMB 20   CHL1 C5   CEL1   0.000000       12.0110           0
    1662 MEMB 20   CHL1 C6   CEL1  -0.150000       12.0110           0
    1663 MEMB 20   CHL1 H6   HEL1   0.150000        1.0080           0
    1664 MEMB 20   CHL1 C7   CRL2  -0.180000       12.0110           0
    1665 MEMB 20   CHL1 H7A  HGA2   0.090000        1.0080           0
    1666 MEMB 20   CHL1 H7B  HGA2   0.090000        1.0080           0
    1667 MEMB 20   CHL1 C8   CRL1  -0.090000       12.0110           0
    1668 MEMB 20   CHL1 H8   HGA1   0.090000        1.0080           0
    1669 MEMB 20   CHL1 C14  CRL1  -0.090000       12.0110           0
    1670 MEMB 20   CHL1 H14  HGA1   0.090000        1.0080           0
    1671 MEMB 20   CHL1 C15  CRL2  -0.180000       12.0110           0
    1672 MEMB 20   CHL1 H15A HGA2   0.090000        1.0080           0
    1673 MEMB 20   CHL1 H15B HGA2   0.090000        1.0080           0
    1674 MEMB 20   CHL1 C16  CRL2  -0.180000       12.0110           0
    1675 MEMB 20   CHL1 H16A HGA2   0.090000        1.0080           0
    1676 MEMB 20   CHL1 H16B HGA2   0.090000        1.0080           0
    1677 MEMB 20   CHL1 C17  CRL1  -0.090000       12.0110           0
    1678 MEMB 20   CHL1 H17  HGA1   0.090000        1.0080           0
    1679 MEMB 20   CHL1 C13  CRL1   0.000000       12.0110           0
    1680 MEMB 20   CHL1 C18  CTL3  -0.270000       12.0110           0
    1681 MEMB 20   CHL1 H18A HAL3   0.090000        1.0080           0
    1682 MEMB 20   CHL1 H18B HAL3   0.090000        1.0080           0
    1683 MEMB 20   CHL1 H18C HAL3   0.090000        1.0080           0
    1684 MEMB 20   CHL1 C12  CRL2  -0.180000       12.0110           0
    1685 MEMB 20   CHL1 H12A HGA2   0.090000        1.0080           0
    1686 MEMB 20   CHL1 H12B HGA2   0.090000        1.0080           0
    1687 MEMB 20   CHL1 C11  CRL2  -0.180000       12.0110           0
    1688 MEMB 20   CHL1 H11A HGA2   0.090000        1.0080           0
    1689 MEMB 20   CHL1 H11B HGA2   0.090000        1.0080           0
    1690 MEMB 20   CHL1 C9   CRL1  -0.090000       12.0110           0
    1691 MEMB 20   CHL1 H9   HGA1   0.090000        1.0080           0
    1692 MEMB 20   CHL1 C10  CRL1   0.000000       12.0110           0
    1693 MEMB 20   CHL1 C19  CTL3  -0.270000       12.0110           0
    1694 MEMB 20   CHL1 H19A HAL3   0.090000        1.0080           0
    1695 MEMB 20   CHL1 H19B HAL3   0.090000        1.0080           0
    1696 MEMB 20   CHL1 H19C HAL3   0.090000        1.0080           0
    1697 MEMB 20   CHL1 C1   CRL2  -0.180000       12.0110           0
    1698 MEMB 20   CHL1 H1A  HGA2   0.090000        1.0080           0
    1699 MEMB 20   CHL1 H1B  HGA2   0.090000        1.0080           0
    1700 MEMB 20   CHL1 C2   CRL2  -0.180000       12.0110           0
    1701 MEMB 20   CHL1 H2A  HGA2   0.090000        1.0080           0
    1702 MEMB 20   CHL1 H2B  HGA2   0.090000        1.0080           0
    1703 MEMB 20   CHL1 C20  CTL1  -0.090000       12.0110           0
    1704 MEMB 20   CHL1 H20  HAL1   0.090000        1.0080           0
    1705 MEMB 20   CHL1 C21  CTL3  -0.270000       12.0110           0
    1706 MEMB 20   CHL1 H21A HAL3   0.090000        1.0080           0
    1707 MEMB 20   CHL1 H21B HAL3   0.090000        1.0080           0
    1708 MEMB 20   CHL1 H21C HAL3   0.090000        1.0080           0
    1709 MEMB 20   CHL1 C22  CTL2  -0.180000       12.0110           0
    1710 MEMB 20   CHL1 H22A HAL2   0.090000        1.0080           0
    1711 MEMB 20   CHL1 H22B HAL2   0.090000        1.0080           0
    1712 MEMB 20   CHL1 C23  CTL2  -0.180000       12.0110           0
    1713 MEMB 20   CHL1 H23A HAL2   0.090000        1.0080           0
    1714 MEMB 20   CHL1 H23B HAL2   0.090000        1.0080           0
    1715 MEMB 20   CHL1 C24  CTL2  -0.180000       12.0110           0
    1716 MEMB 20   CHL1 H24A HAL2   0.090000        1.0080           0
    1717 MEMB 20   CHL1 H24B HAL2   0.090000        1.0080           0
    1718 MEMB 20   CHL1 C25  CTL1  -0.090000       12.0110           0
    1719 MEMB 20   CHL1 H25  HAL1   0.090000        1.0080           0
    1720 MEMB 20   CHL1 C26  CTL3  -0.270000       12.0110           0
    1721 MEMB 20   CHL1 H26A HAL3   0.090000        1.0080           0
    1722 MEMB 20   CHL1 H26B HAL3   0.090000        1.0080           0
    1723 MEMB 20   CHL1 H26C HAL3   0.090000        1.0080           0
    1724 MEMB 20   CHL1 C27  CTL3  -0.270000       12.0110           0
    1725 MEMB 20   CHL1 H27A HAL3   0.090000        1.0080           0
    1726 MEMB 20   CHL1 H27B HAL3   0.090000        1.0080           0
    1727 MEMB 20   CHL1 H27C HAL3   0.090000        1.0080           0
    1728 MEMB 21   CHL1 C3   CRL1   0.140000       12.0110           0
    1729 MEMB 21   CHL1 H3   HGA1   0.090000        1.0080           0
    1730 MEMB 21   CHL1 O3   OHL   -0.660000       15.9994           0
    1731 MEMB 21   CHL1 H3'  HOL    0.430000        1.0080           0
    1732 MEMB 21   CHL1 C4   CRL2  -0.180000       12.0110           0
    1733 MEMB 21   CHL1 H4A  HGA2   0.090000        1.0080           0
    1734 MEMB 21   CHL1 H4B  HGA2   0.090000        1.0080           0
    1735 MEMB 21   CHL1 C5   CEL1   0.000000       12.0110           0
    1736 MEMB 21   CHL1 C6   CEL1  -0.150000       12.0110           0
    1737 MEMB 21   CHL1 H6   HEL1   0.150000        1.0080           0
    1738 MEMB 21   CHL1 C7   CRL2  -0.180000       12.0110           0
    1739 MEMB 21   CHL1 H7A  HGA2   0.090000        1.0080           0
    1740 MEMB 21   CHL1 H7B  HGA2   0.090000        1.0080           0
    1741 MEMB 21   CHL1 C8   CRL1  -0.090000       12.0110           0
    1742 MEMB 21   CHL1 H8   HGA1   0.090000        1.0080           0
    1743 MEMB 21   CHL1 C14  CRL1  -0.090000       12.0110           0
    1744 MEMB 21   CHL1 H14  HGA1   0.090000        1.0080           0
    1745 MEMB 21   CHL1 C15  CRL2  -0.180000       12.0110           0
    1746 MEMB 21   CHL1 H15A HGA2   0.090000        1.0080           0
    1747 MEMB 21   CHL1 H15B HGA2   0.090000        1.0080           0
    1748 MEMB 21   CHL1 C16  CRL2  -0.180000       12.0110           0
    1749 MEMB 21   CHL1 H16A HGA2   0.090000        1.0080           0
    1750 MEMB 21   CHL1 H16B HGA2   0.090000        1.0080           0
    1751 MEMB 21   CHL1 C17  CRL1  -0.090000       12.0110           0
    1752 MEMB 21   CHL1 H17  HGA1   0.090000        1.0080           0
    1753 MEMB 21   CHL1 C13  CRL1   0.000000       12.0110           0
    1754 MEMB 21   CHL1 C18  CTL3  -0.270000       12.0110           0
    1755 MEMB 21   CHL1 H18A HAL3   0.090000        1.0080           0
    1756 MEMB 21   CHL1 H18B HAL3   0.090000        1.0080           0
    1757 MEMB 21   CHL1 H18C HAL3   0.090000        1.0080           0
    1758 MEMB 21   CHL1 C12  CRL2  -0.180000       12.0110           0
    1759 MEMB 21   CHL1 H12A HGA2   0.090000        1.0080           0
    1760 MEMB 21   CHL1 H12B HGA2   0.090000        1.0080           0
    1761 MEMB 21   CHL1 C11  CRL2  -0.180000       12.0110           0
    1762 MEMB 21   CHL1 H11A HGA2   0.090000        1.0080           0
    1763 MEMB 21   CHL1 H11B HGA2   0.090000        1.0080           0
    1764 MEMB 21   CHL1 C9   CRL1  -0.090000       12.0110           0
    1765 MEMB 21   CHL1 H9   HGA1   0.090000        1.0080           0
    1766 MEMB 21   CHL1 C10  CRL1   0.000000       12.0110           0
    1767 MEMB 21   CHL1 C19  CTL3  -0.270000       12.0110           0
    1768 MEMB 21   CHL1 H19A HAL3   0.090000        1.0080           0
    1769 MEMB 21   CHL1 H19B HAL3   0.090000        1.0080           0
    1770 MEMB 21   CHL1 H19C HAL3   0.090000        1.0080           0
    1771 MEMB 21   CHL1 C1   CRL2  -0.180000       12.0110           0
    1772 MEMB 21   CHL1 H1A  HGA2   0.090000        1.0080           0
    1773 MEMB 21   CHL1 H1B  HGA2   0.090000        1.0080           0
    1774 MEMB 21   CHL1 C2   CRL2  -0.180000       12.0110           0
    1775 MEMB 21   CHL1 H2A  HGA2   0.090000        1.0080           0
    1776 MEMB 21   CHL1 H2B  HGA2   0.090000        1.0080           0
    1777 MEMB 21   CHL1 C20  CTL1  -0.090000       12.0110           0
    1778 MEMB 21   CHL1 H20  HAL1   0.090000        1.0080           0
    1779 MEMB 21   CHL1 C21  CTL3  -0.270000       12.0110           0
    1780 MEMB 21   CHL1 H21A HAL3   0.090000        1.0080           0
    1781 MEMB 21   CHL1 H21B HAL3   0.090000        1.0080           0
    1782 MEMB 21   CHL1 H21C HAL3   0.090000        1.0080           0
    1783 MEMB 21   CHL1 C22  CTL2  -0.180000       12.0110           0
    1784 MEMB 21   CHL1 H22A HAL2   0.090000        1.0080           0
    1785 MEMB 21   CHL1 H22B HAL2   0.090000        1.0080           0
    1786 MEMB 21   CHL1 C23  CTL2  -0.180000       12.0110           0
    1787 MEMB 21   CHL1 H23A HAL2   0.090000        1.0080           0
    1788 MEMB 21   CHL1 H23B HAL2   0.090000        1.0080           0
    1789 MEMB 21   CHL1 C24  CTL2  -0.180000       12.0110           0
    1790 MEMB 21   CHL1 H24A HAL2   0.090000        1.0080           0
    1791 MEMB 21   CHL1 H24B HAL2   0.090000        1.0080           0
    1792 MEMB 21   CHL1 C25  CTL1  -0.090000       12.0110           0
    1793 MEMB 21   CHL1 H25  HAL1   0.090000        1.0080           0
    1794 MEMB 21   CHL1 C26  CTL3  -0.270000       12.0110           0
    1795 MEMB 21   CHL1 H26A HAL3   0.090000        1.0080           0
    1796 MEMB 21   CHL1 H26B HAL3   0.090000        1.0080           0
    1797 MEMB 21   CHL1 H26C HAL3   0.090000        1.0080           0
    1798 MEMB 21   CHL1 C27  CTL3  -0.270000       12.0110           0
    1799 MEMB 21   CHL1 H27A HAL3   0.090000        1.0080           0
    1800 MEMB 21   CHL1 H27B HAL3   0.090000        1.0080           0
    1801 MEMB 21   CHL1 H27C HAL3   0.090000        1.0080           0
    1802 MEMB 22   PSM  N    NTL   -0.600000       14.0070           0
    1803 MEMB 22   PSM  C15  CTL5  -0.350000       12.0110           0
    1804 MEMB 22   PSM  H15A HL     0.250000        1.0080           0
    1805 MEMB 22   PSM  H15B HL     0.250000        1.0080           0
    1806 MEMB 22   PSM  H15C HL     0.250000        1.0080           0
    1807 MEMB 22   PSM  C14  CTL5  -0.350000       12.0110           0
    1808 MEMB 22   PSM  H14A HL     0.250000        1.0080           0
    1809 MEMB 22   PSM  H14B HL     0.250000        1.0080           0
    1810 MEMB 22   PSM  H14C HL     0.250000        1.0080           0
    1811 MEMB 22   PSM  C13  CTL5  -0.350000       12.0110           0
    1812 MEMB 22   PSM  H13A HL     0.250000        1.0080           0
    1813 MEMB 22   PSM  H13B HL     0.250000        1.0080           0
    1814 MEMB 22   PSM  H13C HL     0.250000        1.0080           0
    1815 MEMB 22   PSM  C12  CTL2  -0.100000       12.0110           0
    1816 MEMB 22   PSM  H12A HL     0.250000        1.0080           0
    1817 MEMB 22   PSM  H12B HL     0.250000        1.0080           0
    1818 MEMB 22   PSM  C11  CTL2  -0.080000       12.0110           0
    1819 MEMB 22   PSM  H11A HAL2   0.090000        1.0080           0
    1820 MEMB 22   PSM  H11B HAL2   0.090000        1.0080           0
    1821 MEMB 22   PSM  P    PL     1.500000       30.9740           0
    1822 MEMB 22   PSM  O13  O2L   -0.780000       15.9994           0
    1823 MEMB 22   PSM  O14  O2L   -0.780000       15.9994           0
    1824 MEMB 22   PSM  O11  OSLP  -0.570000       15.9994           0
    1825 MEMB 22   PSM  O12  OSLP  -0.570000       15.9994           0
    1826 MEMB 22   PSM  C1S  CTL2  -0.080000       12.0110           0
    1827 MEMB 22   PSM  H1S  HAL2   0.090000        1.0080           0
    1828 MEMB 22   PSM  H1T  HAL2   0.090000        1.0080           0
    1829 MEMB 22   PSM  NF   NHL   -0.700000       14.0070           0
    1830 MEMB 22   PSM  HNF  H      0.350000        1.0080           0
    1831 MEMB 22   PSM  C2S  CTL1   0.300000       12.0110           0
    1832 MEMB 22   PSM  H2S  HAL1   0.050000        1.0080           0
    1833 MEMB 22   PSM  C3S  CTO1   0.500000       12.0110           0
    1834 MEMB 22   PSM  H3S  HAL1  -0.110000        1.0080           0
    1835 MEMB 22   PSM  O3   OHL   -0.690000       15.9994           0
    1836 MEMB 22   PSM  HO3  HOL    0.300000        1.0080           0
    1837 MEMB 22   PSM  C4S  CEL3  -0.150000       12.0110           0
    1838 MEMB 22   PSM  H4S  HEL1   0.150000        1.0080           0
    1839 MEMB 22   PSM  C5S  CEL3  -0.150000       12.0110           0
    1840 MEMB 22   PSM  H5S  HEL1   0.150000        1.0080           0
    1841 MEMB 22   PSM  C6S  CTL3  -0.270000       12.0110           0
    1842 MEMB 22   PSM  H6S  HAL3   0.090000        1.0080           0
    1843 MEMB 22   PSM  H6T  HAL3   0.090000        1.0080           0
    1844 MEMB 22   PSM  H6U  HAL3   0.090000        1.0080           0
    1845 MEMB 22   PSM  C1F  C      0.550000       12.0110           0
    1846 MEMB 22   PSM  OF   O     -0.600000       15.9994           0
    1847 MEMB 22   PSM  C2F  CTL2  -0.070000       12.0110           0
    1848 MEMB 22   PSM  H2F  HAL2   0.060000        1.0080           0
    1849 MEMB 22   PSM  H2G  HAL2   0.060000        1.0080           0
    1850 MEMB 22   PSM  C3F  CTL2  -0.180000       12.0110           0
    1851 MEMB 22   PSM  H3F  HAL2   0.090000        1.0080           0
    1852 MEMB 22   PSM  H3G  HAL2   0.090000        1.0080           0
    1853 MEMB 22   PSM  C4F  CTL2  -0.180000       12.0110           0
    1854 MEMB 22   PSM  H4F  HAL2   0.090000        1.0080           0
    1855 MEMB 22   PSM  H4G  HAL2   0.090000        1.0080           0
    1856 MEMB 22   PSM  C5F  CTL2  -0.180000       12.0110           0
    1857 MEMB 22   PSM  H5F  HAL2   0.090000        1.0080           0
    1858 MEMB 22   PSM  H5G  HAL2   0.090000        1.0080           0
    1859 MEMB 22   PSM  C6F  CTL3  -0.270000       12.0110           0
    1860 MEMB 22   PSM  H6F  HAL3   0.090000        1.0080           0
    1861 MEMB 22   PSM  H6G  HAL3   0.090000        1.0080           0
    1862 MEMB 22   PSM  H6H  HAL3   0.090000        1.0080           0
    1863 MEMB 23   POPC N    NTL   -0.600000       14.0070           0
    1864 MEMB 23   POPC C12  CTL2  -0.100000       12.0110           0
    1865 MEMB 23   POPC H12A HL     0.250000        1.0080           0
    1866 MEMB 23   POPC H12B HL     0.250000        1.0080           0
    1867 MEMB 23   POPC C13  CTL5  -0.350000       12.0110           0
    1868 MEMB 23   POPC H13A HL     0.250000        1.0080           0
    1869 MEMB 23   POPC H13B HL     0.250000        1.0080           0
    1870 MEMB 23   POPC H13C HL     0.250000        1.0080           0
    1871 MEMB 23   POPC C14  CTL5  -0.350000       12.0110           0
    1872 MEMB 23   POPC H14A HL     0.250000        1.0080           0
    1873 MEMB 23   POPC H14B HL     0.250000        1.0080           0
    1874 MEMB 23   POPC H14C HL     0.250000        1.0080           0
    1875 MEMB 23   POPC C15  CTL5  -0.350000       12.0110           0
    1876 MEMB 23   POPC H15A HL     0.250000        1.0080           0
    1877 MEMB 23   POPC H15B HL     0.250000        1.0080           0
    1878 MEMB 23   POPC H15C HL     0.250000        1.0080           0
    1879 MEMB 23   POPC C11  CTL2  -0.080000       12.0110           0
    1880 MEMB 23   POPC H11A HAL2   0.090000        1.0080           0
    1881 MEMB 23   POPC H11B HAL2   0.090000        1.0080           0
    1882 MEMB 23   POPC P    PL     1.500000       30.9740           0
    1883 MEMB 23   POPC O13  O2L   -0.780000       15.9994           0
    1884 MEMB 23   POPC O14  O2L   -0.780000       15.9994           0
    1885 MEMB 23   POPC O12  OSLP  -0.570000       15.9994           0
    1886 MEMB 23   POPC O11  OSLP  -0.570000       15.9994           0
    1887 MEMB 23   POPC C1   CTL2  -0.080000       12.0110           0
    1888 MEMB 23   POPC HA   HAL2   0.090000        1.0080           0
    1889 MEMB 23   POPC HB   HAL2   0.090000        1.0080           0
    1890 MEMB 23   POPC C2   CTL1   0.170000       12.0110           0
    1891 MEMB 23   POPC HS   HAL1   0.090000        1.0080           0
    1892 MEMB 23   POPC O21  OSL   -0.490000       15.9994           0
    1893 MEMB 23   POPC C21  CL     0.900000       12.0110           0
    1894 MEMB 23   POPC O22  OBL   -0.630000       15.9994           0
    1895 MEMB 23   POPC C22  CTL2  -0.220000       12.0110           0
    1896 MEMB 23   POPC H2R  HAL2   0.090000        1.0080           0
    1897 MEMB 23   POPC H2S  HAL2   0.090000        1.0080           0
    1898 MEMB 23   POPC C3   CTL2   0.080000       12.0110           0
    1899 MEMB 23   POPC HX   HAL2   0.090000        1.0080           0
    1900 MEMB 23   POPC HY   HAL2   0.090000        1.0080           0
    1901 MEMB 23   POPC O31  OSL   -0.490000       15.9994           0
    1902 MEMB 23   POPC C31  CL     0.900000       12.0110           0
    1903 MEMB 23   POPC O32  OBL   -0.630000       15.9994           0
    1904 MEMB 23   POPC C32  CTL2  -0.220000       12.0110           0
    1905 MEMB 23   POPC H2X  HAL2   0.090000        1.0080           0
    1906 MEMB 23   POPC H2Y  HAL2   0.090000        1.0080           0
    1907 MEMB 23   POPC C23  CTL2  -0.180000       12.0110           0
    1908 MEMB 23   POPC H3R  HAL2   0.090000        1.0080           0
    1909 MEMB 23   POPC H3S  HAL2   0.090000        1.0080           0
    1910 MEMB 23   POPC C24  CTL2  -0.180000       12.0110           0
    1911 MEMB 23   POPC H4R  HAL2   0.090000        1.0080           0
    1912 MEMB 23   POPC H4S  HAL2   0.090000        1.0080           0
    1913 MEMB 23   POPC C25  CTL2  -0.180000       12.0110           0
    1914 MEMB 23   POPC H5R  HAL2   0.090000        1.0080           0
    1915 MEMB 23   POPC H5S  HAL2   0.090000        1.0080           0
    1916 MEMB 23   POPC C26  CTL3  -0.270000       12.0110           0
    1917 MEMB 23   POPC H6R  HAL3   0.090000        1.0080           0
    1918 MEMB 23   POPC H6S  HAL3   0.090000        1.0080           0
    1919 MEMB 23   POPC H6T  HAL3   0.090000        1.0080           0
    1920 MEMB 23   POPC C33  CTL2  -0.180000       12.0110           0
    1921 MEMB 23   POPC H3X  HAL2   0.090000        1.0080           0
    1922 MEMB 23   POPC H3Y  HAL2   0.090000        1.0080           0
    1923 MEMB 23   POPC C34  CTL2  -0.180000       12.0110           0
    1924 MEMB 23   POPC H4X  HAL2   0.090000        1.0080           0
    1925 MEMB 23   POPC H4Y  HAL2   0.090000        1.0080           0
    1926 MEMB 23   POPC C35  CTL2  -0.180000       12.0110           0
    1927 MEMB 23   POPC H5X  HAL2   0.090000        1.0080           0
    1928 MEMB 23   POPC H5Y  HAL2   0.090000        1.0080           0
    1929 MEMB 23   POPC C36  CTL3  -0.270000       12.0110           0
    1930 MEMB 23   POPC H6X  HAL3   0.090000        1.0080           0
    1931 MEMB 23   POPC H6Y  HAL3   0.090000        1.0080           0
    1932 MEMB 23   POPC H6Z  HAL3   0.090000        1.0080           0
    1933 MEMB 24   POPS N    NH3L  -0.300000       14.0070           0
    1934 MEMB 24   POPS HN1  HCL    0.330000        1.0080           0
    1935 MEMB 24   POPS HN2  HCL    0.330000        1.0080           0
    1936 MEMB 24   POPS HN3  HCL    0.330000        1.0080           0
    1937 MEMB 24   POPS C12  CTL1   0.210000       12.0110           0
    1938 MEMB 24   POPS H12A HBL    0.100000        1.0080           0
    1939 MEMB 24   POPS C13  CCL    0.340000       12.0110           0
    1940 MEMB 24   POPS O13A OCL   -0.670000       15.9994           0
    1941 MEMB 24   POPS O13B OCL   -0.670000       15.9994           0
    1942 MEMB 24   POPS C11  CTL2  -0.080000       12.0110           0
    1943 MEMB 24   POPS H11A HAL2   0.090000        1.0080           0
    1944 MEMB 24   POPS H11B HAL2   0.090000        1.0080           0
    1945 MEMB 24   POPS P    PL     1.500000       30.9740           0
    1946 MEMB 24   POPS O13  O2L   -0.780000       15.9994           0
    1947 MEMB 24   POPS O14  O2L   -0.780000       15.9994           0
    1948 MEMB 24   POPS O12  OSLP  -0.570000       15.9994           0
    1949 MEMB 24   POPS O11  OSLP  -0.570000       15.9994           0
    1950 MEMB 24   POPS C1   CTL2  -0.080000       12.0110           0
    1951 MEMB 24   POPS HA   HAL2   0.090000        1.0080           0
    1952 MEMB 24   POPS HB   HAL2   0.090000        1.0080           0
    1953 MEMB 24   POPS C2   CTL1   0.170000       12.0110           0
    1954 MEMB 24   POPS HS   HAL1   0.090000        1.0080           0
    1955 MEMB 24   POPS O21  OSL   -0.490000       15.9994           0
    1956 MEMB 24   POPS C21  CL     0.900000       12.0110           0
    1957 MEMB 24   POPS O22  OBL   -0.630000       15.9994           0
    1958 MEMB 24   POPS C22  CTL2  -0.220000       12.0110           0
    1959 MEMB 24   POPS H2R  HAL2   0.090000        1.0080           0
    1960 MEMB 24   POPS H2S  HAL2   0.090000        1.0080           0
    1961 MEMB 24   POPS C3   CTL2   0.080000       12.0110           0
    1962 MEMB 24   POPS HX   HAL2   0.090000        1.0080           0
    1963 MEMB 24   POPS HY   HAL2   0.090000        1.0080           0
    1964 MEMB 24   POPS O31  OSL   -0.490000       15.9994           0
    1965 MEMB 24   POPS C31  CL     0.900000       12.0110           0
    1966 MEMB 24   POPS O32  OBL   -0.630000       15.9994           0
    1967 MEMB 24   POPS C32  CTL2  -0.220000       12.0110           0
    1968 MEMB 24   POPS H2X  HAL2   0.090000        1.0080           0
    1969 MEMB 24   POPS H2Y  HAL2   0.090000        1.0080           0
    1970 MEMB 24   POPS C23  CTL2  -0.180000       12.0110           0
    1971 MEMB 24   POPS H3R  HAL2   0.090000        1.0080           0
    1972 MEMB 24   POPS H3S  HAL2   0.090000        1.0080           0
    1973 MEMB 24   POPS C24  CTL2  -0.180000       12.0110           0
    1974 MEMB 24   POPS H4R  HAL2   0.090000        1.0080           0
    1975 MEMB 24   POPS H4S  HAL2   0.090000        1.0080           0
    1976 MEMB 24   POPS C25  CTL2  -0.180000       12.0110           0
    1977 MEMB 24   POPS H5R  HAL2   0.090000        1.0080           0
    1978 MEMB 24   POPS H5S  HAL2   0.090000        1.0080           0
    1979 MEMB 24   POPS C26  CTL3  -0.270000       12.0110           0
    1980 MEMB 24   POPS H6R  HAL3   0.090000        1.0080           0
    1981 MEMB 24   POPS H6S  HAL3   0.090000        1.0080           0
    1982 MEMB 24   POPS H6T  HAL3   0.090000        1.0080           0
    1983 MEMB 24   POPS C33  CTL2  -0.180000       12.0110           0
    1984 MEMB 24   POPS H3X  HAL2   0.090000        1.0080           0
    1985 MEMB 24   POPS H3Y  HAL2   0.090000        1.0080           0
    1986 MEMB 24   POPS C34  CTL2  -0.180000       12.0110           0
    1987 MEMB 24   POPS H4X  HAL2   0.090000        1.0080           0
    1988 MEMB 24   POPS H4Y  HAL2   0.090000        1.0080           0
    1989 MEMB 24   POPS C35  CTL2  -0.180000       12.0110           0
    1990 MEMB 24   POPS H5X  HAL2   0.090000        1.0080           0
    1991 MEMB 24   POPS H5Y  HAL2   0.090000        1.0080           0
    1992 MEMB 24   POPS C36  CTL3  -0.270000       12.0110           0
    1993 MEMB 24   POPS H6X  HAL3   0.090000        1.0080           0
    1994 MEMB 24   POPS H6Y  HAL3   0.090000        1.0080           0
    1995 MEMB 24   POPS H6Z  HAL3   0.090000        1.0080           0
    1996 MEMB 25   PSM  N    NTL   -0.600000       14.0070           0
    1997 MEMB 25   PSM  C15  CTL5  -0.350000       12.0110           0
    1998 MEMB 25   PSM  H15A HL     0.250000        1.0080           0
    1999 MEMB 25   PSM  H15B HL     0.250000        1.0080           0
    2000 MEMB 25   PSM  H15C HL     0.250000        1.0080           0
    2001 MEMB 25   PSM  C14  CTL5  -0.350000       12.0110           0
    2002 MEMB 25   PSM  H14A HL     0.250000        1.0080           0
    2003 MEMB 25   PSM  H14B HL     0.250000        1.0080           0
    2004 MEMB 25   PSM  H14C HL     0.250000        1.0080           0
    2005 MEMB 25   PSM  C13  CTL5  -0.350000       12.0110           0
    2006 MEMB 25   PSM  H13A HL     0.250000        1.0080           0
    2007 MEMB 25   PSM  H13B HL     0.250000        1.0080           0
    2008 MEMB 25   PSM  H13C HL     0.250000        1.0080           0
    2009 MEMB 25   PSM  C12  CTL2  -0.100000       12.0110           0
    2010 MEMB 25   PSM  H12A HL     0.250000        1.0080           0
    2011 MEMB 25   PSM  H12B HL     0.250000        1.0080           0
    2012 MEMB 25   PSM  C11  CTL2  -0.080000       12.0110           0
    2013 MEMB 25   PSM  H11A HAL2   0.090000        1.0080           0
    2014 MEMB 25   PSM  H11B HAL2   0.090000        1.0080           0
    2015 MEMB 25   PSM  P    PL     1.500000       30.9740           0
    2016 MEMB 25   PSM  O13  O2L   -0.780000       15.9994           0
    2017 MEMB 25   PSM  O14  O2L   -0.780000       15.9994           0
    2018 MEMB 25   PSM  O11  OSLP  -0.570000       15.9994           0
    2019 MEMB 25   PSM  O12  OSLP  -0.570000       15.9994           0
    2020 MEMB 25   PSM  C1S  CTL2  -0.080000       12.0110           0
    2021 MEMB 25   PSM  H1S  HAL2   0.090000        1.0080           0
    2022 MEMB 25   PSM  H1T  HAL2   0.090000        1.0080           0
    2023 MEMB 25   PSM  NF   NHL   -0.700000       14.0070           0
    2024 MEMB 25   PSM  HNF  H      0.350000        1.0080           0
    2025 MEMB 25   PSM  C2S  CTL1   0.300000       12.0110           0
    2026 MEMB 25   PSM  H2S  HAL1   0.050000        1.0080           0
    2027 MEMB 25   PSM  C3S  CTO1   0.500000       12.0110           0
    2028 MEMB 25   PSM  H3S  HAL1  -0.110000        1.0080           0
    2029 MEMB 25   PSM  O3   OHL   -0.690000       15.9994           0
    2030 MEMB 25   PSM  HO3  HOL    0.300000        1.0080           0
    2031 MEMB 25   PSM  C4S  CEL3  -0.150000       12.0110           0
    2032 MEMB 25   PSM  H4S  HEL1   0.150000        1.0080           0
    2033 MEMB 25   PSM  C5S  CEL3  -0.150000       12.0110           0
    2034 MEMB 25   PSM  H5S  HEL1   0.150000        1.0080           0
    2035 MEMB 25   PSM  C6S  CTL3  -0.270000       12.0110           0
    2036 MEMB 25   PSM  H6S  HAL3   0.090000        1.0080           0
    2037 MEMB 25   PSM  H6T  HAL3   0.090000        1.0080           0
    2038 MEMB 25   PSM  H6U  HAL3   0.090000        1.0080           0
    2039 MEMB 25   PSM  C1F  C      0.550000       12.0110           0
    2040 MEMB 25   PSM  OF   O     -0.600000       15.9994           0
    2041 MEMB 25   PSM  C2F  CTL2  -0.070000       12.0110           0
    2042 MEMB 25   PSM  H2F  HAL2   0.060000        1.0080           0
    2043 MEMB 25   PSM  H2G  HAL2   0.060000        1.0080           0
    2044 MEMB 25   PSM  C3F  CTL2  -0.180000       12.0110           0
    2045 MEMB 25   PSM  H3F  HAL2   0.090000        1.0080           0
    2046 MEMB 25   PSM  H3G  HAL2   0.090000        1.0080           0
    2047 MEMB 25   PSM  C4F  CTL2  -0.180000       12.0110           0
    2048 MEMB 25   PSM  H4F  HAL2   0.090000        1.0080           0
    2049 MEMB 25   PSM  H4G  HAL2   0.090000        1.0080           0
    2050 MEMB 25   PSM  C5F  CTL2  -0.180000       12.0110           0
    2051 MEMB 25   PSM  H5F  HAL2   0.090000        1.0080           0
    2052 MEMB 25   PSM  H5G  HAL2   0.090000        1.0080           0
    2053 MEMB 25   PSM  C6F  CTL3  -0.270000       12.0110           0
    2054 MEMB 25   PSM  H6F  HAL3   0.090000        1.0080           0
    2055 MEMB 25   PSM  H6G  HAL3   0.090000        1.0080           0
    2056 MEMB 25   PSM  H6H  HAL3   0.090000        1.0080           0
    2057 MEMB 26   POPC N    NTL   -0.600000       14.0070           0
    2058 MEMB 26   POPC C12  CTL2  -0.100000       12.0110           0
    2059 MEMB 26   POPC H12A HL     0.250000        1.0080           0
    2060 MEMB 26   POPC H12B HL     0.250000        1.0080           0
    2061 MEMB 26   POPC C13  CTL5  -0.350000       12.0110           0
    2062 MEMB 26   POPC H13A HL     0.250000        1.0080           0
    2063 MEMB 26   POPC H13B HL     0.250000        1.0080           0
    2064 MEMB 26   POPC H13C HL     0.250000        1.0080           0
    2065 MEMB 26   POPC C14  CTL5  -0.350000       12.0110           0
    2066 MEMB 26   POPC H14A HL     0.250000        1.0080           0
    2067 MEMB 26   POPC H14B HL     0.250000        1.0080           0
    2068 MEMB 26   POPC H14C HL     0.250000        1.0080           0
    2069 MEMB 26   POPC C15  CTL5  -0.350000       12.0110           0
    2070 MEMB 26   POPC H15A HL     0.250000        1.0080           0
    2071 MEMB 26   POPC H15B HL     0.250000        1.0080           0
    2072 MEMB 26   POPC H15C HL     0.250000        1.0080           0
    2073 MEMB 26   POPC C11  CTL2  -0.080000       12.0110           0
    2074 MEMB 26   POPC H11A HAL2   0.090000        1.0080           0
    2075 MEMB 26   POPC H11B HAL2   0.090000        1.0080           0
    2076 MEMB 26   POPC P    PL     1.500000       30.9740           0
    2077 MEMB 26   POPC O13  O2L   -0.780000       15.9994           0
    2078 MEMB 26   POPC O14  O2L   -0.780000       15.9994           0
    2079 MEMB 26   POPC O12  OSLP  -0.570000       15.9994           0
    2080 MEMB 26   POPC O11  OSLP  -0.570000       15.9994           0
    2081 MEMB 26   POPC C1   CTL2  -0.080000       12.0110           0
    2082 MEMB 26   POPC HA   HAL2   0.090000        1.0080           0
    2083 MEMB 26   POPC HB   HAL2   0.090000        1.0080           0
    2084 MEMB 26   POPC C2   CTL1   0.170000       12.0110           0
    2085 MEMB 26   POPC HS   HAL1   0.090000        1.0080           0
    2086 MEMB 26   POPC O21  OSL   -0.490000       15.9994           0
    2087 MEMB 26   POPC C21  CL     0.900000       12.0110           0
    2088 MEMB 26   POPC O22  OBL   -0.630000       15.9994           0
    2089 MEMB 26   POPC C22  CTL2  -0.220000       12.0110           0
    2090 MEMB 26   POPC H2R  HAL2   0.090000        1.0080           0
    2091 MEMB 26   POPC H2S  HAL2   0.090000        1.0080           0
    2092 MEMB 26   POPC C3   CTL2   0.080000       12.0110           0
    2093 MEMB 26   POPC HX   HAL2   0.090000        1.0080           0
    2094 MEMB 26   POPC HY   HAL2   0.090000        1.0080           0
    2095 MEMB 26   POPC O31  OSL   -0.490000       15.9994           0
    2096 MEMB 26   POPC C31  CL     0.900000       12.0110           0
    2097 MEMB 26   POPC O32  OBL   -0.630000       15.9994           0
    2098 MEMB 26   POPC C32  CTL2  -0.220000       12.0110           0
    2099 MEMB 26   POPC H2X  HAL2   0.090000        1.0080           0
    2100 MEMB 26   POPC H2Y  HAL2   0.090000        1.0080           0
    2101 MEMB 26   POPC C23  CTL2  -0.180000       12.0110           0
    2102 MEMB 26   POPC H3R  HAL2   0.090000        1.0080           0
    2103 MEMB 26   POPC H3S  HAL2   0.090000        1.0080           0
    2104 MEMB 26   POPC C24  CTL2  -0.180000       12.0110           0
    2105 MEMB 26   POPC H4R  HAL2   0.090000        1.0080           0
    2106 MEMB 26   POPC H4S  HAL2   0.090000        1.0080           0
    2107 MEMB 26   POPC C25  CTL2  -0.180000       12.0110           0
    2108 MEMB 26   POPC H5R  HAL2   0.090000        1.0080           0
    2109 MEMB 26   POPC H5S  HAL2   0.090000        1.0080           0
    2110 MEMB 26   POPC C26  CTL3  -0.270000       12.0110           0
    2111 MEMB 26   POPC H6R  HAL3   0.090000        1.0080           0
    2112 MEMB 26   POPC H6S  HAL3   0.090000        1.0080           0
    2113 MEMB 26   POPC H6T  HAL3   0.090000        1.0080           0
    2114 MEMB 26   POPC C33  CTL2  -0.180000       12.0110           0
    2115 MEMB 26   POPC H3X  HAL2   0.090000        1.0080           0
    2116 MEMB 26   POPC H3Y  HAL2   0.090000        1.0080           0
    2117 MEMB 26   POPC C34  CTL2  -0.180000       12.0110           0
    2118 MEMB 26   POPC H4X  HAL2   0.090000        1.0080           0
    2119 MEMB 26   POPC H4Y  HAL2   0.090000        1.0080           0
    2120 MEMB 26   POPC C35  CTL2  -0.180000       12.0110           0
    2121 MEMB 26   POPC H5X  HAL2   0.090000        1.0080           0
    2122 MEMB 26   POPC H5Y  HAL2   0.090000        1.0080           0
    2123 MEMB 26   POPC C36  CTL3  -0.270000       12.0110           0
    2124 MEMB 26   POPC H6X  HAL3   0.090000        1.0080           0
    2125 MEMB 26   POPC H6Y  HAL3   0.090000        1.0080           0
    2126 MEMB 26   POPC H6Z  HAL3   0.090000        1.0080           0
    2127 MEMB 27   POPE N    NH3L  -0.300000       14.0070           0
    2128 MEMB 27   POPE HN1  HCL    0.330000        1.0080           0
    2129 MEMB 27   POPE HN2  HCL    0.330000        1.0080           0
    2130 MEMB 27   POPE HN3  HCL    0.330000        1.0080           0
    2131 MEMB 27   POPE C12  CTL2   0.130000       12.0110           0
    2132 MEMB 27   POPE H12A HAL2   0.090000        1.0080           0
    2133 MEMB 27   POPE H12B HAL2   0.090000        1.0080           0
    2134 MEMB 27   POPE C11  CTL2  -0.080000       12.0110           0
    2135 MEMB 27   POPE H11A HAL2   0.090000        1.0080           0
    2136 MEMB 27   POPE H11B HAL2   0.090000        1.0080           0
    2137 MEMB 27   POPE P    PL     1.500000       30.9740           0
    2138 MEMB 27   POPE O13  O2L   -0.780000       15.9994           0
    2139 MEMB 27   POPE O14  O2L   -0.780000       15.9994           0
    2140 MEMB 27   POPE O11  OSLP  -0.570000       15.9994           0
    2141 MEMB 27   POPE O12  OSLP  -0.570000       15.9994           0
    2142 MEMB 27   POPE C1   CTL2  -0.080000       12.0110           0
    2143 MEMB 27   POPE HA   HAL2   0.090000        1.0080           0
    2144 MEMB 27   POPE HB   HAL2   0.090000        1.0080           0
    2145 MEMB 27   POPE C2   CTL1   0.170000       12.0110           0
    2146 MEMB 27   POPE HS   HAL1   0.090000        1.0080           0
    2147 MEMB 27   POPE O21  OSL   -0.490000       15.9994           0
    2148 MEMB 27   POPE C21  CL     0.900000       12.0110           0
    2149 MEMB 27   POPE O22  OBL   -0.630000       15.9994           0
    2150 MEMB 27   POPE C22  CTL2  -0.220000       12.0110           0
    2151 MEMB 27   POPE H2R  HAL2   0.090000        1.0080           0
    2152 MEMB 27   POPE H2S  HAL2   0.090000        1.0080           0
    2153 MEMB 27   POPE C3   CTL2   0.080000       12.0110           0
    2154 MEMB 27   POPE HX   HAL2   0.090000        1.0080           0
    2155 MEMB 27   POPE HY   HAL2   0.090000        1.0080           0
    2156 MEMB 27   POPE O31  OSL   -0.490000       15.9994           0
    2157 MEMB 27   POPE C31  CL     0.900000       12.0110           0
    2158 MEMB 27   POPE O32  OBL   -0.630000       15.9994           0
    2159 MEMB 27   POPE C32  CTL2  -0.220000       12.0110           0
    2160 MEMB 27   POPE H2X  HAL2   0.090000        1.0080           0
    2161 MEMB 27   POPE H2Y  HAL2   0.090000        1.0080           0
    2162 MEMB 27   POPE C23  CTL2  -0.180000       12.0110           0
    2163 MEMB 27   POPE H3R  HAL2   0.090000        1.0080           0
    2164 MEMB 27   POPE H3S  HAL2   0.090000        1.0080           0
    2165 MEMB 27   POPE C24  CTL2  -0.180000       12.0110           0
    2166 MEMB 27   POPE H4R  HAL2   0.090000        1.0080           0
    2167 MEMB 27   POPE H4S  HAL2   0.090000        1.0080           0
    2168 MEMB 27   POPE C25  CTL2  -0.180000       12.0110           0
    2169 MEMB 27   POPE H5R  HAL2   0.090000        1.0080           0
    2170 MEMB 27   POPE H5S  HAL2   0.090000        1.0080           0
    2171 MEMB 27   POPE C26  CTL3  -0.270000       12.0110           0
    2172 MEMB 27   POPE H6R  HAL3   0.090000        1.0080           0
    2173 MEMB 27   POPE H6S  HAL3   0.090000        1.0080           0
    2174 MEMB 27   POPE H6T  HAL3   0.090000        1.0080           0
    2175 MEMB 27   POPE C33  CTL2  -0.180000       12.0110           0
    2176 MEMB 27   POPE H3X  HAL2   0.090000        1.0080           0
    2177 MEMB 27   POPE H3Y  HAL2   0.090000        1.0080           0
    2178 MEMB 27   POPE C34  CTL2  -0.180000       12.0110           0
    2179 MEMB 27   POPE H4X  HAL2   0.090000        1.0080           0
    2180 MEMB 27   POPE H4Y  HAL2   0.090000        1.0080           0
    2181 MEMB 27   POPE C35  CTL2  -0.180000       12.0110           0
    2182 MEMB 27   POPE H5X  HAL2   0.090000        1.0080           0
    2183 MEMB 27   POPE H5Y  HAL2   0.090000        1.0080           0
    2184 MEMB 27   POPE C36  CTL3  -0.270000       12.0110           0
    2185 MEMB 27   POPE H6X  HAL3   0.090000        1.0080           0
    2186 MEMB 27   POPE H6Y  HAL3   0.090000        1.0080           0
    2187 MEMB 27   POPE H6Z  HAL3   0.090000        1.0080           0
    2188 MEMB 28   POPS N    NH3L  -0.300000       14.0070           0
    2189 MEMB 28   POPS HN1  HCL    0.330000        1.0080           0
    2190 MEMB 28   POPS HN2  HCL    0.330000        1.0080           0
    2191 MEMB 28   POPS HN3  HCL    0.330000        1.0080           0
    2192 MEMB 28   POPS C12  CTL1   0.210000       12.0110           0
    2193 MEMB 28   POPS H12A HBL    0.100000        1.0080           0
    2194 MEMB 28   POPS C13  CCL    0.340000       12.0110           0
    2195 MEMB 28   POPS O13A OCL   -0.670000       15.9994           0
    2196 MEMB 28   POPS O13B OCL   -0.670000       15.9994           0
    2197 MEMB 28   POPS C11  CTL2  -0.080000       12.0110           0
    2198 MEMB 28   POPS H11A HAL2   0.090000        1.0080           0
    2199 MEMB 28   POPS H11B HAL2   0.090000        1.0080           0
    2200 MEMB 28   POPS P    PL     1.500000       30.9740           0
    2201 MEMB 28   POPS O13  O2L   -0.780000       15.9994           0
    2202 MEMB 28   POPS O14  O2L   -0.780000       15.9994           0
    2203 MEMB 28   POPS O12  OSLP  -0.570000       15.9994           0
    2204 MEMB 28   POPS O11  OSLP  -0.570000       15.9994           0
    2205 MEMB 28   POPS C1   CTL2  -0.080000       12.0110           0
    2206 MEMB 28   POPS HA   HAL2   0.090000        1.0080           0
    2207 MEMB 28   POPS HB   HAL2   0.090000        1.0080           0
    2208 MEMB 28   POPS C2   CTL1   0.170000       12.0110           0
    2209 MEMB 28   POPS HS   HAL1   0.090000        1.0080           0
    2210 MEMB 28   POPS O21  OSL   -0.490000       15.9994           0
    2211 MEMB 28   POPS C21  CL     0.900000       12.0110           0
    2212 MEMB 28   POPS O22  OBL   -0.630000       15.9994           0
    2213 MEMB 28   POPS C22  CTL2  -0.220000       12.0110           0
    2214 MEMB 28   POPS H2R  HAL2   0.090000        1.0080           0
    2215 MEMB 28   POPS H2S  HAL2   0.090000        1.0080           0
    2216 MEMB 28   POPS C3   CTL2   0.080000       12.0110           0
    2217 MEMB 28   POPS HX   HAL2   0.090000        1.0080           0
    2218 MEMB 28   POPS HY   HAL2   0.090000        1.0080           0
    2219 MEMB 28   POPS O31  OSL   -0.490000       15.9994           0
    2220 MEMB 28   POPS C31  CL     0.900000       12.0110           0
    2221 MEMB 28   POPS O32  OBL   -0.630000       15.9994           0
    2222 MEMB 28   POPS C32  CTL2  -0.220000       12.0110           0
    2223 MEMB 28   POPS H2X  HAL2   0.090000        1.0080           0
    2224 MEMB 28   POPS H2Y  HAL2   0.090000        1.0080           0
    2225 MEMB 28   POPS C23  CTL2  -0.180000       12.0110           0
    2226 MEMB 28   POPS H3R  HAL2   0.090000        1.0080           0
    2227 MEMB 28   POPS H3S  HAL2   0.090000        1.0080           0
    2228 MEMB 28   POPS C24  CTL2  -0.180000       12.0110           0
    2229 MEMB 28   POPS H4R  HAL2   0.090000        1.0080           0
    2230 MEMB 28   POPS H4S  HAL2   0.090000        1.0080           0
    2231 MEMB 28   POPS C25  CTL2  -0.180000       12.0110           0
    2232 MEMB 28   POPS H5R  HAL2   0.090000        1.0080           0
    2233 MEMB 28   POPS H5S  HAL2   0.090000        1.0080           0
    2234 MEMB 28   POPS C26  CTL3  -0.270000       12.0110           0
    2235 MEMB 28   POPS H6R  HAL3   0.090000        1.0080           0
    2236 MEMB 28   POPS H6S  HAL3   0.090000        1.0080           0
    2237 MEMB 28   POPS H6T  HAL3   0.090000        1.0080           0
    2238 MEMB 28   POPS C33  CTL2  -0.180000       12.0110           0
    2239 MEMB 28   POPS H3X  HAL2   0.090000        1.0080           0
    2240 MEMB 28   POPS H3Y  HAL2   0.090000        1.0080           0
    2241 MEMB 28   POPS C34  CTL2  -0.180000       12.0110           0
    2242 MEMB 28   POPS H4X  HAL2   0.090000        1.0080           0
    2243 MEMB 28   POPS H4Y  HAL2   0.090000        1.0080           0
    2244 MEMB 28   POPS C35  CTL2  -0.180000       12.0110           0
    2245 MEMB 28   POPS H5X  HAL2   0.090000        1.0080           0
    2246 MEMB 28   POPS H5Y  HAL2   0.090000        1.0080           0
    2247 MEMB 28   POPS C36  CTL3  -0.270000       12.0110           0
    2248 MEMB 28   POPS H6X  HAL3   0.090000        1.0080           0
    2249 MEMB 28   POPS H6Y  HAL3   0.090000        1.0080           0
    2250 MEMB 28   POPS H6Z  HAL3   0.090000        1.0080           0
    2251 MEMB 29   POPE N    NH3L  -0.300000       14.0070           0
    2252 MEMB 29   POPE HN1  HCL    0.330000        1.0080           0
    2253 MEMB 29   POPE HN2  HCL    0.330000        1.0080           0
    2254 MEMB 29   POPE HN3  HCL    0.330000        1.0080           0
    2255 MEMB 29   POPE C12  CTL2   0.130000       12.0110           0
    2256 MEMB 29   POPE H12A HAL2   0.090000        1.0080           0
    2257 MEMB 29   POPE H12B HAL2   0.090000        1.0080           0
    2258 MEMB 29   POPE C11  CTL2  -0.080000       12.0110           0
    2259 MEMB 29   POPE H11A HAL2   0.090000        1.0080           0
    2260 MEMB 29   POPE H11B HAL2   0.090000        1.0080           0
    2261 MEMB 29   POPE P    PL     1.500000       30.9740           0
    2262 MEMB 29   POPE O13  O2L   -0.780000       15.9994           0
    2263 MEMB 29   POPE O14  O2L   -0.780000       15.9994           0
    2264 MEMB 29   POPE O11  OSLP  -0.570000       15.9994           0
    2265 MEMB 29   POPE O12  OSLP  -0.570000       15.9994           0
    2266 MEMB 29   POPE C1   CTL2  -0.080000       12.0110           0
    2267 MEMB 29   POPE HA   HAL2   0.090000        1.0080           0
    2268 MEMB 29   POPE HB   HAL2   0.090000        1.0080           0
    2269 MEMB 29   POPE C2   CTL1   0.170000       12.0110           0
    2270 MEMB 29   POPE HS   HAL1   0.090000        1.0080           0
    2271 MEMB 29   POPE O21  OSL   -0.490000       15.9994           0
    2272 MEMB 29   POPE C21  CL     0.900000       12.0110           0
    2273 MEMB 29   POPE O22  OBL   -0.630000       15.9994           0
    2274 MEMB 29   POPE C22  CTL2  -0.220000       12.0110           0
    2275 MEMB 29   POPE H2R  HAL2   0.090000        1.0080           0
    2276 MEMB 29   POPE H2S  HAL2   0.090000        1.0080           0
    2277 MEMB 29   POPE C3   CTL2   0.080000       12.0110           0
    2278 MEMB 29   POPE HX   HAL2   0.090000        1.0080           0
    2279 MEMB 29   POPE HY   HAL2   0.090000        1.0080           0
    2280 MEMB 29   POPE O31  OSL   -0.490000       15.9994           0
    2281 MEMB 29   POPE C31  CL     0.900000       12.0110           0
    2282 MEMB 29   POPE O32  OBL   -0.630000       15.9994           0
    2283 MEMB 29   POPE C32  CTL2  -0.220000       12.0110           0
    2284 MEMB 29   POPE H2X  HAL2   0.090000        1.0080           0
    2285 MEMB 29   POPE H2Y  HAL2   0.090000        1.0080           0
    2286 MEMB 29   POPE C23  CTL2  -0.180000       12.0110           0
    2287 MEMB 29   POPE H3R  HAL2   0.090000        1.0080           0
    2288 MEMB 29   POPE H3S  HAL2   0.090000        1.0080           0
    2289 MEMB 29   POPE C24  CTL2  -0.180000       12.0110           0
    2290 MEMB 29   POPE H4R  HAL2   0.090000        1.0080           0
    2291 MEMB 29   POPE H4S  HAL2   0.090000        1.0080           0
    2292 MEMB 29   POPE C25  CTL2  -0.180000       12.0110           0
    2293 MEMB 29   POPE H5R  HAL2   0.090000        1.0080           0
    2294 MEMB 29   POPE H5S  HAL2   0.090000        1.0080           0
    2295 MEMB 29   POPE C26  CTL3  -0.270000       12.0110           0
    2296 MEMB 29   POPE H6R  HAL3   0.090000        1.0080           0
    2297 MEMB 29   POPE H6S  HAL3   0.090000        1.0080           0
    2298 MEMB 29   POPE H6T  HAL3   0.090000        1.0080           0
    2299 MEMB 29   POPE C33  CTL2  -0.180000       12.0110           0
    2300 MEMB 29   POPE H3X  HAL2   0.090000        1.0080           0
    2301 MEMB 29   POPE H3Y  HAL2   0.090000        1.0080           0
    2302 MEMB 29   POPE C34  CTL2  -0.180000       12.0110           0
    2303 MEMB 29   POPE H4X  HAL2   0.090000        1.0080           0
    2304 MEMB 29   POPE H4Y  HAL2   0.090000        1.0080           0
    2305 MEMB 29   POPE C35  CTL2  -0.180000       12.0110           0
    2306 MEMB 29   POPE H5X  HAL2   0.090000        1.0080           0
    2307 MEMB 29   POPE H5Y  HAL2   0.090000        1.0080           0
    2308 MEMB 29   POPE C36  CTL3  -0.270000       12.0110           0
    2309 MEMB 29   POPE H6X  HAL3   0.090000        1.0080           0
    2310 MEMB 29   POPE H6Y  HAL3   0.090000        1.0080           0
    2311 MEMB 29   POPE H6Z  HAL3   0.090000        1.0080           0
    2312 MEMB 30   POPS N    NH3L  -0.300000       14.0070           0
    2313 MEMB 30   POPS HN1  HCL    0.330000        1.0080           0
    2314 MEMB 30   POPS HN2  HCL    0.330000        1.0080           0
    2315 MEMB 30   POPS HN3  HCL    0.330000        1.0080           0
    2316 MEMB 30   POPS C12  CTL1   0.210000       12.0110           0
    2317 MEMB 30   POPS H12A HBL    0.100000        1.0080           0
    2318 MEMB 30   POPS C13  CCL    0.340000       12.0110           0
    2319 MEMB 30   POPS O13A OCL   -0.670000       15.9994           0
    2320 MEMB 30   POPS O13B OCL   -0.670000       15.9994           0
    2321 MEMB 30   POPS C11  CTL2  -0.080000       12.0110           0
    2322 MEMB 30   POPS H11A HAL2   0.090000        1.0080           0
    2323 MEMB 30   POPS H11B HAL2   0.090000        1.0080           0
    2324 MEMB 30   POPS P    PL     1.500000       30.9740           0
    2325 MEMB 30   POPS O13  O2L   -0.780000       15.9994           0
    2326 MEMB 30   POPS O14  O2L   -0.780000       15.9994           0
    2327 MEMB 30   POPS O12  OSLP  -0.570000       15.9994           0
    2328 MEMB 30   POPS O11  OSLP  -0.570000       15.9994           0
    2329 MEMB 30   POPS C1   CTL2  -0.080000       12.0110           0
    2330 MEMB 30   POPS HA   HAL2   0.090000        1.0080           0
    2331 MEMB 30   POPS HB   HAL2   0.090000        1.0080           0
    2332 MEMB 30   POPS C2   CTL1   0.170000       12.0110           0
    2333 MEMB 30   POPS HS   HAL1   0.090000        1.0080           0
    2334 MEMB 30   POPS O21  OSL   -0.490000       15.9994           0
    2335 MEMB 30   POPS C21  CL     0.900000       12.0110           0
    2336 MEMB 30   POPS O22  OBL   -0.630000       15.9994           0
    2337 MEMB 30   POPS C22  CTL2  -0.220000       12.0110           0
    2338 MEMB 30   POPS H2R  HAL2   0.090000        1.0080           0
    2339 MEMB 30   POPS H2S  HAL2   0.090000        1.0080           0
    2340 MEMB 30   POPS C3   CTL2   0.080000       12.0110           0
    2341 MEMB 30   POPS HX   HAL2   0.090000        1.0080           0
    2342 MEMB 30   POPS HY   HAL2   0.090000        1.0080           0
    2343 MEMB 30   POPS O31  OSL   -0.490000       15.9994           0
    2344 MEMB 30   POPS C31  CL     0.900000       12.0110           0
    2345 MEMB 30   POPS O32  OBL   -0.630000       15.9994           0
    2346 MEMB 30   POPS C32  CTL2  -0.220000       12.0110           0
    2347 MEMB 30   POPS H2X  HAL2   0.090000        1.0080           0
    2348 MEMB 30   POPS H2Y  HAL2   0.090000        1.0080           0
    2349 MEMB 30   POPS C23  CTL2  -0.180000       12.0110           0
    2350 MEMB 30   POPS H3R  HAL2   0.090000        1.0080           0
    2351 MEMB 30   POPS H3S  HAL2   0.090000        1.0080           0
    2352 MEMB 30   POPS C24  CTL2  -0.180000       12.0110           0
    2353 MEMB 30   POPS H4R  HAL2   0.090000        1.0080           0
    2354 MEMB 30   POPS H4S  HAL2   0.090000        1.0080           0
    2355 MEMB 30   POPS C25  CTL2  -0.180000       12.0110           0
    2356 MEMB 30   POPS H5R  HAL2   0.090000        1.0080           0
    2357 MEMB 30   POPS H5S  HAL2   0.090000        1.0080           0
    2358 MEMB 30   POPS C26  CTL3  -0.270000       12.0110           0
    2359 MEMB 30   POPS H6R  HAL3   0.090000        1.0080           0
    2360 MEMB 30   POPS H6S  HAL3   0.090000        1.0080           0
    2361 MEMB 30   POPS H6T  HAL3   0.090000        1.0080           0
    2362 MEMB 30   POPS C33  CTL2  -0.180000       12.0110           0
    2363 MEMB 30   POPS H3X  HAL2   0.090000        1.0080           0
    2364 MEMB 30   POPS H3Y  HAL2   0.090000        1.0080           0
    2365 MEMB 30   POPS C34  CTL2  -0.180000       12.0110           0
    2366 MEMB 30   POPS H4X  HAL2   0.090000        1.0080           0
    2367 MEMB 30   POPS H4Y  HAL2   0.090000        1.0080           0
    2368 MEMB 30   POPS C35  CTL2  -0.180000       12.0110           0
    2369 MEMB 30   POPS H5X  HAL2   0.090000        1.0080           0
    2370 MEMB 30   POPS H5Y  HAL2   0.090000        1.0080           0
    2371 MEMB 30   POPS C36  CTL3  -0.270000       12.0110           0
    2372 MEMB 30   POPS H6X  HAL3   0.090000        1.0080           0
    2373 MEMB 30   POPS H6Y  HAL3   0.090000        1.0080           0
    2374 MEMB 30   POPS H6Z  HAL3   0.090000        1.0080           0
    2375 MEMB 31   POPC N    NTL   -0.600000       14.0070           0
    2376 MEMB 31   POPC C12  CTL2  -0.100000       12.0110           0
    2377 MEMB 31   POPC H12A HL     0.250000        1.0080           0
    2378 MEMB 31   POPC H12B HL     0.250000        1.0080           0
    2379 MEMB 31   POPC C13  CTL5  -0.350000       12.0110           0
    2380 MEMB 31   POPC H13A HL     0.250000        1.0080           0
    2381 MEMB 31   POPC H13B HL     0.250000        1.0080           0
    2382 MEMB 31   POPC H13C HL     0.250000        1.0080           0
    2383 MEMB 31   POPC C14  CTL5  -0.350000       12.0110           0
    2384 MEMB 31   POPC H14A HL     0.250000        1.0080           0
    2385 MEMB 31   POPC H14B HL     0.250000        1.0080           0
    2386 MEMB 31   POPC H14C HL     0.250000        1.0080           0
    2387 MEMB 31   POPC C15  CTL5  -0.350000       12.0110           0
    2388 MEMB 31   POPC H15A HL     0.250000        1.0080           0
    2389 MEMB 31   POPC H15B HL     0.250000        1.0080           0
    2390 MEMB 31   POPC H15C HL     0.250000        1.0080           0
    2391 MEMB 31   POPC C11  CTL2  -0.080000       12.0110           0
    2392 MEMB 31   POPC H11A HAL2   0.090000        1.0080           0
    2393 MEMB 31   POPC H11B HAL2   0.090000        1.0080           0
    2394 MEMB 31   POPC P    PL     1.500000       30.9740           0
    2395 MEMB 31   POPC O13  O2L   -0.780000       15.9994           0
    2396 MEMB 31   POPC O14  O2L   -0.780000       15.9994           0
    2397 MEMB 31   POPC O12  OSLP  -0.570000       15.9994           0
    2398 MEMB 31   POPC O11  OSLP  -0.570000       15.9994           0
    2399 MEMB 31   POPC C1   CTL2  -0.080000       12.0110           0
    2400 MEMB 31   POPC HA   HAL2   0.090000        1.0080           0
    2401 MEMB 31   POPC HB   HAL2   0.090000        1.0080           0
    2402 MEMB 31   POPC C2   CTL1   0.170000       12.0110           0
    2403 MEMB 31   POPC HS   HAL1   0.090000        1.0080           0
    2404 MEMB 31   POPC O21  OSL   -0.490000       15.9994           0
    2405 MEMB 31   POPC C21  CL     0.900000       12.0110           0
    2406 MEMB 31   POPC O22  OBL   -0.630000       15.9994           0
    2407 MEMB 31   POPC C22  CTL2  -0.220000       12.0110           0
    2408 MEMB 31   POPC H2R  HAL2   0.090000        1.0080           0
    2409 MEMB 31   POPC H2S  HAL2   0.090000        1.0080           0
    2410 MEMB 31   POPC C3   CTL2   0.080000       12.0110           0
    2411 MEMB 31   POPC HX   HAL2   0.090000        1.0080           0
    2412 MEMB 31   POPC HY   HAL2   0.090000        1.0080           0
    2413 MEMB 31   POPC O31  OSL   -0.490000       15.9994           0
    2414 MEMB 31   POPC C31  CL     0.900000       12.0110           0
    2415 MEMB 31   POPC O32  OBL   -0.630000       15.9994           0
    2416 MEMB 31   POPC C32  CTL2  -0.220000       12.0110           0
    2417 MEMB 31   POPC H2X  HAL2   0.090000        1.0080           0
    2418 MEMB 31   POPC H2Y  HAL2   0.090000        1.0080           0
    2419 MEMB 31   POPC C23  CTL2  -0.180000       12.0110           0
    2420 MEMB 31   POPC H3R  HAL2   0.090000        1.0080           0
    2421 MEMB 31   POPC H3S  HAL2   0.090000        1.0080           0
    2422 MEMB 31   POPC C24  CTL2  -0.180000       12.0110           0
    2423 MEMB 31   POPC H4R  HAL2   0.090000        1.0080           0
    2424 MEMB 31   POPC H4S  HAL2   0.090000        1.0080           0
    2425 MEMB 31   POPC C25  CTL2  -0.180000       12.0110           0
    2426 MEMB 31   POPC H5R  HAL2   0.090000        1.0080           0
    2427 MEMB 31   POPC H5S  HAL2   0.090000        1.0080           0
    2428 MEMB 31   POPC C26  CTL3  -0.270000       12.0110           0
    2429 MEMB 31   POPC H6R  HAL3   0.090000        1.0080           0
    2430 MEMB 31   POPC H6S  HAL3   0.090000        1.0080           0
    2431 MEMB 31   POPC H6T  HAL3   0.090000        1.0080           0
    2432 MEMB 31   POPC C33  CTL2  -0.180000       12.0110           0
    2433 MEMB 31   POPC H3X  HAL2   0.090000        1.0080           0
    2434 MEMB 31   POPC H3Y  HAL2   0.090000        1.0080           0
    2435 MEMB 31   POPC C34  CTL2  -0.180000       12.0110           0
    2436 MEMB 31   POPC H4X  HAL2   0.090000        1.0080           0
    2437 MEMB 31   POPC H4Y  HAL2   0.090000        1.0080           0
    2438 MEMB 31   POPC C35  CTL2  -0.180000       12.0110           0
    2439 MEMB 31   POPC H5X  HAL2   0.090000        1.0080           0
    2440 MEMB 31   POPC H5Y  HAL2   0.090000        1.0080           0
    2441 MEMB 31   POPC C36  CTL3  -0.270000       12.0110           0
    2442 MEMB 31   POPC H6X  HAL3   0.090000        1.0080           0
    2443 MEMB 31   POPC H6Y  HAL3   0.090000        1.0080           0
    2444 MEMB 31   POPC H6Z  HAL3   0.090000        1.0080           0
    2445 MEMB 32   POPE N    NH3L  -0.300000       14.0070           0
    2446 MEMB 32   POPE HN1  HCL    0.330000        1.0080           0
    2447 MEMB 32   POPE HN2  HCL    0.330000        1.0080           0
    2448 MEMB 32   POPE HN3  HCL    0.330000        1.0080           0
    2449 MEMB 32   POPE C12  CTL2   0.130000       12.0110           0
    2450 MEMB 32   POPE H12A HAL2   0.090000        1.0080           0
    2451 MEMB 32   POPE H12B HAL2   0.090000        1.0080           0
    2452 MEMB 32   POPE C11  CTL2  -0.080000       12.0110           0
    2453 MEMB 32   POPE H11A HAL2   0.090000        1.0080           0
    2454 MEMB 32   POPE H11B HAL2   0.090000        1.0080           0
    2455 MEMB 32   POPE P    PL     1.500000       30.9740           0
    2456 MEMB 32   POPE O13  O2L   -0.780000       15.9994           0
    2457 MEMB 32   POPE O14  O2L   -0.780000       15.9994           0
    2458 MEMB 32   POPE O11  OSLP  -0.570000       15.9994           0
    2459 MEMB 32   POPE O12  OSLP  -0.570000       15.9994           0
    2460 MEMB 32   POPE C1   CTL2  -0.080000       12.0110           0
    2461 MEMB 32   POPE HA   HAL2   0.090000        1.0080           0
    2462 MEMB 32   POPE HB   HAL2   0.090000        1.0080           0
    2463 MEMB 32   POPE C2   CTL1   0.170000       12.0110           0
    2464 MEMB 32   POPE HS   HAL1   0.090000        1.0080           0
    2465 MEMB 32   POPE O21  OSL   -0.490000       15.9994           0
    2466 MEMB 32   POPE C21  CL     0.900000       12.0110           0
    2467 MEMB 32   POPE O22  OBL   -0.630000       15.9994           0
    2468 MEMB 32   POPE C22  CTL2  -0.220000       12.0110           0
    2469 MEMB 32   POPE H2R  HAL2   0.090000        1.0080           0
    2470 MEMB 32   POPE H2S  HAL2   0.090000        1.0080           0
    2471 MEMB 32   POPE C3   CTL2   0.080000       12.0110           0
    2472 MEMB 32   POPE HX   HAL2   0.090000        1.0080           0
    2473 MEMB 32   POPE HY   HAL2   0.090000        1.0080           0
    2474 MEMB 32   POPE O31  OSL   -0.490000       15.9994           0
    2475 MEMB 32   POPE C31  CL     0.900000       12.0110           0
    2476 MEMB 32   POPE O32  OBL   -0.630000       15.9994           0
    2477 MEMB 32   POPE C32  CTL2  -0.220000       12.0110           0
    2478 MEMB 32   POPE H2X  HAL2   0.090000        1.0080           0
    2479 MEMB 32   POPE H2Y  HAL2   0.090000        1.0080           0
    2480 MEMB 32   POPE C23  CTL2  -0.180000       12.0110           0
    2481 MEMB 32   POPE H3R  HAL2   0.090000        1.0080           0
    2482 MEMB 32   POPE H3S  HAL2   0.090000        1.0080           0
    2483 MEMB 32   POPE C24  CTL2  -0.180000       12.0110           0
    2484 MEMB 32   POPE H4R  HAL2   0.090000        1.0080           0
    2485 MEMB 32   POPE H4S  HAL2   0.090000        1.0080           0
    2486 MEMB 32   POPE C25  CTL2  -0.180000       12.0110           0
    2487 MEMB 32   POPE H5R  HAL2   0.090000        1.0080           0
    2488 MEMB 32   POPE H5S  HAL2   0.090000        1.0080           0
    2489 MEMB 32   POPE C26  CTL3  -0.270000       12.0110           0
    2490 MEMB 32   POPE H6R  HAL3   0.090000        1.0080           0
    2491 MEMB 32   POPE H6S  HAL3   0.090000        1.0080           0
    2492 MEMB 32   POPE H6T  HAL3   0.090000        1.0080           0
    2493 MEMB 32   POPE C33  CTL2  -0.180000       12.0110           0
    2494 MEMB 32   POPE H3X  HAL2   0.090000        1.0080           0
    2495 MEMB 32   POPE H3Y  HAL2   0.090000        1.0080           0
    2496 MEMB 32   POPE C34  CTL2  -0.180000       12.0110           0
    2497 MEMB 32   POPE H4X  HAL2   0.090000        1.0080           0
    2498 MEMB 32   POPE H4Y  HAL2   0.090000        1.0080           0
    2499 MEMB 32   POPE C35  CTL2  -0.180000       12.0110           0
    2500 MEMB 32   POPE H5X  HAL2   0.090000        1.0080           0
    2501 MEMB 32   POPE H5Y  HAL2   0.090000        1.0080           0
    2502 MEMB 32   POPE C36  CTL3  -0.270000       12.0110           0
    2503 MEMB 32   POPE H6X  HAL3   0.090000        1.0080           0
    2504 MEMB 32   POPE H6Y  HAL3   0.090000        1.0080           0
    2505 MEMB 32   POPE H6Z  HAL3   0.090000        1.0080           0
    2506 MEMB 33   POPC N    NTL   -0.600000       14.0070           0
    2507 MEMB 33   POPC C12  CTL2  -0.100000       12.0110           0
    2508 MEMB 33   POPC H12A HL     0.250000        1.0080           0
    2509 MEMB 33   POPC H12B HL     0.250000        1.0080           0
    2510 MEMB 33   POPC C13  CTL5  -0.350000       12.0110           0
    2511 MEMB 33   POPC H13A HL     0.250000        1.0080           0
    2512 MEMB 33   POPC H13B HL     0.250000        1.0080           0
    2513 MEMB 33   POPC H13C HL     0.250000        1.0080           0
    2514 MEMB 33   POPC C14  CTL5  -0.350000       12.0110           0
    2515 MEMB 33   POPC H14A HL     0.250000        1.0080           0
    2516 MEMB 33   POPC H14B HL     0.250000        1.0080           0
    2517 MEMB 33   POPC H14C HL     0.250000        1.0080           0
    2518 MEMB 33   POPC C15  CTL5  -0.350000       12.0110           0
    2519 MEMB 33   POPC H15A HL     0.250000        1.0080           0
    2520 MEMB 33   POPC H15B HL     0.250000        1.0080           0
    2521 MEMB 33   POPC H15C HL     0.250000        1.0080           0
    2522 MEMB 33   POPC C11  CTL2  -0.080000       12.0110           0
    2523 MEMB 33   POPC H11A HAL2   0.090000        1.0080           0
    2524 MEMB 33   POPC H11B HAL2   0.090000        1.0080           0
    2525 MEMB 33   POPC P    PL     1.500000       30.9740           0
    2526 MEMB 33   POPC O13  O2L   -0.780000       15.9994           0
    2527 MEMB 33   POPC O14  O2L   -0.780000       15.9994           0
    2528 MEMB 33   POPC O12  OSLP  -0.570000       15.9994           0
    2529 MEMB 33   POPC O11  OSLP  -0.570000       15.9994           0
    2530 MEMB 33   POPC C1   CTL2  -0.080000       12.0110           0
    2531 MEMB 33   POPC HA   HAL2   0.090000        1.0080           0
    2532 MEMB 33   POPC HB   HAL2   0.090000        1.0080           0
    2533 MEMB 33   POPC C2   CTL1   0.170000       12.0110           0
    2534 MEMB 33   POPC HS   HAL1   0.090000        1.0080           0
    2535 MEMB 33   POPC O21  OSL   -0.490000       15.9994           0
    2536 MEMB 33   POPC C21  CL     0.900000       12.0110           0
    2537 MEMB 33   POPC O22  OBL   -0.630000       15.9994           0
    2538 MEMB 33   POPC C22  CTL2  -0.220000       12.0110           0
    2539 MEMB 33   POPC H2R  HAL2   0.090000        1.0080           0
    2540 MEMB 33   POPC H2S  HAL2   0.090000        1.0080           0
    2541 MEMB 33   POPC C3   CTL2   0.080000       12.0110           0
    2542 MEMB 33   POPC HX   HAL2   0.090000        1.0080           0
    2543 MEMB 33   POPC HY   HAL2   0.090000        1.0080           0
    2544 MEMB 33   POPC O31  OSL   -0.490000       15.9994           0
    2545 MEMB 33   POPC C31  CL     0.900000       12.0110           0
    2546 MEMB 33   POPC O32  OBL   -0.630000       15.9994           0
    2547 MEMB 33   POPC C32  CTL2  -0.220000       12.0110           0
    2548 MEMB 33   POPC H2X  HAL2   0.090000        1.0080           0
    2549 MEMB 33   POPC H2Y  HAL2   0.090000        1.0080           0
    2550 MEMB 33   POPC C23  CTL2  -0.180000       12.0110           0
    2551 MEMB 33   POPC H3R  HAL2   0.090000        1.0080           0
    2552 MEMB 33   POPC H3S  HAL2   0.090000        1.0080           0
    2553 MEMB 33   POPC C24  CTL2  -0.180000       12.0110           0
    2554 MEMB 33   POPC H4R  HAL2   0.090000        1.0080           0
    2555 MEMB 33   POPC H4S  HAL2   0.090000        1.0080           0
    2556 MEMB 33   POPC C25  CTL2  -0.180000       12.0110           0
    2557 MEMB 33   POPC H5R  HAL2   0.090000        1.0080           0
    2558 MEMB 33   POPC H5S  HAL2   0.090000        1.0080           0
    2559 MEMB 33   POPC C26  CTL3  -0.270000       12.0110           0
    2560 MEMB 33   POPC H6R  HAL3   0.090000        1.0080           0
    2561 MEMB 33   POPC H6S  HAL3   0.090000        1.0080           0
    2562 MEMB 33   POPC H6T  HAL3   0.090000        1.0080           0
    2563 MEMB 33   POPC C33  CTL2  -0.180000       12.0110           0
    2564 MEMB 33   POPC H3X  HAL2   0.090000        1.0080           0
    2565 MEMB 33   POPC H3Y  HAL2   0.090000        1.0080           0
    2566 MEMB 33   POPC C34  CTL2  -0.180000       12.0110           0
    2567 MEMB 33   POPC H4X  HAL2   0.090000        1.0080           0
    2568 MEMB 33   POPC H4Y  HAL2   0.090000        1.0080           0
    2569 MEMB 33   POPC C35  CTL2  -0.180000       12.0110           0
    2570 MEMB 33   POPC H5X  HAL2   0.090000        1.0080           0
    2571 MEMB 33   POPC H5Y  HAL2   0.090000        1.0080           0
    2572 MEMB 33   POPC C36  CTL3  -0.270000       12.0110           0
    2573 MEMB 33   POPC H6X  HAL3   0.090000        1.0080           0
    2574 MEMB 33   POPC H6Y  HAL3   0.090000        1.0080           0
    2575 MEMB 33   POPC H6Z  HAL3   0.090000        1.0080           0
    2576 MEMB 34   POPS N    NH3L  -0.300000       14.0070           0
    2577 MEMB 34   POPS HN1  HCL    0.330000        1.0080           0
    2578 MEMB 34   POPS HN2  HCL    0.330000        1.0080           0
    2579 MEMB 34   POPS HN3  HCL    0.330000        1.0080           0
    2580 MEMB 34   POPS C12  CTL1   0.210000       12.0110           0
    2581 MEMB 34   POPS H12A HBL    0.100000        1.0080           0
    2582 MEMB 34   POPS C13  CCL    0.340000       12.0110           0
    2583 MEMB 34   POPS O13A OCL   -0.670000       15.9994           0
    2584 MEMB 34   POPS O13B OCL   -0.670000       15.9994           0
    2585 MEMB 34   POPS C11  CTL2  -0.080000       12.0110           0
    2586 MEMB 34   POPS H11A HAL2   0.090000        1.0080           0
    2587 MEMB 34   POPS H11B HAL2   0.090000        1.0080           0
    2588 MEMB 34   POPS P    PL     1.500000       30.9740           0
    2589 MEMB 34   POPS O13  O2L   -0.780000       15.9994           0
    2590 MEMB 34   POPS O14  O2L   -0.780000       15.9994           0
    2591 MEMB 34   POPS O12  OSLP  -0.570000       15.9994           0
    2592 MEMB 34   POPS O11  OSLP  -0.570000       15.9994           0
    2593 MEMB 34   POPS C1   CTL2  -0.080000       12.0110           0
    2594 MEMB 34   POPS HA   HAL2   0.090000        1.0080           0
    2595 MEMB 34   POPS HB   HAL2   0.090000        1.0080           0
    2596 MEMB 34   POPS C2   CTL1   0.170000       12.0110           0
    2597 MEMB 34   POPS HS   HAL1   0.090000        1.0080           0
    2598 MEMB 34   POPS O21  OSL   -0.490000       15.9994           0
    2599 MEMB 34   POPS C21  CL     0.900000       12.0110           0
    2600 MEMB 34   POPS O22  OBL   -0.630000       15.9994           0
    2601 MEMB 34   POPS C22  CTL2  -0.220000       12.0110           0
    2602 MEMB 34   POPS H2R  HAL2   0.090000        1.0080           0
    2603 MEMB 34   POPS H2S  HAL2   0.090000        1.0080           0
    2604 MEMB 34   POPS C3   CTL2   0.080000       12.0110           0
    2605 MEMB 34   POPS HX   HAL2   0.090000        1.0080           0
    2606 MEMB 34   POPS HY   HAL2   0.090000        1.0080           0
    2607 MEMB 34   POPS O31  OSL   -0.490000       15.9994           0
    2608 MEMB 34   POPS C31  CL     0.900000       12.0110           0
    2609 MEMB 34   POPS O32  OBL   -0.630000       15.9994           0
    2610 MEMB 34   POPS C32  CTL2  -0.220000       12.0110           0
    2611 MEMB 34   POPS H2X  HAL2   0.090000        1.0080           0
    2612 MEMB 34   POPS H2Y  HAL2   0.090000        1.0080           0
    2613 MEMB 34   POPS C23  CTL2  -0.180000       12.0110           0
    2614 MEMB 34   POPS H3R  HAL2   0.090000        1.0080           0
    2615 MEMB 34   POPS H3S  HAL2   0.090000        1.0080           0
    2616 MEMB 34   POPS C24  CTL2  -0.180000       12.0110           0
    2617 MEMB 34   POPS H4R  HAL2   0.090000        1.0080           0
    2618 MEMB 34   POPS H4S  HAL2   0.090000        1.0080           0
    2619 MEMB 34   POPS C25  CTL2  -0.180000       12.0110           0
    2620 MEMB 34   POPS H5R  HAL2   0.090000        1.0080           0
    2621 MEMB 34   POPS H5S  HAL2   0.090000        1.0080           0
    2622 MEMB 34   POPS C26  CTL3  -0.270000       12.0110           0
    2623 MEMB 34   POPS H6R  HAL3   0.090000        1.0080           0
    2624 MEMB 34   POPS H6S  HAL3   0.090000        1.0080           0
    2625 MEMB 34   POPS H6T  HAL3   0.090000        1.0080           0
    2626 MEMB 34   POPS C33  CTL2  -0.180000       12.0110           0
    2627 MEMB 34   POPS H3X  HAL2   0.090000        1.0080           0
    2628 MEMB 34   POPS H3Y  HAL2   0.090000        1.0080           0
    2629 MEMB 34   POPS C34  CTL2  -0.180000       12.0110           0
    2630 MEMB 34   POPS H4X  HAL2   0.090000        1.0080           0
    2631 MEMB 34   POPS H4Y  HAL2   0.090000        1.0080           0
    2632 MEMB 34   POPS C35  CTL2  -0.180000       12.0110           0
    2633 MEMB 34   POPS H5X  HAL2   0.090000        1.0080           0
    2634 MEMB 34   POPS H5Y  HAL2   0.090000        1.0080           0
    2635 MEMB 34   POPS C36  CTL3  -0.270000       12.0110           0
    2636 MEMB 34   POPS H6X  HAL3   0.090000        1.0080           0
    2637 MEMB 34   POPS H6Y  HAL3   0.090000        1.0080           0
    2638 MEMB 34   POPS H6Z  HAL3   0.090000        1.0080           0
    2639 MEMB 35   PSM  N    NTL   -0.600000       14.0070           0
    2640 MEMB 35   PSM  C15  CTL5  -0.350000       12.0110           0
    2641 MEMB 35   PSM  H15A HL     0.250000        1.0080           0
    2642 MEMB 35   PSM  H15B HL     0.250000        1.0080           0
    2643 MEMB 35   PSM  H15C HL     0.250000        1.0080           0
    2644 MEMB 35   PSM  C14  CTL5  -0.350000       12.0110           0
    2645 MEMB 35   PSM  H14A HL     0.250000        1.0080           0
    2646 MEMB 35   PSM  H14B HL     0.250000        1.0080           0
    2647 MEMB 35   PSM  H14C HL     0.250000        1.0080           0
    2648 MEMB 35   PSM  C13  CTL5  -0.350000       12.0110           0
    2649 MEMB 35   PSM  H13A HL     0.250000        1.0080           0
    2650 MEMB 35   PSM  H13B HL     0.250000        1.0080           0
    2651 MEMB 35   PSM  H13C HL     0.250000        1.0080           0
    2652 MEMB 35   PSM  C12  CTL2  -0.100000       12.0110           0
    2653 MEMB 35   PSM  H12A HL     0.250000        1.0080           0
    2654 MEMB 35   PSM  H12B HL     0.250000        1.0080           0
    2655 MEMB 35   PSM  C11  CTL2  -0.080000       12.0110           0
    2656 MEMB 35   PSM  H11A HAL2   0.090000        1.0080           0
    2657 MEMB 35   PSM  H11B HAL2   0.090000        1.0080           0
    2658 MEMB 35   PSM  P    PL     1.500000       30.9740           0
    2659 MEMB 35   PSM  O13  O2L   -0.780000       15.9994           0
    2660 MEMB 35   PSM  O14  O2L   -0.780000       15.9994           0
    2661 MEMB 35   PSM  O11  OSLP  -0.570000       15.9994           0
    2662 MEMB 35   PSM  O12  OSLP  -0.570000       15.9994           0
    2663 MEMB 35   PSM  C1S  CTL2  -0.080000       12.0110           0
    2664 MEMB 35   PSM  H1S  HAL2   0.090000        1.0080           0
    2665 MEMB 35   PSM  H1T  HAL2   0.090000        1.0080           0
    2666 MEMB 35   PSM  NF   NHL   -0.700000       14.0070           0
    2667 MEMB 35   PSM  HNF  H      0.350000        1.0080           0
    2668 MEMB 35   PSM  C2S  CTL1   0.300000       12.0110           0
    2669 MEMB 35   PSM  H2S  HAL1   0.050000        1.0080           0
    2670 MEMB 35   PSM  C3S  CTO1   0.500000       12.0110           0
    2671 MEMB 35   PSM  H3S  HAL1  -0.110000        1.0080           0
    2672 MEMB 35   PSM  O3   OHL   -0.690000       15.9994           0
    2673 MEMB 35   PSM  HO3  HOL    0.300000        1.0080           0
    2674 MEMB 35   PSM  C4S  CEL3  -0.150000       12.0110           0
    2675 MEMB 35   PSM  H4S  HEL1   0.150000        1.0080           0
    2676 MEMB 35   PSM  C5S  CEL3  -0.150000       12.0110           0
    2677 MEMB 35   PSM  H5S  HEL1   0.150000        1.0080           0
    2678 MEMB 35   PSM  C6S  CTL3  -0.270000       12.0110           0
    2679 MEMB 35   PSM  H6S  HAL3   0.090000        1.0080           0
    2680 MEMB 35   PSM  H6T  HAL3   0.090000        1.0080           0
    2681 MEMB 35   PSM  H6U  HAL3   0.090000        1.0080           0
    2682 MEMB 35   PSM  C1F  C      0.550000       12.0110           0
    2683 MEMB 35   PSM  OF   O     -0.600000       15.9994           0
    2684 MEMB 35   PSM  C2F  CTL2  -0.070000       12.0110           0
    2685 MEMB 35   PSM  H2F  HAL2   0.060000        1.0080           0
    2686 MEMB 35   PSM  H2G  HAL2   0.060000        1.0080           0
    2687 MEMB 35   PSM  C3F  CTL2  -0.180000       12.0110           0
    2688 MEMB 35   PSM  H3F  HAL2   0.090000        1.0080           0
    2689 MEMB 35   PSM  H3G  HAL2   0.090000        1.0080           0
    2690 MEMB 35   PSM  C4F  CTL2  -0.180000       12.0110           0
    2691 MEMB 35   PSM  H4F  HAL2   0.090000        1.0080           0
    2692 MEMB 35   PSM  H4G  HAL2   0.090000        1.0080           0
    2693 MEMB 35   PSM  C5F  CTL2  -0.180000       12.0110           0
    2694 MEMB 35   PSM  H5F  HAL2   0.090000        1.0080           0
    2695 MEMB 35   PSM  H5G  HAL2   0.090000        1.0080           0
    2696 MEMB 35   PSM  C6F  CTL3  -0.270000       12.0110           0
    2697 MEMB 35   PSM  H6F  HAL3   0.090000        1.0080           0
    2698 MEMB 35   PSM  H6G  HAL3   0.090000        1.0080           0
    2699 MEMB 35   PSM  H6H  HAL3   0.090000        1.0080           0
    2700 MEMB 36   POPC N    NTL   -0.600000       14.0070           0
    2701 MEMB 36   POPC C12  CTL2  -0.100000       12.0110           0
    2702 MEMB 36   POPC H12A HL     0.250000        1.0080           0
    2703 MEMB 36   POPC H12B HL     0.250000        1.0080           0
    2704 MEMB 36   POPC C13  CTL5  -0.350000       12.0110           0
    2705 MEMB 36   POPC H13A HL     0.250000        1.0080           0
    2706 MEMB 36   POPC H13B HL     0.250000        1.0080           0
    2707 MEMB 36   POPC H13C HL     0.250000        1.0080           0
    2708 MEMB 36   POPC C14  CTL5  -0.350000       12.0110           0
    2709 MEMB 36   POPC H14A HL     0.250000        1.0080           0
    2710 MEMB 36   POPC H14B HL     0.250000        1.0080           0
    2711 MEMB 36   POPC H14C HL     0.250000        1.0080           0
    2712 MEMB 36   POPC C15  CTL5  -0.350000       12.0110           0
    2713 MEMB 36   POPC H15A HL     0.250000        1.0080           0
    2714 MEMB 36   POPC H15B HL     0.250000        1.0080           0
    2715 MEMB 36   POPC H15C HL     0.250000        1.0080           0
    2716 MEMB 36   POPC C11  CTL2  -0.080000       12.0110           0
    2717 MEMB 36   POPC H11A HAL2   0.090000        1.0080           0
    2718 MEMB 36   POPC H11B HAL2   0.090000        1.0080           0
    2719 MEMB 36   POPC P    PL     1.500000       30.9740           0
    2720 MEMB 36   POPC O13  O2L   -0.780000       15.9994           0
    2721 MEMB 36   POPC O14  O2L   -0.780000       15.9994           0
    2722 MEMB 36   POPC O12  OSLP  -0.570000       15.9994           0
    2723 MEMB 36   POPC O11  OSLP  -0.570000       15.9994           0
    2724 MEMB 36   POPC C1   CTL2  -0.080000       12.0110           0
    2725 MEMB 36   POPC HA   HAL2   0.090000        1.0080           0
    2726 MEMB 36   POPC HB   HAL2   0.090000        1.0080           0
    2727 MEMB 36   POPC C2   CTL1   0.170000       12.0110           0
    2728 MEMB 36   POPC HS   HAL1   0.090000        1.0080           0
    2729 MEMB 36   POPC O21  OSL   -0.490000       15.9994           0
    2730 MEMB 36   POPC C21  CL     0.900000       12.0110           0
    2731 MEMB 36   POPC O22  OBL   -0.630000       15.9994           0
    2732 MEMB 36   POPC C22  CTL2  -0.220000       12.0110           0
    2733 MEMB 36   POPC H2R  HAL2   0.090000        1.0080           0
    2734 MEMB 36   POPC H2S  HAL2   0.090000        1.0080           0
    2735 MEMB 36   POPC C3   CTL2   0.080000       12.0110           0
    2736 MEMB 36   POPC HX   HAL2   0.090000        1.0080           0
    2737 MEMB 36   POPC HY   HAL2   0.090000        1.0080           0
    2738 MEMB 36   POPC O31  OSL   -0.490000       15.9994           0
    2739 MEMB 36   POPC C31  CL     0.900000       12.0110           0
    2740 MEMB 36   POPC O32  OBL   -0.630000       15.9994           0
    2741 MEMB 36   POPC C32  CTL2  -0.220000       12.0110           0
    2742 MEMB 36   POPC H2X  HAL2   0.090000        1.0080           0
    2743 MEMB 36   POPC H2Y  HAL2   0.090000        1.0080           0
    2744 MEMB 36   POPC C23  CTL2  -0.180000       12.0110           0
    2745 MEMB 36   POPC H3R  HAL2   0.090000        1.0080           0
    2746 MEMB 36   POPC H3S  HAL2   0.090000        1.0080           0
    2747 MEMB 36   POPC C24  CTL2  -0.180000       12.0110           0
    2748 MEMB 36   POPC H4R  HAL2   0.090000        1.0080           0
    2749 MEMB 36   POPC H4S  HAL2   0.090000        1.0080           0
    2750 MEMB 36   POPC C25  CTL2  -0.180000       12.0110           0
    2751 MEMB 36   POPC H5R  HAL2   0.090000        1.0080           0
    2752 MEMB 36   POPC H5S  HAL2   0.090000        1.0080           0
    2753 MEMB 36   POPC C26  CTL3  -0.270000       12.0110           0
    2754 MEMB 36   POPC H6R  HAL3   0.090000        1.0080           0
    2755 MEMB 36   POPC H6S  HAL3   0.090000        1.0080           0
    2756 MEMB 36   POPC H6T  HAL3   0.090000        1.0080           0
    2757 MEMB 36   POPC C33  CTL2  -0.180000       12.0110           0
    2758 MEMB 36   POPC H3X  HAL2   0.090000        1.0080           0
    2759 MEMB 36   POPC H3Y  HAL2   0.090000        1.0080           0
    2760 MEMB 36   POPC C34  CTL2  -0.180000       12.0110           0
    2761 MEMB 36   POPC H4X  HAL2   0.090000        1.0080           0
    2762 MEMB 36   POPC H4Y  HAL2   0.090000        1.0080           0
    2763 MEMB 36   POPC C35  CTL2  -0.180000       12.0110           0
    2764 MEMB 36   POPC H5X  HAL2   0.090000        1.0080           0
    2765 MEMB 36   POPC H5Y  HAL2   0.090000        1.0080           0
    2766 MEMB 36   POPC C36  CTL3  -0.270000       12.0110           0
    2767 MEMB 36   POPC H6X  HAL3   0.090000        1.0080           0
    2768 MEMB 36   POPC H6Y  HAL3   0.090000        1.0080           0
    2769 MEMB 36   POPC H6Z  HAL3   0.090000        1.0080           0
    2770 MEMB 37   POPS N    NH3L  -0.300000       14.0070           0
    2771 MEMB 37   POPS HN1  HCL    0.330000        1.0080           0
    2772 MEMB 37   POPS HN2  HCL    0.330000        1.0080           0
    2773 MEMB 37   POPS HN3  HCL    0.330000        1.0080           0
    2774 MEMB 37   POPS C12  CTL1   0.210000       12.0110           0
    2775 MEMB 37   POPS H12A HBL    0.100000        1.0080           0
    2776 MEMB 37   POPS C13  CCL    0.340000       12.0110           0
    2777 MEMB 37   POPS O13A OCL   -0.670000       15.9994           0
    2778 MEMB 37   POPS O13B OCL   -0.670000       15.9994           0
    2779 MEMB 37   POPS C11  CTL2  -0.080000       12.0110           0
    2780 MEMB 37   POPS H11A HAL2   0.090000        1.0080           0
    2781 MEMB 37   POPS H11B HAL2   0.090000        1.0080           0
    2782 MEMB 37   POPS P    PL     1.500000       30.9740           0
    2783 MEMB 37   POPS O13  O2L   -0.780000       15.9994           0
    2784 MEMB 37   POPS O14  O2L   -0.780000       15.9994           0
    2785 MEMB 37   POPS O12  OSLP  -0.570000       15.9994           0
    2786 MEMB 37   POPS O11  OSLP  -0.570000       15.9994           0
    2787 MEMB 37   POPS C1   CTL2  -0.080000       12.0110           0
    2788 MEMB 37   POPS HA   HAL2   0.090000        1.0080           0
    2789 MEMB 37   POPS HB   HAL2   0.090000        1.0080           0
    2790 MEMB 37   POPS C2   CTL1   0.170000       12.0110           0
    2791 MEMB 37   POPS HS   HAL1   0.090000        1.0080           0
    2792 MEMB 37   POPS O21  OSL   -0.490000       15.9994           0
    2793 MEMB 37   POPS C21  CL     0.900000       12.0110           0
    2794 MEMB 37   POPS O22  OBL   -0.630000       15.9994           0
    2795 MEMB 37   POPS C22  CTL2  -0.220000       12.0110           0
    2796 MEMB 37   POPS H2R  HAL2   0.090000        1.0080           0
    2797 MEMB 37   POPS H2S  HAL2   0.090000        1.0080           0
    2798 MEMB 37   POPS C3   CTL2   0.080000       12.0110           0
    2799 MEMB 37   POPS HX   HAL2   0.090000        1.0080           0
    2800 MEMB 37   POPS HY   HAL2   0.090000        1.0080           0
    2801 MEMB 37   POPS O31  OSL   -0.490000       15.9994           0
    2802 MEMB 37   POPS C31  CL     0.900000       12.0110           0
    2803 MEMB 37   POPS O32  OBL   -0.630000       15.9994           0
    2804 MEMB 37   POPS C32  CTL2  -0.220000       12.0110           0
    2805 MEMB 37   POPS H2X  HAL2   0.090000        1.0080           0
    2806 MEMB 37   POPS H2Y  HAL2   0.090000        1.0080           0
    2807 MEMB 37   POPS C23  CTL2  -0.180000       12.0110           0
    2808 MEMB 37   POPS H3R  HAL2   0.090000        1.0080           0
    2809 MEMB 37   POPS H3S  HAL2   0.090000        1.0080           0
    2810 MEMB 37   POPS C24  CTL2  -0.180000       12.0110           0
    2811 MEMB 37   POPS H4R  HAL2   0.090000        1.0080           0
    2812 MEMB 37   POPS H4S  HAL2   0.090000        1.0080           0
    2813 MEMB 37   POPS C25  CTL2  -0.180000       12.0110           0
    2814 MEMB 37   POPS H5R  HAL2   0.090000        1.0080           0
    2815 MEMB 37   POPS H5S  HAL2   0.090000        1.0080           0
    2816 MEMB 37   POPS C26  CTL3  -0.270000       12.0110           0
    2817 MEMB 37   POPS H6R  HAL3   0.090000        1.0080           0
    2818 MEMB 37   POPS H6S  HAL3   0.090000        1.0080           0
    2819 MEMB 37   POPS H6T  HAL3   0.090000        1.0080           0
    2820 MEMB 37   POPS C33  CTL2  -0.180000       12.0110           0
    2821 MEMB 37   POPS H3X  HAL2   0.090000        1.0080           0
    2822 MEMB 37   POPS H3Y  HAL2   0.090000        1.0080           0
    2823 MEMB 37   POPS C34  CTL2  -0.180000       12.0110           0
    2824 MEMB 37   POPS H4X  HAL2   0.090000        1.0080           0
    2825 MEMB 37   POPS H4Y  HAL2   0.090000        1.0080           0
    2826 MEMB 37   POPS C35  CTL2  -0.180000       12.0110           0
    2827 MEMB 37   POPS H5X  HAL2   0.090000        1.0080           0
    2828 MEMB 37   POPS H5Y  HAL2   0.090000        1.0080           0
    2829 MEMB 37   POPS C36  CTL3  -0.270000       12.0110           0
    2830 MEMB 37   POPS H6X  HAL3   0.090000        1.0080           0
    2831 MEMB 37   POPS H6Y  HAL3   0.090000        1.0080           0
    2832 MEMB 37   POPS H6Z  HAL3   0.090000        1.0080           0
    2833 MEMB 38   PSM  N    NTL   -0.600000       14.0070           0
    2834 MEMB 38   PSM  C15  CTL5  -0.350000       12.0110           0
    2835 MEMB 38   PSM  H15A HL     0.250000        1.0080           0
    2836 MEMB 38   PSM  H15B HL     0.250000        1.0080           0
    2837 MEMB 38   PSM  H15C HL     0.250000        1.0080           0
    2838 MEMB 38   PSM  C14  CTL5  -0.350000       12.0110           0
    2839 MEMB 38   PSM  H14A HL     0.250000        1.0080           0
    2840 MEMB 38   PSM  H14B HL     0.250000        1.0080           0
    2841 MEMB 38   PSM  H14C HL     0.250000        1.0080           0
    2842 MEMB 38   PSM  C13  CTL5  -0.350000       12.0110           0
    2843 MEMB 38   PSM  H13A HL     0.250000        1.0080           0
    2844 MEMB 38   PSM  H13B HL     0.250000        1.0080           0
    2845 MEMB 38   PSM  H13C HL     0.250000        1.0080           0
    2846 MEMB 38   PSM  C12  CTL2  -0.100000       12.0110           0
    2847 MEMB 38   PSM  H12A HL     0.250000        1.0080           0
    2848 MEMB 38   PSM  H12B HL     0.250000        1.0080           0
    2849 MEMB 38   PSM  C11  CTL2  -0.080000       12.0110           0
    2850 MEMB 38   PSM  H11A HAL2   0.090000        1.0080           0
    2851 MEMB 38   PSM  H11B HAL2   0.090000        1.0080           0
    2852 MEMB 38   PSM  P    PL     1.500000       30.9740           0
    2853 MEMB 38   PSM  O13  O2L   -0.780000       15.9994           0
    2854 MEMB 38   PSM  O14  O2L   -0.780000       15.9994           0
    2855 MEMB 38   PSM  O11  OSLP  -0.570000       15.9994           0
    2856 MEMB 38   PSM  O12  OSLP  -0.570000       15.9994           0
    2857 MEMB 38   PSM  C1S  CTL2  -0.080000       12.0110           0
    2858 MEMB 38   PSM  H1S  HAL2   0.090000        1.0080           0
    2859 MEMB 38   PSM  H1T  HAL2   0.090000        1.0080           0
    2860 MEMB 38   PSM  NF   NHL   -0.700000       14.0070           0
    2861 MEMB 38   PSM  HNF  H      0.350000        1.0080           0
    2862 MEMB 38   PSM  C2S  CTL1   0.300000       12.0110           0
    2863 MEMB 38   PSM  H2S  HAL1   0.050000        1.0080           0
    2864 MEMB 38   PSM  C3S  CTO1   0.500000       12.0110           0
    2865 MEMB 38   PSM  H3S  HAL1  -0.110000        1.0080           0
    2866 MEMB 38   PSM  O3   OHL   -0.690000       15.9994           0
    2867 MEMB 38   PSM  HO3  HOL    0.300000        1.0080           0
    2868 MEMB 38   PSM  C4S  CEL3  -0.150000       12.0110           0
    2869 MEMB 38   PSM  H4S  HEL1   0.150000        1.0080           0
    2870 MEMB 38   PSM  C5S  CEL3  -0.150000       12.0110           0
    2871 MEMB 38   PSM  H5S  HEL1   0.150000        1.0080           0
    2872 MEMB 38   PSM  C6S  CTL3  -0.270000       12.0110           0
    2873 MEMB 38   PSM  H6S  HAL3   0.090000        1.0080           0
    2874 MEMB 38   PSM  H6T  HAL3   0.090000        1.0080           0
    2875 MEMB 38   PSM  H6U  HAL3   0.090000        1.0080           0
    2876 MEMB 38   PSM  C1F  C      0.550000       12.0110           0
    2877 MEMB 38   PSM  OF   O     -0.600000       15.9994           0
    2878 MEMB 38   PSM  C2F  CTL2  -0.070000       12.0110           0
    2879 MEMB 38   PSM  H2F  HAL2   0.060000        1.0080           0
    2880 MEMB 38   PSM  H2G  HAL2   0.060000        1.0080           0
    2881 MEMB 38   PSM  C3F  CTL2  -0.180000       12.0110           0
    2882 MEMB 38   PSM  H3F  HAL2   0.090000        1.0080           0
    2883 MEMB 38   PSM  H3G  HAL2   0.090000        1.0080           0
    2884 MEMB 38   PSM  C4F  CTL2  -0.180000       12.0110           0
    2885 MEMB 38   PSM  H4F  HAL2   0.090000        1.0080           0
    2886 MEMB 38   PSM  H4G  HAL2   0.090000        1.0080           0
    2887 MEMB 38   PSM  C5F  CTL2  -0.180000       12.0110           0
    2888 MEMB 38   PSM  H5F  HAL2   0.090000        1.0080           0
    2889 MEMB 38   PSM  H5G  HAL2   0.090000        1.0080           0
    2890 MEMB 38   PSM  C6F  CTL3  -0.270000       12.0110           0
    2891 MEMB 38   PSM  H6F  HAL3   0.090000        1.0080           0
    2892 MEMB 38   PSM  H6G  HAL3   0.090000        1.0080           0
    2893 MEMB 38   PSM  H6H  HAL3   0.090000        1.0080           0
    2894 MEMB 39   POPC N    NTL   -0.600000       14.0070           0
    2895 MEMB 39   POPC C12  CTL2  -0.100000       12.0110           0
    2896 MEMB 39   POPC H12A HL     0.250000        1.0080           0
    2897 MEMB 39   POPC H12B HL     0.250000        1.0080           0
    2898 MEMB 39   POPC C13  CTL5  -0.350000       12.0110           0
    2899 MEMB 39   POPC H13A HL     0.250000        1.0080           0
    2900 MEMB 39   POPC H13B HL     0.250000        1.0080           0
    2901 MEMB 39   POPC H13C HL     0.250000        1.0080           0
    2902 MEMB 39   POPC C14  CTL5  -0.350000       12.0110           0
    2903 MEMB 39   POPC H14A HL     0.250000        1.0080           0
    2904 MEMB 39   POPC H14B HL     0.250000        1.0080           0
    2905 MEMB 39   POPC H14C HL     0.250000        1.0080           0
    2906 MEMB 39   POPC C15  CTL5  -0.350000       12.0110           0
    2907 MEMB 39   POPC H15A HL     0.250000        1.0080           0
    2908 MEMB 39   POPC H15B HL     0.250000        1.0080           0
    2909 MEMB 39   POPC H15C HL     0.250000        1.0080           0
    2910 MEMB 39   POPC C11  CTL2  -0.080000       12.0110           0
    2911 MEMB 39   POPC H11A HAL2   0.090000        1.0080           0
    2912 MEMB 39   POPC H11B HAL2   0.090000        1.0080           0
    2913 MEMB 39   POPC P    PL     1.500000       30.9740           0
    2914 MEMB 39   POPC O13  O2L   -0.780000       15.9994           0
    2915 MEMB 39   POPC O14  O2L   -0.780000       15.9994           0
    2916 MEMB 39   POPC O12  OSLP  -0.570000       15.9994           0
    2917 MEMB 39   POPC O11  OSLP  -0.570000       15.9994           0
    2918 MEMB 39   POPC C1   CTL2  -0.080000       12.0110           0
    2919 MEMB 39   POPC HA   HAL2   0.090000        1.0080           0
    2920 MEMB 39   POPC HB   HAL2   0.090000        1.0080           0
    2921 MEMB 39   POPC C2   CTL1   0.170000       12.0110           0
    2922 MEMB 39   POPC HS   HAL1   0.090000        1.0080           0
    2923 MEMB 39   POPC O21  OSL   -0.490000       15.9994           0
    2924 MEMB 39   POPC C21  CL     0.900000       12.0110           0
    2925 MEMB 39   POPC O22  OBL   -0.630000       15.9994           0
    2926 MEMB 39   POPC C22  CTL2  -0.220000       12.0110           0
    2927 MEMB 39   POPC H2R  HAL2   0.090000        1.0080           0
    2928 MEMB 39   POPC H2S  HAL2   0.090000        1.0080           0
    2929 MEMB 39   POPC C3   CTL2   0.080000       12.0110           0
    2930 MEMB 39   POPC HX   HAL2   0.090000        1.0080           0
    2931 MEMB 39   POPC HY   HAL2   0.090000        1.0080           0
    2932 MEMB 39   POPC O31  OSL   -0.490000       15.9994           0
    2933 MEMB 39   POPC C31  CL     0.900000       12.0110           0
    2934 MEMB 39   POPC O32  OBL   -0.630000       15.9994           0
    2935 MEMB 39   POPC C32  CTL2  -0.220000       12.0110           0
    2936 MEMB 39   POPC H2X  HAL2   0.090000        1.0080           0
    2937 MEMB 39   POPC H2Y  HAL2   0.090000        1.0080           0
    2938 MEMB 39   POPC C23  CTL2  -0.180000       12.0110           0
    2939 MEMB 39   POPC H3R  HAL2   0.090000        1.0080           0
    2940 MEMB 39   POPC H3S  HAL2   0.090000        1.0080           0
    2941 MEMB 39   POPC C24  CTL2  -0.180000       12.0110           0
    2942 MEMB 39   POPC H4R  HAL2   0.090000        1.0080           0
    2943 MEMB 39   POPC H4S  HAL2   0.090000        1.0080           0
    2944 MEMB 39   POPC C25  CTL2  -0.180000       12.0110           0
    2945 MEMB 39   POPC H5R  HAL2   0.090000        1.0080           0
    2946 MEMB 39   POPC H5S  HAL2   0.090000        1.0080           0
    2947 MEMB 39   POPC C26  CTL3  -0.270000       12.0110           0
    2948 MEMB 39   POPC H6R  HAL3   0.090000        1.0080           0
    2949 MEMB 39   POPC H6S  HAL3   0.090000        1.0080           0
    2950 MEMB 39   POPC H6T  HAL3   0.090000        1.0080           0
    2951 MEMB 39   POPC C33  CTL2  -0.180000       12.0110           0
    2952 MEMB 39   POPC H3X  HAL2   0.090000        1.0080           0
    2953 MEMB 39   POPC H3Y  HAL2   0.090000        1.0080           0
    2954 MEMB 39   POPC C34  CTL2  -0.180000       12.0110           0
    2955 MEMB 39   POPC H4X  HAL2   0.090000        1.0080           0
    2956 MEMB 39   POPC H4Y  HAL2   0.090000        1.0080           0
    2957 MEMB 39   POPC C35  CTL2  -0.180000       12.0110           0
    2958 MEMB 39   POPC H5X  HAL2   0.090000        1.0080           0
    2959 MEMB 39   POPC H5Y  HAL2   0.090000        1.0080           0
    2960 MEMB 39   POPC C36  CTL3  -0.270000       12.0110           0
    2961 MEMB 39   POPC H6X  HAL3   0.090000        1.0080           0
    2962 MEMB 39   POPC H6Y  HAL3   0.090000        1.0080           0
    2963 MEMB 39   POPC H6Z  HAL3   0.090000        1.0080           0
    2964 MEMB 40   PSM  N    NTL   -0.600000       14.0070           0
    2965 MEMB 40   PSM  C15  CTL5  -0.350000       12.0110           0
    2966 MEMB 40   PSM  H15A HL     0.250000        1.0080           0
    2967 MEMB 40   PSM  H15B HL     0.250000        1.0080           0
    2968 MEMB 40   PSM  H15C HL     0.250000        1.0080           0
    2969 MEMB 40   PSM  C14  CTL5  -0.350000       12.0110           0
    2970 MEMB 40   PSM  H14A HL     0.250000        1.0080           0
    2971 MEMB 40   PSM  H14B HL     0.250000        1.0080           0
    2972 MEMB 40   PSM  H14C HL     0.250000        1.0080           0
    2973 MEMB 40   PSM  C13  CTL5  -0.350000       12.0110           0
    2974 MEMB 40   PSM  H13A HL     0.250000        1.0080           0
    2975 MEMB 40   PSM  H13B HL     0.250000        1.0080           0
    2976 MEMB 40   PSM  H13C HL     0.250000        1.0080           0
    2977 MEMB 40   PSM  C12  CTL2  -0.100000       12.0110           0
    2978 MEMB 40   PSM  H12A HL     0.250000        1.0080           0
    2979 MEMB 40   PSM  H12B HL     0.250000        1.0080           0
    2980 MEMB 40   PSM  C11  CTL2  -0.080000       12.0110           0
    2981 MEMB 40   PSM  H11A HAL2   0.090000        1.0080           0
    2982 MEMB 40   PSM  H11B HAL2   0.090000        1.0080           0
    2983 MEMB 40   PSM  P    PL     1.500000       30.9740           0
    2984 MEMB 40   PSM  O13  O2L   -0.780000       15.9994           0
    2985 MEMB 40   PSM  O14  O2L   -0.780000       15.9994           0
    2986 MEMB 40   PSM  O11  OSLP  -0.570000       15.9994           0
    2987 MEMB 40   PSM  O12  OSLP  -0.570000       15.9994           0
    2988 MEMB 40   PSM  C1S  CTL2  -0.080000       12.0110           0
    2989 MEMB 40   PSM  H1S  HAL2   0.090000        1.0080           0
    2990 MEMB 40   PSM  H1T  HAL2   0.090000        1.0080           0
    2991 MEMB 40   PSM  NF   NHL   -0.700000       14.0070           0
    2992 MEMB 40   PSM  HNF  H      0.350000        1.0080           0
    2993 MEMB 40   PSM  C2S  CTL1   0.300000       12.0110           0
    2994 MEMB 40   PSM  H2S  HAL1   0.050000        1.0080           0
    2995 MEMB 40   PSM  C3S  CTO1   0.500000       12.0110           0
    2996 MEMB 40   PSM  H3S  HAL1  -0.110000        1.0080           0
    2997 MEMB 40   PSM  O3   OHL   -0.690000       15.9994           0
    2998 MEMB 40   PSM  HO3  HOL    0.300000        1.0080           0
    2999 MEMB 40   PSM  C4S  CEL3  -0.150000       12.0110           0
    3000 MEMB 40   PSM  H4S  HEL1   0.150000        1.0080           0
    3001 MEMB 40   PSM  C5S  CEL3  -0.150000       12.0110           0
    3002 MEMB 40   PSM  H5S  HEL1   0.150000        1.0080           0
    3003 MEMB 40   PSM  C6S  CTL3  -0.270000       12.0110           0
    3004 MEMB 40   PSM  H6S  HAL3   0.090000        1.0080           0
    3005 MEMB 40   PSM  H6T  HAL3   0.090000        1.0080           0
    3006 MEMB 40   PSM  H6U  HAL3   0.090000        1.0080           0
    3007 MEMB 40   PSM  C1F  C      0.550000       12.0110           0
    3008 MEMB 40   PSM  OF   O     -0.600000       15.9994           0
    3009 MEMB 40   PSM  C2F  CTL2  -0.070000       12.0110           0
    3010 MEMB 40   PSM  H2F  HAL2   0.060000        1.0080           0
    3011 MEMB 40   PSM  H2G  HAL2   0.060000        1.0080           0
    3012 MEMB 40   PSM  C3F  CTL2  -0.180000       12.0110           0
    3013 MEMB 40   PSM  H3F  HAL2   0.090000        1.0080           0
    3014 MEMB 40   PSM  H3G  HAL2   0.090000        1.0080           0
    3015 MEMB 40   PSM  C4F  CTL2  -0.180000       12.0110           0
    3016 MEMB 40   PSM  H4F  HAL2   0.090000        1.0080           0
    3017 MEMB 40   PSM  H4G  HAL2   0.090000        1.0080           0
    3018 MEMB 40   PSM  C5F  CTL2  -0.180000       12.0110           0
    3019 MEMB 40   PSM  H5F  HAL2   0.090000        1.0080           0
    3020 MEMB 40   PSM  H5G  HAL2   0.090000        1.0080           0
    3021 MEMB 40   PSM  C6F  CTL3  -0.270000       12.0110           0
    3022 MEMB 40   PSM  H6F  HAL3   0.090000        1.0080           0
    3023 MEMB 40   PSM  H6G  HAL3   0.090000        1.0080           0
    3024 MEMB 40   PSM  H6H  HAL3   0.090000        1.0080           0
    3025 MEMB 41   POPE N    NH3L  -0.300000       14.0070           0
    3026 MEMB 41   POPE HN1  HCL    0.330000        1.0080           0
    3027 MEMB 41   POPE HN2  HCL    0.330000        1.0080           0
    3028 MEMB 41   POPE HN3  HCL    0.330000        1.0080           0
    3029 MEMB 41   POPE C12  CTL2   0.130000       12.0110           0
    3030 MEMB 41   POPE H12A HAL2   0.090000        1.0080           0
    3031 MEMB 41   POPE H12B HAL2   0.090000        1.0080           0
    3032 MEMB 41   POPE C11  CTL2  -0.080000       12.0110           0
    3033 MEMB 41   POPE H11A HAL2   0.090000        1.0080           0
    3034 MEMB 41   POPE H11B HAL2   0.090000        1.0080           0
    3035 MEMB 41   POPE P    PL     1.500000       30.9740           0
    3036 MEMB 41   POPE O13  O2L   -0.780000       15.9994           0
    3037 MEMB 41   POPE O14  O2L   -0.780000       15.9994           0
    3038 MEMB 41   POPE O11  OSLP  -0.570000       15.9994           0
    3039 MEMB 41   POPE O12  OSLP  -0.570000       15.9994           0
    3040 MEMB 41   POPE C1   CTL2  -0.080000       12.0110           0
    3041 MEMB 41   POPE HA   HAL2   0.090000        1.0080           0
    3042 MEMB 41   POPE HB   HAL2   0.090000        1.0080           0
    3043 MEMB 41   POPE C2   CTL1   0.170000       12.0110           0
    3044 MEMB 41   POPE HS   HAL1   0.090000        1.0080           0
    3045 MEMB 41   POPE O21  OSL   -0.490000       15.9994           0
    3046 MEMB 41   POPE C21  CL     0.900000       12.0110           0
    3047 MEMB 41   POPE O22  OBL   -0.630000       15.9994           0
    3048 MEMB 41   POPE C22  CTL2  -0.220000       12.0110           0
    3049 MEMB 41   POPE H2R  HAL2   0.090000        1.0080           0
    3050 MEMB 41   POPE H2S  HAL2   0.090000        1.0080           0
    3051 MEMB 41   POPE C3   CTL2   0.080000       12.0110           0
    3052 MEMB 41   POPE HX   HAL2   0.090000        1.0080           0
    3053 MEMB 41   POPE HY   HAL2   0.090000        1.0080           0
    3054 MEMB 41   POPE O31  OSL   -0.490000       15.9994           0
    3055 MEMB 41   POPE C31  CL     0.900000       12.0110           0
    3056 MEMB 41   POPE O32  OBL   -0.630000       15.9994           0
    3057 MEMB 41   POPE C32  CTL2  -0.220000       12.0110           0
    3058 MEMB 41   POPE H2X  HAL2   0.090000        1.0080           0
    3059 MEMB 41   POPE H2Y  HAL2   0.090000        1.0080           0
    3060 MEMB 41   POPE C23  CTL2  -0.180000       12.0110           0
    3061 MEMB 41   POPE H3R  HAL2   0.090000        1.0080           0
    3062 MEMB 41   POPE H3S  HAL2   0.090000        1.0080           0
    3063 MEMB 41   POPE C24  CTL2  -0.180000       12.0110           0
    3064 MEMB 41   POPE H4R  HAL2   0.090000        1.0080           0
    3065 MEMB 41   POPE H4S  HAL2   0.090000        1.0080           0
    3066 MEMB 41   POPE C25  CTL2  -0.180000       12.0110           0
    3067 MEMB 41   POPE H5R  HAL2   0.090000        1.0080           0
    3068 MEMB 41   POPE H5S  HAL2   0.090000        1.0080           0
    3069 MEMB 41   POPE C26  CTL3  -0.270000       12.0110           0
    3070 MEMB 41   POPE H6R  HAL3   0.090000        1.0080           0
    3071 MEMB 41   POPE H6S  HAL3   0.090000        1.0080           0
    3072 MEMB 41   POPE H6T  HAL3   0.090000        1.0080           0
    3073 MEMB 41   POPE C33  CTL2  -0.180000       12.0110           0
    3074 MEMB 41   POPE H3X  HAL2   0.090000        1.0080           0
    3075 MEMB 41   POPE H3Y  HAL2   0.090000        1.0080           0
    3076 MEMB 41   POPE C34  CTL2  -0.180000       12.0110           0
    3077 MEMB 41   POPE H4X  HAL2   0.090000        1.0080           0
    3078 MEMB 41   POPE H4Y  HAL2   0.090000        1.0080           0
    3079 MEMB 41   POPE C35  CTL2  -0.180000       12.0110           0
    3080 MEMB 41   POPE H5X  HAL2   0.090000        1.0080           0
    3081 MEMB 41   POPE H5Y  HAL2   0.090000        1.0080           0
    3082 MEMB 41   POPE C36  CTL3  -0.270000       12.0110           0
    3083 MEMB 41   POPE H6X  HAL3   0.090000        1.0080           0
    3084 MEMB 41   POPE H6Y  HAL3   0.090000        1.0080           0
    3085 MEMB 41   POPE H6Z  HAL3   0.090000        1.0080           0
    3086 MEMB 42   POPC N    NTL   -0.600000       14.0070           0
    3087 MEMB 42   POPC C12  CTL2  -0.100000       12.0110           0
    3088 MEMB 42   POPC H12A HL     0.250000        1.0080           0
    3089 MEMB 42   POPC H12B HL     0.250000        1.0080           0
    3090 MEMB 42   POPC C13  CTL5  -0.350000       12.0110           0
    3091 MEMB 42   POPC H13A HL     0.250000        1.0080           0
    3092 MEMB 42   POPC H13B HL     0.250000        1.0080           0
    3093 MEMB 42   POPC H13C HL     0.250000        1.0080           0
    3094 MEMB 42   POPC C14  CTL5  -0.350000       12.0110           0
    3095 MEMB 42   POPC H14A HL     0.250000        1.0080           0
    3096 MEMB 42   POPC H14B HL     0.250000        1.0080           0
    3097 MEMB 42   POPC H14C HL     0.250000        1.0080           0
    3098 MEMB 42   POPC C15  CTL5  -0.350000       12.0110           0
    3099 MEMB 42   POPC H15A HL     0.250000        1.0080           0
    3100 MEMB 42   POPC H15B HL     0.250000        1.0080           0
    3101 MEMB 42   POPC H15C HL     0.250000        1.0080           0
    3102 MEMB 42   POPC C11  CTL2  -0.080000       12.0110           0
    3103 MEMB 42   POPC H11A HAL2   0.090000        1.0080           0
    3104 MEMB 42   POPC H11B HAL2   0.090000        1.0080           0
    3105 MEMB 42   POPC P    PL     1.500000       30.9740           0
    3106 MEMB 42   POPC O13  O2L   -0.780000       15.9994           0
    3107 MEMB 42   POPC O14  O2L   -0.780000       15.9994           0
    3108 MEMB 42   POPC O12  OSLP  -0.570000       15.9994           0
    3109 MEMB 42   POPC O11  OSLP  -0.570000       15.9994           0
    3110 MEMB 42   POPC C1   CTL2  -0.080000       12.0110           0
    3111 MEMB 42   POPC HA   HAL2   0.090000        1.0080           0
    3112 MEMB 42   POPC HB   HAL2   0.090000        1.0080           0
    3113 MEMB 42   POPC C2   CTL1   0.170000       12.0110           0
    3114 MEMB 42   POPC HS   HAL1   0.090000        1.0080           0
    3115 MEMB 42   POPC O21  OSL   -0.490000       15.9994           0
    3116 MEMB 42   POPC C21  CL     0.900000       12.0110           0
    3117 MEMB 42   POPC O22  OBL   -0.630000       15.9994           0
    3118 MEMB 42   POPC C22  CTL2  -0.220000       12.0110           0
    3119 MEMB 42   POPC H2R  HAL2   0.090000        1.0080           0
    3120 MEMB 42   POPC H2S  HAL2   0.090000        1.0080           0
    3121 MEMB 42   POPC C3   CTL2   0.080000       12.0110           0
    3122 MEMB 42   POPC HX   HAL2   0.090000        1.0080           0
    3123 MEMB 42   POPC HY   HAL2   0.090000        1.0080           0
    3124 MEMB 42   POPC O31  OSL   -0.490000       15.9994           0
    3125 MEMB 42   POPC C31  CL     0.900000       12.0110           0
    3126 MEMB 42   POPC O32  OBL   -0.630000       15.9994           0
    3127 MEMB 42   POPC C32  CTL2  -0.220000       12.0110           0
    3128 MEMB 42   POPC H2X  HAL2   0.090000        1.0080           0
    3129 MEMB 42   POPC H2Y  HAL2   0.090000        1.0080           0
    3130 MEMB 42   POPC C23  CTL2  -0.180000       12.0110           0
    3131 MEMB 42   POPC H3R  HAL2   0.090000        1.0080           0
    3132 MEMB 42   POPC H3S  HAL2   0.090000        1.0080           0
    3133 MEMB 42   POPC C24  CTL2  -0.180000       12.0110           0
    3134 MEMB 42   POPC H4R  HAL2   0.090000        1.0080           0
    3135 MEMB 42   POPC H4S  HAL2   0.090000        1.0080           0
    3136 MEMB 42   POPC C25  CTL2  -0.180000       12.0110           0
    3137 MEMB 42   POPC H5R  HAL2   0.090000        1.0080           0
    3138 MEMB 42   POPC H5S  HAL2   0.090000        1.0080           0
    3139 MEMB 42   POPC C26  CTL3  -0.270000       12.0110           0
    3140 MEMB 42   POPC H6R  HAL3   0.090000        1.0080           0
    3141 MEMB 42   POPC H6S  HAL3   0.090000        1.0080           0
    3142 MEMB 42   POPC H6T  HAL3   0.090000        1.0080           0
    3143 MEMB 42   POPC C33  CTL2  -0.180000       12.0110           0
    3144 MEMB 42   POPC H3X  HAL2   0.090000        1.0080           0
    3145 MEMB 42   POPC H3Y  HAL2   0.090000        1.0080           0
    3146 MEMB 42   POPC C34  CTL2  -0.180000       12.0110           0
    3147 MEMB 42   POPC H4X  HAL2   0.090000        1.0080           0
    3148 MEMB 42   POPC H4Y  HAL2   0.090000        1.0080           0
    3149 MEMB 42   POPC C35  CTL2  -0.180000       12.0110           0
    3150 MEMB 42   POPC H5X  HAL2   0.090000        1.0080           0
    3151 MEMB 42   POPC H5Y  HAL2   0.090000        1.0080           0
    3152 MEMB 42   POPC C36  CTL3  -0.270000       12.0110           0
    3153 MEMB 42   POPC H6X  HAL3   0.090000        1.0080           0
    3154 MEMB 42   POPC H6Y  HAL3   0.090000        1.0080           0
    3155 MEMB 42   POPC H6Z  HAL3   0.090000        1.0080           0
    3156 MEMB 43   POPC N    NTL   -0.600000       14.0070           0
    3157 MEMB 43   POPC C12  CTL2  -0.100000       12.0110           0
    3158 MEMB 43   POPC H12A HL     0.250000        1.0080           0
    3159 MEMB 43   POPC H12B HL     0.250000        1.0080           0
    3160 MEMB 43   POPC C13  CTL5  -0.350000       12.0110           0
    3161 MEMB 43   POPC H13A HL     0.250000        1.0080           0
    3162 MEMB 43   POPC H13B HL     0.250000        1.0080           0
    3163 MEMB 43   POPC H13C HL     0.250000        1.0080           0
    3164 MEMB 43   POPC C14  CTL5  -0.350000       12.0110           0
    3165 MEMB 43   POPC H14A HL     0.250000        1.0080           0
    3166 MEMB 43   POPC H14B HL     0.250000        1.0080           0
    3167 MEMB 43   POPC H14C HL     0.250000        1.0080           0
    3168 MEMB 43   POPC C15  CTL5  -0.350000       12.0110           0
    3169 MEMB 43   POPC H15A HL     0.250000        1.0080           0
    3170 MEMB 43   POPC H15B HL     0.250000        1.0080           0
    3171 MEMB 43   POPC H15C HL     0.250000        1.0080           0
    3172 MEMB 43   POPC C11  CTL2  -0.080000       12.0110           0
    3173 MEMB 43   POPC H11A HAL2   0.090000        1.0080           0
    3174 MEMB 43   POPC H11B HAL2   0.090000        1.0080           0
    3175 MEMB 43   POPC P    PL     1.500000       30.9740           0
    3176 MEMB 43   POPC O13  O2L   -0.780000       15.9994           0
    3177 MEMB 43   POPC O14  O2L   -0.780000       15.9994           0
    3178 MEMB 43   POPC O12  OSLP  -0.570000       15.9994           0
    3179 MEMB 43   POPC O11  OSLP  -0.570000       15.9994           0
    3180 MEMB 43   POPC C1   CTL2  -0.080000       12.0110           0
    3181 MEMB 43   POPC HA   HAL2   0.090000        1.0080           0
    3182 MEMB 43   POPC HB   HAL2   0.090000        1.0080           0
    3183 MEMB 43   POPC C2   CTL1   0.170000       12.0110           0
    3184 MEMB 43   POPC HS   HAL1   0.090000        1.0080           0
    3185 MEMB 43   POPC O21  OSL   -0.490000       15.9994           0
    3186 MEMB 43   POPC C21  CL     0.900000       12.0110           0
    3187 MEMB 43   POPC O22  OBL   -0.630000       15.9994           0
    3188 MEMB 43   POPC C22  CTL2  -0.220000       12.0110           0
    3189 MEMB 43   POPC H2R  HAL2   0.090000        1.0080           0
    3190 MEMB 43   POPC H2S  HAL2   0.090000        1.0080           0
    3191 MEMB 43   POPC C3   CTL2   0.080000       12.0110           0
    3192 MEMB 43   POPC HX   HAL2   0.090000        1.0080           0
    3193 MEMB 43   POPC HY   HAL2   0.090000        1.0080           0
    3194 MEMB 43   POPC O31  OSL   -0.490000       15.9994           0
    3195 MEMB 43   POPC C31  CL     0.900000       12.0110           0
    3196 MEMB 43   POPC O32  OBL   -0.630000       15.9994           0
    3197 MEMB 43   POPC C32  CTL2  -0.220000       12.0110           0
    3198 MEMB 43   POPC H2X  HAL2   0.090000        1.0080           0
    3199 MEMB 43   POPC H2Y  HAL2   0.090000        1.0080           0
    3200 MEMB 43   POPC C23  CTL2  -0.180000       12.0110           0
    3201 MEMB 43   POPC H3R  HAL2   0.090000        1.0080           0
    3202 MEMB 43   POPC H3S  HAL2   0.090000        1.0080           0
    3203 MEMB 43   POPC C24  CTL2  -0.180000       12.0110           0
    3204 MEMB 43   POPC H4R  HAL2   0.090000        1.0080           0
    3205 MEMB 43   POPC H4S  HAL2   0.090000        1.0080           0
    3206 MEMB 43   POPC C25  CTL2  -0.180000       12.0110           0
    3207 MEMB 43   POPC H5R  HAL2   0.090000        1.0080           0
    3208 MEMB 43   POPC H5S  HAL2   0.090000        1.0080           0
    3209 MEMB 43   POPC C26  CTL3  -0.270000       12.0110           0
    3210 MEMB 43   POPC H6R  HAL3   0.090000        1.0080           0
    3211 MEMB 43   POPC H6S  HAL3   0.090000        1.0080           0
    3212 MEMB 43   POPC H6T  HAL3   0.090000        1.0080           0
    3213 MEMB 43   POPC C33  CTL2  -0.180000       12.0110           0
    3214 MEMB 43   POPC H3X  HAL2   0.090000        1.0080           0
    3215 MEMB 43   POPC H3Y  HAL2   0.090000        1.0080           0
    3216 MEMB 43   POPC C34  CTL2  -0.180000       12.0110           0
    3217 MEMB 43   POPC H4X  HAL2   0.090000        1.0080           0
    3218 MEMB 43   POPC H4Y  HAL2   0.090000        1.0080           0
    3219 MEMB 43   POPC C35  CTL2  -0.180000       12.0110           0
    3220 MEMB 43   POPC H5X  HAL2   0.090000        1.0080           0
    3221 MEMB 43   POPC H5Y  HAL2   0.090000        1.0080           0
    3222 MEMB 43   POPC C36  CTL3  -0.270000       12.0110           0
    3223 MEMB 43   POPC H6X  HAL3   0.090000        1.0080           0
    3224 MEMB 43   POPC H6Y  HAL3   0.090000        1.0080           0
    3225 MEMB 43   POPC H6Z  HAL3   0.090000        1.0080           0
    3226 MEMB 44   POPE N    NH3L  -0.300000       14.0070           0
    3227 MEMB 44   POPE HN1  HCL    0.330000        1.0080           0
    3228 MEMB 44   POPE HN2  HCL    0.330000        1.0080           0
    3229 MEMB 44   POPE HN3  HCL    0.330000        1.0080           0
    3230 MEMB 44   POPE C12  CTL2   0.130000       12.0110           0
    3231 MEMB 44   POPE H12A HAL2   0.090000        1.0080           0
    3232 MEMB 44   POPE H12B HAL2   0.090000        1.0080           0
    3233 MEMB 44   POPE C11  CTL2  -0.080000       12.0110           0
    3234 MEMB 44   POPE H11A HAL2   0.090000        1.0080           0
    3235 MEMB 44   POPE H11B HAL2   0.090000        1.0080           0
    3236 MEMB 44   POPE P    PL     1.500000       30.9740           0
    3237 MEMB 44   POPE O13  O2L   -0.780000       15.9994           0
    3238 MEMB 44   POPE O14  O2L   -0.780000       15.9994           0
    3239 MEMB 44   POPE O11  OSLP  -0.570000       15.9994           0
    3240 MEMB 44   POPE O12  OSLP  -0.570000       15.9994           0
    3241 MEMB 44   POPE C1   CTL2  -0.080000       12.0110           0
    3242 MEMB 44   POPE HA   HAL2   0.090000        1.0080           0
    3243 MEMB 44   POPE HB   HAL2   0.090000        1.0080           0
    3244 MEMB 44   POPE C2   CTL1   0.170000       12.0110           0
    3245 MEMB 44   POPE HS   HAL1   0.090000        1.0080           0
    3246 MEMB 44   POPE O21  OSL   -0.490000       15.9994           0
    3247 MEMB 44   POPE C21  CL     0.900000       12.0110           0
    3248 MEMB 44   POPE O22  OBL   -0.630000       15.9994           0
    3249 MEMB 44   POPE C22  CTL2  -0.220000       12.0110           0
    3250 MEMB 44   POPE H2R  HAL2   0.090000        1.0080           0
    3251 MEMB 44   POPE H2S  HAL2   0.090000        1.0080           0
    3252 MEMB 44   POPE C3   CTL2   0.080000       12.0110           0
    3253 MEMB 44   POPE HX   HAL2   0.090000        1.0080           0
    3254 MEMB 44   POPE HY   HAL2   0.090000        1.0080           0
    3255 MEMB 44   POPE O31  OSL   -0.490000       15.9994           0
    3256 MEMB 44   POPE C31  CL     0.900000       12.0110           0
    3257 MEMB 44   POPE O32  OBL   -0.630000       15.9994           0
    3258 MEMB 44   POPE C32  CTL2  -0.220000       12.0110           0
    3259 MEMB 44   POPE H2X  HAL2   0.090000        1.0080           0
    3260 MEMB 44   POPE H2Y  HAL2   0.090000        1.0080           0
    3261 MEMB 44   POPE C23  CTL2  -0.180000       12.0110           0
    3262 MEMB 44   POPE H3R  HAL2   0.090000        1.0080           0
    3263 MEMB 44   POPE H3S  HAL2   0.090000        1.0080           0
    3264 MEMB 44   POPE C24  CTL2  -0.180000       12.0110           0
    3265 MEMB 44   POPE H4R  HAL2   0.090000        1.0080           0
    3266 MEMB 44   POPE H4S  HAL2   0.090000        1.0080           0
    3267 MEMB 44   POPE C25  CTL2  -0.180000       12.0110           0
    3268 MEMB 44   POPE H5R  HAL2   0.090000        1.0080           0
    3269 MEMB 44   POPE H5S  HAL2   0.090000        1.0080           0
    3270 MEMB 44   POPE C26  CTL3  -0.270000       12.0110           0
    3271 MEMB 44   POPE H6R  HAL3   0.090000        1.0080           0
    3272 MEMB 44   POPE H6S  HAL3   0.090000        1.0080           0
    3273 MEMB 44   POPE H6T  HAL3   0.090000        1.0080           0
    3274 MEMB 44   POPE C33  CTL2  -0.180000       12.0110           0
    3275 MEMB 44   POPE H3X  HAL2   0.090000        1.0080           0
    3276 MEMB 44   POPE H3Y  HAL2   0.090000        1.0080           0
    3277 MEMB 44   POPE C34  CTL2  -0.180000       12.0110           0
    3278 MEMB 44   POPE H4X  HAL2   0.090000        1.0080           0
    3279 MEMB 44   POPE H4Y  HAL2   0.090000        1.0080           0
    3280 MEMB 44   POPE C35  CTL2  -0.180000       12.0110           0
    3281 MEMB 44   POPE H5X  HAL2   0.090000        1.0080           0
    3282 MEMB 44   POPE H5Y  HAL2   0.090000        1.0080           0
    3283 MEMB 44   POPE C36  CTL3  -0.270000       12.0110           0
    3284 MEMB 44   POPE H6X  HAL3   0.090000        1.0080           0
    3285 MEMB 44   POPE H6Y  HAL3   0.090000        1.0080           0
    3286 MEMB 44   POPE H6Z  HAL3   0.090000        1.0080           0
    3287 MEMB 45   POPC N    NTL   -0.600000       14.0070           0
    3288 MEMB 45   POPC C12  CTL2  -0.100000       12.0110           0
    3289 MEMB 45   POPC H12A HL     0.250000        1.0080           0
    3290 MEMB 45   POPC H12B HL     0.250000        1.0080           0
    3291 MEMB 45   POPC C13  CTL5  -0.350000       12.0110           0
    3292 MEMB 45   POPC H13A HL     0.250000        1.0080           0
    3293 MEMB 45   POPC H13B HL     0.250000        1.0080           0
    3294 MEMB 45   POPC H13C HL     0.250000        1.0080           0
    3295 MEMB 45   POPC C14  CTL5  -0.350000       12.0110           0
    3296 MEMB 45   POPC H14A HL     0.250000        1.0080           0
    3297 MEMB 45   POPC H14B HL     0.250000        1.0080           0
    3298 MEMB 45   POPC H14C HL     0.250000        1.0080           0
    3299 MEMB 45   POPC C15  CTL5  -0.350000       12.0110           0
    3300 MEMB 45   POPC H15A HL     0.250000        1.0080           0
    3301 MEMB 45   POPC H15B HL     0.250000        1.0080           0
    3302 MEMB 45   POPC H15C HL     0.250000        1.0080           0
    3303 MEMB 45   POPC C11  CTL2  -0.080000       12.0110           0
    3304 MEMB 45   POPC H11A HAL2   0.090000        1.0080           0
    3305 MEMB 45   POPC H11B HAL2   0.090000        1.0080           0
    3306 MEMB 45   POPC P    PL     1.500000       30.9740           0
    3307 MEMB 45   POPC O13  O2L   -0.780000       15.9994           0
    3308 MEMB 45   POPC O14  O2L   -0.780000       15.9994           0
    3309 MEMB 45   POPC O12  OSLP  -0.570000       15.9994           0
    3310 MEMB 45   POPC O11  OSLP  -0.570000       15.9994           0
    3311 MEMB 45   POPC C1   CTL2  -0.080000       12.0110           0
    3312 MEMB 45   POPC HA   HAL2   0.090000        1.0080           0
    3313 MEMB 45   POPC HB   HAL2   0.090000        1.0080           0
    3314 MEMB 45   POPC C2   CTL1   0.170000       12.0110           0
    3315 MEMB 45   POPC HS   HAL1   0.090000        1.0080           0
    3316 MEMB 45   POPC O21  OSL   -0.490000       15.9994           0
    3317 MEMB 45   POPC C21  CL     0.900000       12.0110           0
    3318 MEMB 45   POPC O22  OBL   -0.630000       15.9994           0
    3319 MEMB 45   POPC C22  CTL2  -0.220000       12.0110           0
    3320 MEMB 45   POPC H2R  HAL2   0.090000        1.0080           0
    3321 MEMB 45   POPC H2S  HAL2   0.090000        1.0080           0
    3322 MEMB 45   POPC C3   CTL2   0.080000       12.0110           0
    3323 MEMB 45   POPC HX   HAL2   0.090000        1.0080           0
    3324 MEMB 45   POPC HY   HAL2   0.090000        1.0080           0
    3325 MEMB 45   POPC O31  OSL   -0.490000       15.9994           0
    3326 MEMB 45   POPC C31  CL     0.900000       12.0110           0
    3327 MEMB 45   POPC O32  OBL   -0.630000       15.9994           0
    3328 MEMB 45   POPC C32  CTL2  -0.220000       12.0110           0
    3329 MEMB 45   POPC H2X  HAL2   0.090000        1.0080           0
    3330 MEMB 45   POPC H2Y  HAL2   0.090000        1.0080           0
    3331 MEMB 45   POPC C23  CTL2  -0.180000       12.0110           0
    3332 MEMB 45   POPC H3R  HAL2   0.090000        1.0080           0
    3333 MEMB 45   POPC H3S  HAL2   0.090000        1.0080           0
    3334 MEMB 45   POPC C24  CTL2  -0.180000       12.0110           0
    3335 MEMB 45   POPC H4R  HAL2   0.090000        1.0080           0
    3336 MEMB 45   POPC H4S  HAL2   0.090000        1.0080           0
    3337 MEMB 45   POPC C25  CTL2  -0.180000       12.0110           0
    3338 MEMB 45   POPC H5R  HAL2   0.090000        1.0080           0
    3339 MEMB 45   POPC H5S  HAL2   0.090000        1.0080           0
    3340 MEMB 45   POPC C26  CTL3  -0.270000       12.0110           0
    3341 MEMB 45   POPC H6R  HAL3   0.090000        1.0080           0
    3342 MEMB 45   POPC H6S  HAL3   0.090000        1.0080           0
    3343 MEMB 45   POPC H6T  HAL3   0.090000        1.0080           0
    3344 MEMB 45   POPC C33  CTL2  -0.180000       12.0110           0
    3345 MEMB 45   POPC H3X  HAL2   0.090000        1.0080           0
    3346 MEMB 45   POPC H3Y  HAL2   0.090000        1.0080           0
    3347 MEMB 45   POPC C34  CTL2  -0.180000       12.0110           0
    3348 MEMB 45   POPC H4X  HAL2   0.090000        1.0080           0
    3349 MEMB 45   POPC H4Y  HAL2   0.090000        1.0080           0
    3350 MEMB 45   POPC C35  CTL2  -0.180000       12.0110           0
    3351 MEMB 45   POPC H5X  HAL2   0.090000        1.0080           0
    3352 MEMB 45   POPC H5Y  HAL2   0.090000        1.0080           0
    3353 MEMB 45   POPC C36  CTL3  -0.270000       12.0110           0
    3354 MEMB 45   POPC H6X  HAL3   0.090000        1.0080           0
    3355 MEMB 45   POPC H6Y  HAL3   0.090000        1.0080           0
    3356 MEMB 45   POPC H6Z  HAL3   0.090000        1.0080           0
    3357 MEMB 46   POPE N    NH3L  -0.300000       14.0070           0
    3358 MEMB 46   POPE HN1  HCL    0.330000        1.0080           0
    3359 MEMB 46   POPE HN2  HCL    0.330000        1.0080           0
    3360 MEMB 46   POPE HN3  HCL    0.330000        1.0080           0
    3361 MEMB 46   POPE C12  CTL2   0.130000       12.0110           0
    3362 MEMB 46   POPE H12A HAL2   0.090000        1.0080           0
    3363 MEMB 46   POPE H12B HAL2   0.090000        1.0080           0
    3364 MEMB 46   POPE C11  CTL2  -0.080000       12.0110           0
    3365 MEMB 46   POPE H11A HAL2   0.090000        1.0080           0
    3366 MEMB 46   POPE H11B HAL2   0.090000        1.0080           0
    3367 MEMB 46   POPE P    PL     1.500000       30.9740           0
    3368 MEMB 46   POPE O13  O2L   -0.780000       15.9994           0
    3369 MEMB 46   POPE O14  O2L   -0.780000       15.9994           0
    3370 MEMB 46   POPE O11  OSLP  -0.570000       15.9994           0
    3371 MEMB 46   POPE O12  OSLP  -0.570000       15.9994           0
    3372 MEMB 46   POPE C1   CTL2  -0.080000       12.0110           0
    3373 MEMB 46   POPE HA   HAL2   0.090000        1.0080           0
    3374 MEMB 46   POPE HB   HAL2   0.090000        1.0080           0
    3375 MEMB 46   POPE C2   CTL1   0.170000       12.0110           0
    3376 MEMB 46   POPE HS   HAL1   0.090000        1.0080           0
    3377 MEMB 46   POPE O21  OSL   -0.490000       15.9994           0
    3378 MEMB 46   POPE C21  CL     0.900000       12.0110           0
    3379 MEMB 46   POPE O22  OBL   -0.630000       15.9994           0
    3380 MEMB 46   POPE C22  CTL2  -0.220000       12.0110           0
    3381 MEMB 46   POPE H2R  HAL2   0.090000        1.0080           0
    3382 MEMB 46   POPE H2S  HAL2   0.090000        1.0080           0
    3383 MEMB 46   POPE C3   CTL2   0.080000       12.0110           0
    3384 MEMB 46   POPE HX   HAL2   0.090000        1.0080           0
    3385 MEMB 46   POPE HY   HAL2   0.090000        1.0080           0
    3386 MEMB 46   POPE O31  OSL   -0.490000       15.9994           0
    3387 MEMB 46   POPE C31  CL     0.900000       12.0110           0
    3388 MEMB 46   POPE O32  OBL   -0.630000       15.9994           0
    3389 MEMB 46   POPE C32  CTL2  -0.220000       12.0110           0
    3390 MEMB 46   POPE H2X  HAL2   0.090000        1.0080           0
    3391 MEMB 46   POPE H2Y  HAL2   0.090000        1.0080           0
    3392 MEMB 46   POPE C23  CTL2  -0.180000       12.0110           0
    3393 MEMB 46   POPE H3R  HAL2   0.090000        1.0080           0
    3394 MEMB 46   POPE H3S  HAL2   0.090000        1.0080           0
    3395 MEMB 46   POPE C24  CTL2  -0.180000       12.0110           0
    3396 MEMB 46   POPE H4R  HAL2   0.090000        1.0080           0
    3397 MEMB 46   POPE H4S  HAL2   0.090000        1.0080           0
    3398 MEMB 46   POPE C25  CTL2  -0.180000       12.0110           0
    3399 MEMB 46   POPE H5R  HAL2   0.090000        1.0080           0
    3400 MEMB 46   POPE H5S  HAL2   0.090000        1.0080           0
    3401 MEMB 46   POPE C26  CTL3  -0.270000       12.0110           0
    3402 MEMB 46   POPE H6R  HAL3   0.090000        1.0080           0
    3403 MEMB 46   POPE H6S  HAL3   0.090000        1.0080           0
    3404 MEMB 46   POPE H6T  HAL3   0.090000        1.0080           0
    3405 MEMB 46   POPE C33  CTL2  -0.180000       12.0110           0
    3406 MEMB 46   POPE H3X  HAL2   0.090000        1.0080           0
    3407 MEMB 46   POPE H3Y  HAL2   0.090000        1.0080           0
    3408 MEMB 46   POPE C34  CTL2  -0.180000       12.0110           0
    3409 MEMB 46   POPE H4X  HAL2   0.090000        1.0080           0
    3410 MEMB 46   POPE H4Y  HAL2   0.090000        1.0080           0
    3411 MEMB 46   POPE C35  CTL2  -0.180000       12.0110           0
    3412 MEMB 46   POPE H5X  HAL2   0.090000        1.0080           0
    3413 MEMB 46   POPE H5Y  HAL2   0.090000        1.0080           0
    3414 MEMB 46   POPE C36  CTL3  -0.270000       12.0110           0
    3415 MEMB 46   POPE H6X  HAL3   0.090000        1.0080           0
    3416 MEMB 46   POPE H6Y  HAL3   0.090000        1.0080           0
    3417 MEMB 46   POPE H6Z  HAL3   0.090000        1.0080           0
    3418 MEMB 47   POPE N    NH3L  -0.300000       14.0070           0
    3419 MEMB 47   POPE HN1  HCL    0.330000        1.0080           0
    3420 MEMB 47   POPE HN2  HCL    0.330000        1.0080           0
    3421 MEMB 47   POPE HN3  HCL    0.330000        1.0080           0
    3422 MEMB 47   POPE C12  CTL2   0.130000       12.0110           0
    3423 MEMB 47   POPE H12A HAL2   0.090000        1.0080           0
    3424 MEMB 47   POPE H12B HAL2   0.090000        1.0080           0
    3425 MEMB 47   POPE C11  CTL2  -0.080000       12.0110           0
    3426 MEMB 47   POPE H11A HAL2   0.090000        1.0080           0
    3427 MEMB 47   POPE H11B HAL2   0.090000        1.0080           0
    3428 MEMB 47   POPE P    PL     1.500000       30.9740           0
    3429 MEMB 47   POPE O13  O2L   -0.780000       15.9994           0
    3430 MEMB 47   POPE O14  O2L   -0.780000       15.9994           0
    3431 MEMB 47   POPE O11  OSLP  -0.570000       15.9994           0
    3432 MEMB 47   POPE O12  OSLP  -0.570000       15.9994           0
    3433 MEMB 47   POPE C1   CTL2  -0.080000       12.0110           0
    3434 MEMB 47   POPE HA   HAL2   0.090000        1.0080           0
    3435 MEMB 47   POPE HB   HAL2   0.090000        1.0080           0
    3436 MEMB 47   POPE C2   CTL1   0.170000       12.0110           0
    3437 MEMB 47   POPE HS   HAL1   0.090000        1.0080           0
    3438 MEMB 47   POPE O21  OSL   -0.490000       15.9994           0
    3439 MEMB 47   POPE C21  CL     0.900000       12.0110           0
    3440 MEMB 47   POPE O22  OBL   -0.630000       15.9994           0
    3441 MEMB 47   POPE C22  CTL2  -0.220000       12.0110           0
    3442 MEMB 47   POPE H2R  HAL2   0.090000        1.0080           0
    3443 MEMB 47   POPE H2S  HAL2   0.090000        1.0080           0
    3444 MEMB 47   POPE C3   CTL2   0.080000       12.0110           0
    3445 MEMB 47   POPE HX   HAL2   0.090000        1.0080           0
    3446 MEMB 47   POPE HY   HAL2   0.090000        1.0080           0
    3447 MEMB 47   POPE O31  OSL   -0.490000       15.9994           0
    3448 MEMB 47   POPE C31  CL     0.900000       12.0110           0
    3449 MEMB 47   POPE O32  OBL   -0.630000       15.9994           0
    3450 MEMB 47   POPE C32  CTL2  -0.220000       12.0110           0
    3451 MEMB 47   POPE H2X  HAL2   0.090000        1.0080           0
    3452 MEMB 47   POPE H2Y  HAL2   0.090000        1.0080           0
    3453 MEMB 47   POPE C23  CTL2  -0.180000       12.0110           0
    3454 MEMB 47   POPE H3R  HAL2   0.090000        1.0080           0
    3455 MEMB 47   POPE H3S  HAL2   0.090000        1.0080           0
    3456 MEMB 47   POPE C24  CTL2  -0.180000       12.0110           0
    3457 MEMB 47   POPE H4R  HAL2   0.090000        1.0080           0
    3458 MEMB 47   POPE H4S  HAL2   0.090000        1.0080           0
    3459 MEMB 47   POPE C25  CTL2  -0.180000       12.0110           0
    3460 MEMB 47   POPE H5R  HAL2   0.090000        1.0080           0
    3461 MEMB 47   POPE H5S  HAL2   0.090000        1.0080           0
    3462 MEMB 47   POPE C26  CTL3  -0.270000       12.0110           0
    3463 MEMB 47   POPE H6R  HAL3   0.090000        1.0080           0
    3464 MEMB 47   POPE H6S  HAL3   0.090000        1.0080           0
    3465 MEMB 47   POPE H6T  HAL3   0.090000        1.0080           0
    3466 MEMB 47   POPE C33  CTL2  -0.180000       12.0110           0
    3467 MEMB 47   POPE H3X  HAL2   0.090000        1.0080           0
    3468 MEMB 47   POPE H3Y  HAL2   0.090000        1.0080           0
    3469 MEMB 47   POPE C34  CTL2  -0.180000       12.0110           0
    3470 MEMB 47   POPE H4X  HAL2   0.090000        1.0080           0
    3471 MEMB 47   POPE H4Y  HAL2   0.090000        1.0080           0
    3472 MEMB 47   POPE C35  CTL2  -0.180000       12.0110           0
    3473 MEMB 47   POPE H5X  HAL2   0.090000        1.0080           0
    3474 MEMB 47   POPE H5Y  HAL2   0.090000        1.0080           0
    3475 MEMB 47   POPE C36  CTL3  -0.270000       12.0110           0
    3476 MEMB 47   POPE H6X  HAL3   0.090000        1.0080           0
    3477 MEMB 47   POPE H6Y  HAL3   0.090000        1.0080           0
    3478 MEMB 47   POPE H6Z  HAL3   0.090000        1.0080           0
    3479 MEMB 48   POPE N    NH3L  -0.300000       14.0070           0
    3480 MEMB 48   POPE HN1  HCL    0.330000        1.0080           0
    3481 MEMB 48   POPE HN2  HCL    0.330000        1.0080           0
    3482 MEMB 48   POPE HN3  HCL    0.330000        1.0080           0
    3483 MEMB 48   POPE C12  CTL2   0.130000       12.0110           0
    3484 MEMB 48   POPE H12A HAL2   0.090000        1.0080           0
    3485 MEMB 48   POPE H12B HAL2   0.090000        1.0080           0
    3486 MEMB 48   POPE C11  CTL2  -0.080000       12.0110           0
    3487 MEMB 48   POPE H11A HAL2   0.090000        1.0080           0
    3488 MEMB 48   POPE H11B HAL2   0.090000        1.0080           0
    3489 MEMB 48   POPE P    PL     1.500000       30.9740           0
    3490 MEMB 48   POPE O13  O2L   -0.780000       15.9994           0
    3491 MEMB 48   POPE O14  O2L   -0.780000       15.9994           0
    3492 MEMB 48   POPE O11  OSLP  -0.570000       15.9994           0
    3493 MEMB 48   POPE O12  OSLP  -0.570000       15.9994           0
    3494 MEMB 48   POPE C1   CTL2  -0.080000       12.0110           0
    3495 MEMB 48   POPE HA   HAL2   0.090000        1.0080           0
    3496 MEMB 48   POPE HB   HAL2   0.090000        1.0080           0
    3497 MEMB 48   POPE C2   CTL1   0.170000       12.0110           0
    3498 MEMB 48   POPE HS   HAL1   0.090000        1.0080           0
    3499 MEMB 48   POPE O21  OSL   -0.490000       15.9994           0
    3500 MEMB 48   POPE C21  CL     0.900000       12.0110           0
    3501 MEMB 48   POPE O22  OBL   -0.630000       15.9994           0
    3502 MEMB 48   POPE C22  CTL2  -0.220000       12.0110           0
    3503 MEMB 48   POPE H2R  HAL2   0.090000        1.0080           0
    3504 MEMB 48   POPE H2S  HAL2   0.090000        1.0080           0
    3505 MEMB 48   POPE C3   CTL2   0.080000       12.0110           0
    3506 MEMB 48   POPE HX   HAL2   0.090000        1.0080           0
    3507 MEMB 48   POPE HY   HAL2   0.090000        1.0080           0
    3508 MEMB 48   POPE O31  OSL   -0.490000       15.9994           0
    3509 MEMB 48   POPE C31  CL     0.900000       12.0110           0
    3510 MEMB 48   POPE O32  OBL   -0.630000       15.9994           0
    3511 MEMB 48   POPE C32  CTL2  -0.220000       12.0110           0
    3512 MEMB 48   POPE H2X  HAL2   0.090000        1.0080           0
    3513 MEMB 48   POPE H2Y  HAL2   0.090000        1.0080           0
    3514 MEMB 48   POPE C23  CTL2  -0.180000       12.0110           0
    3515 MEMB 48   POPE H3R  HAL2   0.090000        1.0080           0
    3516 MEMB 48   POPE H3S  HAL2   0.090000        1.0080           0
    3517 MEMB 48   POPE C24  CTL2  -0.180000       12.0110           0
    3518 MEMB 48   POPE H4R  HAL2   0.090000        1.0080           0
    3519 MEMB 48   POPE H4S  HAL2   0.090000        1.0080           0
    3520 MEMB 48   POPE C25  CTL2  -0.180000       12.0110           0
    3521 MEMB 48   POPE H5R  HAL2   0.090000        1.0080           0
    3522 MEMB 48   POPE H5S  HAL2   0.090000        1.0080           0
    3523 MEMB 48   POPE C26  CTL3  -0.270000       12.0110           0
    3524 MEMB 48   POPE H6R  HAL3   0.090000        1.0080           0
    3525 MEMB 48   POPE H6S  HAL3   0.090000        1.0080           0
    3526 MEMB 48   POPE H6T  HAL3   0.090000        1.0080           0
    3527 MEMB 48   POPE C33  CTL2  -0.180000       12.0110           0
    3528 MEMB 48   POPE H3X  HAL2   0.090000        1.0080           0
    3529 MEMB 48   POPE H3Y  HAL2   0.090000        1.0080           0
    3530 MEMB 48   POPE C34  CTL2  -0.180000       12.0110           0
    3531 MEMB 48   POPE H4X  HAL2   0.090000        1.0080           0
    3532 MEMB 48   POPE H4Y  HAL2   0.090000        1.0080           0
    3533 MEMB 48   POPE C35  CTL2  -0.180000       12.0110           0
    3534 MEMB 48   POPE H5X  HAL2   0.090000        1.0080           0
    3535 MEMB 48   POPE H5Y  HAL2   0.090000        1.0080           0
    3536 MEMB 48   POPE C36  CTL3  -0.270000       12.0110           0
    3537 MEMB 48   POPE H6X  HAL3   0.090000        1.0080           0
    3538 MEMB 48   POPE H6Y  HAL3   0.090000        1.0080           0
    3539 MEMB 48   POPE H6Z  HAL3   0.090000        1.0080           0
    3540 MEMB 49   PSM  N    NTL   -0.600000       14.0070           0
    3541 MEMB 49   PSM  C15  CTL5  -0.350000       12.0110           0
    3542 MEMB 49   PSM  H15A HL     0.250000        1.0080           0
    3543 MEMB 49   PSM  H15B HL     0.250000        1.0080           0
    3544 MEMB 49   PSM  H15C HL     0.250000        1.0080           0
    3545 MEMB 49   PSM  C14  CTL5  -0.350000       12.0110           0
    3546 MEMB 49   PSM  H14A HL     0.250000        1.0080           0
    3547 MEMB 49   PSM  H14B HL     0.250000        1.0080           0
    3548 MEMB 49   PSM  H14C HL     0.250000        1.0080           0
    3549 MEMB 49   PSM  C13  CTL5  -0.350000       12.0110           0
    3550 MEMB 49   PSM  H13A HL     0.250000        1.0080           0
    3551 MEMB 49   PSM  H13B HL     0.250000        1.0080           0
    3552 MEMB 49   PSM  H13C HL     0.250000        1.0080           0
    3553 MEMB 49   PSM  C12  CTL2  -0.100000       12.0110           0
    3554 MEMB 49   PSM  H12A HL     0.250000        1.0080           0
    3555 MEMB 49   PSM  H12B HL     0.250000        1.0080           0
    3556 MEMB 49   PSM  C11  CTL2  -0.080000       12.0110           0
    3557 MEMB 49   PSM  H11A HAL2   0.090000        1.0080           0
    3558 MEMB 49   PSM  H11B HAL2   0.090000        1.0080           0
    3559 MEMB 49   PSM  P    PL     1.500000       30.9740           0
    3560 MEMB 49   PSM  O13  O2L   -0.780000       15.9994           0
    3561 MEMB 49   PSM  O14  O2L   -0.780000       15.9994           0
    3562 MEMB 49   PSM  O11  OSLP  -0.570000       15.9994           0
    3563 MEMB 49   PSM  O12  OSLP  -0.570000       15.9994           0
    3564 MEMB 49   PSM  C1S  CTL2  -0.080000       12.0110           0
    3565 MEMB 49   PSM  H1S  HAL2   0.090000        1.0080           0
    3566 MEMB 49   PSM  H1T  HAL2   0.090000        1.0080           0
    3567 MEMB 49   PSM  NF   NHL   -0.700000       14.0070           0
    3568 MEMB 49   PSM  HNF  H      0.350000        1.0080           0
    3569 MEMB 49   PSM  C2S  CTL1   0.300000       12.0110           0
    3570 MEMB 49   PSM  H2S  HAL1   0.050000        1.0080           0
    3571 MEMB 49   PSM  C3S  CTO1   0.500000       12.0110           0
    3572 MEMB 49   PSM  H3S  HAL1  -0.110000        1.0080           0
    3573 MEMB 49   PSM  O3   OHL   -0.690000       15.9994           0
    3574 MEMB 49   PSM  HO3  HOL    0.300000        1.0080           0
    3575 MEMB 49   PSM  C4S  CEL3  -0.150000       12.0110           0
    3576 MEMB 49   PSM  H4S  HEL1   0.150000        1.0080           0
    3577 MEMB 49   PSM  C5S  CEL3  -0.150000       12.0110           0
    3578 MEMB 49   PSM  H5S  HEL1   0.150000        1.0080           0
    3579 MEMB 49   PSM  C6S  CTL3  -0.270000       12.0110           0
    3580 MEMB 49   PSM  H6S  HAL3   0.090000        1.0080           0
    3581 MEMB 49   PSM  H6T  HAL3   0.090000        1.0080           0
    3582 MEMB 49   PSM  H6U  HAL3   0.090000        1.0080           0
    3583 MEMB 49   PSM  C1F  C      0.550000       12.0110           0
    3584 MEMB 49   PSM  OF   O     -0.600000       15.9994           0
    3585 MEMB 49   PSM  C2F  CTL2  -0.070000       12.0110           0
    3586 MEMB 49   PSM  H2F  HAL2   0.060000        1.0080           0
    3587 MEMB 49   PSM  H2G  HAL2   0.060000        1.0080           0
    3588 MEMB 49   PSM  C3F  CTL2  -0.180000       12.0110           0
    3589 MEMB 49   PSM  H3F  HAL2   0.090000        1.0080           0
    3590 MEMB 49   PSM  H3G  HAL2   0.090000        1.0080           0
    3591 MEMB 49   PSM  C4F  CTL2  -0.180000       12.0110           0
    3592 MEMB 49   PSM  H4F  HAL2   0.090000        1.0080           0
    3593 MEMB 49   PSM  H4G  HAL2   0.090000        1.0080           0
    3594 MEMB 49   PSM  C5F  CTL2  -0.180000       12.0110           0
    3595 MEMB 49   PSM  H5F  HAL2   0.090000        1.0080           0
    3596 MEMB 49   PSM  H5G  HAL2   0.090000        1.0080           0
    3597 MEMB 49   PSM  C6F  CTL3  -0.270000       12.0110           0
    3598 MEMB 49   PSM  H6F  HAL3   0.090000        1.0080           0
    3599 MEMB 49   PSM  H6G  HAL3   0.090000        1.0080           0
    3600 MEMB 49   PSM  H6H  HAL3   0.090000        1.0080           0
    3601 MEMB 50   PSM  N    NTL   -0.600000       14.0070           0
    3602 MEMB 50   PSM  C15  CTL5  -0.350000       12.0110           0
    3603 MEMB 50   PSM  H15A HL     0.250000        1.0080           0
    3604 MEMB 50   PSM  H15B HL     0.250000        1.0080           0
    3605 MEMB 50   PSM  H15C HL     0.250000        1.0080           0
    3606 MEMB 50   PSM  C14  CTL5  -0.350000       12.0110           0
    3607 MEMB 50   PSM  H14A HL     0.250000        1.0080           0
    3608 MEMB 50   PSM  H14B HL     0.250000        1.0080           0
    3609 MEMB 50   PSM  H14C HL     0.250000        1.0080           0
    3610 MEMB 50   PSM  C13  CTL5  -0.350000       12.0110           0
    3611 MEMB 50   PSM  H13A HL     0.250000        1.0080           0
    3612 MEMB 50   PSM  H13B HL     0.250000        1.0080           0
    3613 MEMB 50   PSM  H13C HL     0.250000        1.0080           0
    3614 MEMB 50   PSM  C12  CTL2  -0.100000       12.0110           0
    3615 MEMB 50   PSM  H12A HL     0.250000        1.0080           0
    3616 MEMB 50   PSM  H12B HL     0.250000        1.0080           0
    3617 MEMB 50   PSM  C11  CTL2  -0.080000       12.0110           0
    3618 MEMB 50   PSM  H11A HAL2   0.090000        1.0080           0
    3619 MEMB 50   PSM  H11B HAL2   0.090000        1.0080           0
    3620 MEMB 50   PSM  P    PL     1.500000       30.9740           0
    3621 MEMB 50   PSM  O13  O2L   -0.780000       15.9994           0
    3622 MEMB 50   PSM  O14  O2L   -0.780000       15.9994           0
    3623 MEMB 50   PSM  O11  OSLP  -0.570000       15.9994           0
    3624 MEMB 50   PSM  O12  OSLP  -0.570000       15.9994           0
    3625 MEMB 50   PSM  C1S  CTL2  -0.080000       12.0110           0
    3626 MEMB 50   PSM  H1S  HAL2   0.090000        1.0080           0
    3627 MEMB 50   PSM  H1T  HAL2   0.090000        1.0080           0
    3628 MEMB 50   PSM  NF   NHL   -0.700000       14.0070           0
    3629 MEMB 50   PSM  HNF  H      0.350000        1.0080           0
    3630 MEMB 50   PSM  C2S  CTL1   0.300000       12.0110           0
    3631 MEMB 50   PSM  H2S  HAL1   0.050000        1.0080           0
    3632 MEMB 50   PSM  C3S  CTO1   0.500000       12.0110           0
    3633 MEMB 50   PSM  H3S  HAL1  -0.110000        1.0080           0
    3634 MEMB 50   PSM  O3   OHL   -0.690000       15.9994           0
    3635 MEMB 50   PSM  HO3  HOL    0.300000        1.0080           0
    3636 MEMB 50   PSM  C4S  CEL3  -0.150000       12.0110           0
    3637 MEMB 50   PSM  H4S  HEL1   0.150000        1.0080           0
    3638 MEMB 50   PSM  C5S  CEL3  -0.150000       12.0110           0
    3639 MEMB 50   PSM  H5S  HEL1   0.150000        1.0080           0
    3640 MEMB 50   PSM  C6S  CTL3  -0.270000       12.0110           0
    3641 MEMB 50   PSM  H6S  HAL3   0.090000        1.0080           0
    3642 MEMB 50   PSM  H6T  HAL3   0.090000        1.0080           0
    3643 MEMB 50   PSM  H6U  HAL3   0.090000        1.0080           0
    3644 MEMB 50   PSM  C1F  C      0.550000       12.0110           0
    3645 MEMB 50   PSM  OF   O     -0.600000       15.9994           0
    3646 MEMB 50   PSM  C2F  CTL2  -0.070000       12.0110           0
    3647 MEMB 50   PSM  H2F  HAL2   0.060000        1.0080           0
    3648 MEMB 50   PSM  H2G  HAL2   0.060000        1.0080           0
    3649 MEMB 50   PSM  C3F  CTL2  -0.180000       12.0110           0
    3650 MEMB 50   PSM  H3F  HAL2   0.090000        1.0080           0
    3651 MEMB 50   PSM  H3G  HAL2   0.090000        1.0080           0
    3652 MEMB 50   PSM  C4F  CTL2  -0.180000       12.0110           0
    3653 MEMB 50   PSM  H4F  HAL2   0.090000        1.0080           0
    3654 MEMB 50   PSM  H4G  HAL2   0.090000        1.0080           0
    3655 MEMB 50   PSM  C5F  CTL2  -0.180000       12.0110           0
    3656 MEMB 50   PSM  H5F  HAL2   0.090000        1.0080           0
    3657 MEMB 50   PSM  H5G  HAL2   0.090000        1.0080           0
    3658 MEMB 50   PSM  C6F  CTL3  -0.270000       12.0110           0
    3659 MEMB 50   PSM  H6F  HAL3   0.090000        1.0080           0
    3660 MEMB 50   PSM  H6G  HAL3   0.090000        1.0080           0
    3661 MEMB 50   PSM  H6H  HAL3   0.090000        1.0080           0
    3662 MEMB 51   POPE N    NH3L  -0.300000       14.0070           0
    3663 MEMB 51   POPE HN1  HCL    0.330000        1.0080           0
    3664 MEMB 51   POPE HN2  HCL    0.330000        1.0080           0
    3665 MEMB 51   POPE HN3  HCL    0.330000        1.0080           0
    3666 MEMB 51   POPE C12  CTL2   0.130000       12.0110           0
    3667 MEMB 51   POPE H12A HAL2   0.090000        1.0080           0
    3668 MEMB 51   POPE H12B HAL2   0.090000        1.0080           0
    3669 MEMB 51   POPE C11  CTL2  -0.080000       12.0110           0
    3670 MEMB 51   POPE H11A HAL2   0.090000        1.0080           0
    3671 MEMB 51   POPE H11B HAL2   0.090000        1.0080           0
    3672 MEMB 51   POPE P    PL     1.500000       30.9740           0
    3673 MEMB 51   POPE O13  O2L   -0.780000       15.9994           0
    3674 MEMB 51   POPE O14  O2L   -0.780000       15.9994           0
    3675 MEMB 51   POPE O11  OSLP  -0.570000       15.9994           0
    3676 MEMB 51   POPE O12  OSLP  -0.570000       15.9994           0
    3677 MEMB 51   POPE C1   CTL2  -0.080000       12.0110           0
    3678 MEMB 51   POPE HA   HAL2   0.090000        1.0080           0
    3679 MEMB 51   POPE HB   HAL2   0.090000        1.0080           0
    3680 MEMB 51   POPE C2   CTL1   0.170000       12.0110           0
    3681 MEMB 51   POPE HS   HAL1   0.090000        1.0080           0
    3682 MEMB 51   POPE O21  OSL   -0.490000       15.9994           0
    3683 MEMB 51   POPE C21  CL     0.900000       12.0110           0
    3684 MEMB 51   POPE O22  OBL   -0.630000       15.9994           0
    3685 MEMB 51   POPE C22  CTL2  -0.220000       12.0110           0
    3686 MEMB 51   POPE H2R  HAL2   0.090000        1.0080           0
    3687 MEMB 51   POPE H2S  HAL2   0.090000        1.0080           0
    3688 MEMB 51   POPE C3   CTL2   0.080000       12.0110           0
    3689 MEMB 51   POPE HX   HAL2   0.090000        1.0080           0
    3690 MEMB 51   POPE HY   HAL2   0.090000        1.0080           0
    3691 MEMB 51   POPE O31  OSL   -0.490000       15.9994           0
    3692 MEMB 51   POPE C31  CL     0.900000       12.0110           0
    3693 MEMB 51   POPE O32  OBL   -0.630000       15.9994           0
    3694 MEMB 51   POPE C32  CTL2  -0.220000       12.0110           0
    3695 MEMB 51   POPE H2X  HAL2   0.090000        1.0080           0
    3696 MEMB 51   POPE H2Y  HAL2   0.090000        1.0080           0
    3697 MEMB 51   POPE C23  CTL2  -0.180000       12.0110           0
    3698 MEMB 51   POPE H3R  HAL2   0.090000        1.0080           0
    3699 MEMB 51   POPE H3S  HAL2   0.090000        1.0080           0
    3700 MEMB 51   POPE C24  CTL2  -0.180000       12.0110           0
    3701 MEMB 51   POPE H4R  HAL2   0.090000        1.0080           0
    3702 MEMB 51   POPE H4S  HAL2   0.090000        1.0080           0
    3703 MEMB 51   POPE C25  CTL2  -0.180000       12.0110           0
    3704 MEMB 51   POPE H5R  HAL2   0.090000        1.0080           0
    3705 MEMB 51   POPE H5S  HAL2   0.090000        1.0080           0
    3706 MEMB 51   POPE C26  CTL3  -0.270000       12.0110           0
    3707 MEMB 51   POPE H6R  HAL3   0.090000        1.0080           0
    3708 MEMB 51   POPE H6S  HAL3   0.090000        1.0080           0
    3709 MEMB 51   POPE H6T  HAL3   0.090000        1.0080           0
    3710 MEMB 51   POPE C33  CTL2  -0.180000       12.0110           0
    3711 MEMB 51   POPE H3X  HAL2   0.090000        1.0080           0
    3712 MEMB 51   POPE H3Y  HAL2   0.090000        1.0080           0
    3713 MEMB 51   POPE C34  CTL2  -0.180000       12.0110           0
    3714 MEMB 51   POPE H4X  HAL2   0.090000        1.0080           0
    3715 MEMB 51   POPE H4Y  HAL2   0.090000        1.0080           0
    3716 MEMB 51   POPE C35  CTL2  -0.180000       12.0110           0
    3717 MEMB 51   POPE H5X  HAL2   0.090000        1.0080           0
    3718 MEMB 51   POPE H5Y  HAL2   0.090000        1.0080           0
    3719 MEMB 51   POPE C36  CTL3  -0.270000       12.0110           0
    3720 MEMB 51   POPE H6X  HAL3   0.090000        1.0080           0
    3721 MEMB 51   POPE H6Y  HAL3   0.090000        1.0080           0
    3722 MEMB 51   POPE H6Z  HAL3   0.090000        1.0080           0
    3723 MEMB 52   POPE N    NH3L  -0.300000       14.0070           0
    3724 MEMB 52   POPE HN1  HCL    0.330000        1.0080           0
    3725 MEMB 52   POPE HN2  HCL    0.330000        1.0080           0
    3726 MEMB 52   POPE HN3  HCL    0.330000        1.0080           0
    3727 MEMB 52   POPE C12  CTL2   0.130000       12.0110           0
    3728 MEMB 52   POPE H12A HAL2   0.090000        1.0080           0
    3729 MEMB 52   POPE H12B HAL2   0.090000        1.0080           0
    3730 MEMB 52   POPE C11  CTL2  -0.080000       12.0110           0
    3731 MEMB 52   POPE H11A HAL2   0.090000        1.0080           0
    3732 MEMB 52   POPE H11B HAL2   0.090000        1.0080           0
    3733 MEMB 52   POPE P    PL     1.500000       30.9740           0
    3734 MEMB 52   POPE O13  O2L   -0.780000       15.9994           0
    3735 MEMB 52   POPE O14  O2L   -0.780000       15.9994           0
    3736 MEMB 52   POPE O11  OSLP  -0.570000       15.9994           0
    3737 MEMB 52   POPE O12  OSLP  -0.570000       15.9994           0
    3738 MEMB 52   POPE C1   CTL2  -0.080000       12.0110           0
    3739 MEMB 52   POPE HA   HAL2   0.090000        1.0080           0
    3740 MEMB 52   POPE HB   HAL2   0.090000        1.0080           0
    3741 MEMB 52   POPE C2   CTL1   0.170000       12.0110           0
    3742 MEMB 52   POPE HS   HAL1   0.090000        1.0080           0
    3743 MEMB 52   POPE O21  OSL   -0.490000       15.9994           0
    3744 MEMB 52   POPE C21  CL     0.900000       12.0110           0
    3745 MEMB 52   POPE O22  OBL   -0.630000       15.9994           0
    3746 MEMB 52   POPE C22  CTL2  -0.220000       12.0110           0
    3747 MEMB 52   POPE H2R  HAL2   0.090000        1.0080           0
    3748 MEMB 52   POPE H2S  HAL2   0.090000        1.0080           0
    3749 MEMB 52   POPE C3   CTL2   0.080000       12.0110           0
    3750 MEMB 52   POPE HX   HAL2   0.090000        1.0080           0
    3751 MEMB 52   POPE HY   HAL2   0.090000        1.0080           0
    3752 MEMB 52   POPE O31  OSL   -0.490000       15.9994           0
    3753 MEMB 52   POPE C31  CL     0.900000       12.0110           0
    3754 MEMB 52   POPE O32  OBL   -0.630000       15.9994           0
    3755 MEMB 52   POPE C32  CTL2  -0.220000       12.0110           0
    3756 MEMB 52   POPE H2X  HAL2   0.090000        1.0080           0
    3757 MEMB 52   POPE H2Y  HAL2   0.090000        1.0080           0
    3758 MEMB 52   POPE C23  CTL2  -0.180000       12.0110           0
    3759 MEMB 52   POPE H3R  HAL2   0.090000        1.0080           0
    3760 MEMB 52   POPE H3S  HAL2   0.090000        1.0080           0
    3761 MEMB 52   POPE C24  CTL2  -0.180000       12.0110           0
    3762 MEMB 52   POPE H4R  HAL2   0.090000        1.0080           0
    3763 MEMB 52   POPE H4S  HAL2   0.090000        1.0080           0
    3764 MEMB 52   POPE C25  CTL2  -0.180000       12.0110           0
    3765 MEMB 52   POPE H5R  HAL2   0.090000        1.0080           0
    3766 MEMB 52   POPE H5S  HAL2   0.090000        1.0080           0
    3767 MEMB 52   POPE C26  CTL3  -0.270000       12.0110           0
    3768 MEMB 52   POPE H6R  HAL3   0.090000        1.0080           0
    3769 MEMB 52   POPE H6S  HAL3   0.090000        1.0080           0
    3770 MEMB 52   POPE H6T  HAL3   0.090000        1.0080           0
    3771 MEMB 52   POPE C33  CTL2  -0.180000       12.0110           0
    3772 MEMB 52   POPE H3X  HAL2   0.090000        1.0080           0
    3773 MEMB 52   POPE H3Y  HAL2   0.090000        1.0080           0
    3774 MEMB 52   POPE C34  CTL2  -0.180000       12.0110           0
    3775 MEMB 52   POPE H4X  HAL2   0.090000        1.0080           0
    3776 MEMB 52   POPE H4Y  HAL2   0.090000        1.0080           0
    3777 MEMB 52   POPE C35  CTL2  -0.180000       12.0110           0
    3778 MEMB 52   POPE H5X  HAL2   0.090000        1.0080           0
    3779 MEMB 52   POPE H5Y  HAL2   0.090000        1.0080           0
    3780 MEMB 52   POPE C36  CTL3  -0.270000       12.0110           0
    3781 MEMB 52   POPE H6X  HAL3   0.090000        1.0080           0
    3782 MEMB 52   POPE H6Y  HAL3   0.090000        1.0080           0
    3783 MEMB 52   POPE H6Z  HAL3   0.090000        1.0080           0
    3784 MEMB 53   PSM  N    NTL   -0.600000       14.0070           0
    3785 MEMB 53   PSM  C15  CTL5  -0.350000       12.0110           0
    3786 MEMB 53   PSM  H15A HL     0.250000        1.0080           0
    3787 MEMB 53   PSM  H15B HL     0.250000        1.0080           0
    3788 MEMB 53   PSM  H15C HL     0.250000        1.0080           0
    3789 MEMB 53   PSM  C14  CTL5  -0.350000       12.0110           0
    3790 MEMB 53   PSM  H14A HL     0.250000        1.0080           0
    3791 MEMB 53   PSM  H14B HL     0.250000        1.0080           0
    3792 MEMB 53   PSM  H14C HL     0.250000        1.0080           0
    3793 MEMB 53   PSM  C13  CTL5  -0.350000       12.0110           0
    3794 MEMB 53   PSM  H13A HL     0.250000        1.0080           0
    3795 MEMB 53   PSM  H13B HL     0.250000        1.0080           0
    3796 MEMB 53   PSM  H13C HL     0.250000        1.0080           0
    3797 MEMB 53   PSM  C12  CTL2  -0.100000       12.0110           0
    3798 MEMB 53   PSM  H12A HL     0.250000        1.0080           0
    3799 MEMB 53   PSM  H12B HL     0.250000        1.0080           0
    3800 MEMB 53   PSM  C11  CTL2  -0.080000       12.0110           0
    3801 MEMB 53   PSM  H11A HAL2   0.090000        1.0080           0
    3802 MEMB 53   PSM  H11B HAL2   0.090000        1.0080           0
    3803 MEMB 53   PSM  P    PL     1.500000       30.9740           0
    3804 MEMB 53   PSM  O13  O2L   -0.780000       15.9994           0
    3805 MEMB 53   PSM  O14  O2L   -0.780000       15.9994           0
    3806 MEMB 53   PSM  O11  OSLP  -0.570000       15.9994           0
    3807 MEMB 53   PSM  O12  OSLP  -0.570000       15.9994           0
    3808 MEMB 53   PSM  C1S  CTL2  -0.080000       12.0110           0
    3809 MEMB 53   PSM  H1S  HAL2   0.090000        1.0080           0
    3810 MEMB 53   PSM  H1T  HAL2   0.090000        1.0080           0
    3811 MEMB 53   PSM  NF   NHL   -0.700000       14.0070           0
    3812 MEMB 53   PSM  HNF  H      0.350000        1.0080           0
    3813 MEMB 53   PSM  C2S  CTL1   0.300000       12.0110           0
    3814 MEMB 53   PSM  H2S  HAL1   0.050000        1.0080           0
    3815 MEMB 53   PSM  C3S  CTO1   0.500000       12.0110           0
    3816 MEMB 53   PSM  H3S  HAL1  -0.110000        1.0080           0
    3817 MEMB 53   PSM  O3   OHL   -0.690000       15.9994           0
    3818 MEMB 53   PSM  HO3  HOL    0.300000        1.0080           0
    3819 MEMB 53   PSM  C4S  CEL3  -0.150000       12.0110           0
    3820 MEMB 53   PSM  H4S  HEL1   0.150000        1.0080           0
    3821 MEMB 53   PSM  C5S  CEL3  -0.150000       12.0110           0
    3822 MEMB 53   PSM  H5S  HEL1   0.150000        1.0080           0
    3823 MEMB 53   PSM  C6S  CTL3  -0.270000       12.0110           0
    3824 MEMB 53   PSM  H6S  HAL3   0.090000        1.0080           0
    3825 MEMB 53   PSM  H6T  HAL3   0.090000        1.0080           0
    3826 MEMB 53   PSM  H6U  HAL3   0.090000        1.0080           0
    3827 MEMB 53   PSM  C1F  C      0.550000       12.0110           0
    3828 MEMB 53   PSM  OF   O     -0.600000       15.9994           0
    3829 MEMB 53   PSM  C2F  CTL2  -0.070000       12.0110           0
    3830 MEMB 53   PSM  H2F  HAL2   0.060000        1.0080           0
    3831 MEMB 53   PSM  H2G  HAL2   0.060000        1.0080           0
    3832 MEMB 53   PSM  C3F  CTL2  -0.180000       12.0110           0
    3833 MEMB 53   PSM  H3F  HAL2   0.090000        1.0080           0
    3834 MEMB 53   PSM  H3G  HAL2   0.090000        1.0080           0
    3835 MEMB 53   PSM  C4F  CTL2  -0.180000       12.0110           0
    3836 MEMB 53   PSM  H4F  HAL2   0.090000        1.0080           0
    3837 MEMB 53   PSM  H4G  HAL2   0.090000        1.0080           0
    3838 MEMB 53   PSM  C5F  CTL2  -0.180000       12.0110           0
    3839 MEMB 53   PSM  H5F  HAL2   0.090000        1.0080           0
    3840 MEMB 53   PSM  H5G  HAL2   0.090000        1.0080           0
    3841 MEMB 53   PSM  C6F  CTL3  -0.270000       12.0110           0
    3842 MEMB 53   PSM  H6F  HAL3   0.090000        1.0080           0
    3843 MEMB 53   PSM  H6G  HAL3   0.090000        1.0080           0
    3844 MEMB 53   PSM  H6H  HAL3   0.090000        1.0080           0
    3845 MEMB 54   POPS N    NH3L  -0.300000       14.0070           0
    3846 MEMB 54   POPS HN1  HCL    0.330000        1.0080           0
    3847 MEMB 54   POPS HN2  HCL    0.330000        1.0080           0
    3848 MEMB 54   POPS HN3  HCL    0.330000        1.0080           0
    3849 MEMB 54   POPS C12  CTL1   0.210000       12.0110           0
    3850 MEMB 54   POPS H12A HBL    0.100000        1.0080           0
    3851 MEMB 54   POPS C13  CCL    0.340000       12.0110           0
    3852 MEMB 54   POPS O13A OCL   -0.670000       15.9994           0
    3853 MEMB 54   POPS O13B OCL   -0.670000       15.9994           0
    3854 MEMB 54   POPS C11  CTL2  -0.080000       12.0110           0
    3855 MEMB 54   POPS H11A HAL2   0.090000        1.0080           0
    3856 MEMB 54   POPS H11B HAL2   0.090000        1.0080           0
    3857 MEMB 54   POPS P    PL     1.500000       30.9740           0
    3858 MEMB 54   POPS O13  O2L   -0.780000       15.9994           0
    3859 MEMB 54   POPS O14  O2L   -0.780000       15.9994           0
    3860 MEMB 54   POPS O12  OSLP  -0.570000       15.9994           0
    3861 MEMB 54   POPS O11  OSLP  -0.570000       15.9994           0
    3862 MEMB 54   POPS C1   CTL2  -0.080000       12.0110           0
    3863 MEMB 54   POPS HA   HAL2   0.090000        1.0080           0
    3864 MEMB 54   POPS HB   HAL2   0.090000        1.0080           0
    3865 MEMB 54   POPS C2   CTL1   0.170000       12.0110           0
    3866 MEMB 54   POPS HS   HAL1   0.090000        1.0080           0
    3867 MEMB 54   POPS O21  OSL   -0.490000       15.9994           0
    3868 MEMB 54   POPS C21  CL     0.900000       12.0110           0
    3869 MEMB 54   POPS O22  OBL   -0.630000       15.9994           0
    3870 MEMB 54   POPS C22  CTL2  -0.220000       12.0110           0
    3871 MEMB 54   POPS H2R  HAL2   0.090000        1.0080           0
    3872 MEMB 54   POPS H2S  HAL2   0.090000        1.0080           0
    3873 MEMB 54   POPS C3   CTL2   0.080000       12.0110           0
    3874 MEMB 54   POPS HX   HAL2   0.090000        1.0080           0
    3875 MEMB 54   POPS HY   HAL2   0.090000        1.0080           0
    3876 MEMB 54   POPS O31  OSL   -0.490000       15.9994           0
    3877 MEMB 54   POPS C31  CL     0.900000       12.0110           0
    3878 MEMB 54   POPS O32  OBL   -0.630000       15.9994           0
    3879 MEMB 54   POPS C32  CTL2  -0.220000       12.0110           0
    3880 MEMB 54   POPS H2X  HAL2   0.090000        1.0080           0
    3881 MEMB 54   POPS H2Y  HAL2   0.090000        1.0080           0
    3882 MEMB 54   POPS C23  CTL2  -0.180000       12.0110           0
    3883 MEMB 54   POPS H3R  HAL2   0.090000        1.0080           0
    3884 MEMB 54   POPS H3S  HAL2   0.090000        1.0080           0
    3885 MEMB 54   POPS C24  CTL2  -0.180000       12.0110           0
    3886 MEMB 54   POPS H4R  HAL2   0.090000        1.0080           0
    3887 MEMB 54   POPS H4S  HAL2   0.090000        1.0080           0
    3888 MEMB 54   POPS C25  CTL2  -0.180000       12.0110           0
    3889 MEMB 54   POPS H5R  HAL2   0.090000        1.0080           0
    3890 MEMB 54   POPS H5S  HAL2   0.090000        1.0080           0
    3891 MEMB 54   POPS C26  CTL3  -0.270000       12.0110           0
    3892 MEMB 54   POPS H6R  HAL3   0.090000        1.0080           0
    3893 MEMB 54   POPS H6S  HAL3   0.090000        1.0080           0
    3894 MEMB 54   POPS H6T  HAL3   0.090000        1.0080           0
    3895 MEMB 54   POPS C33  CTL2  -0.180000       12.0110           0
    3896 MEMB 54   POPS H3X  HAL2   0.090000        1.0080           0
    3897 MEMB 54   POPS H3Y  HAL2   0.090000        1.0080           0
    3898 MEMB 54   POPS C34  CTL2  -0.180000       12.0110           0
    3899 MEMB 54   POPS H4X  HAL2   0.090000        1.0080           0
    3900 MEMB 54   POPS H4Y  HAL2   0.090000        1.0080           0
    3901 MEMB 54   POPS C35  CTL2  -0.180000       12.0110           0
    3902 MEMB 54   POPS H5X  HAL2   0.090000        1.0080           0
    3903 MEMB 54   POPS H5Y  HAL2   0.090000        1.0080           0
    3904 MEMB 54   POPS C36  CTL3  -0.270000       12.0110           0
    3905 MEMB 54   POPS H6X  HAL3   0.090000        1.0080           0
    3906 MEMB 54   POPS H6Y  HAL3   0.090000        1.0080           0
    3907 MEMB 54   POPS H6Z  HAL3   0.090000        1.0080           0
    3908 MEMB 55   POPE N    NH3L  -0.300000       14.0070           0
    3909 MEMB 55   POPE HN1  HCL    0.330000        1.0080           0
    3910 MEMB 55   POPE HN2  HCL    0.330000        1.0080           0
    3911 MEMB 55   POPE HN3  HCL    0.330000        1.0080           0
    3912 MEMB 55   POPE C12  CTL2   0.130000       12.0110           0
    3913 MEMB 55   POPE H12A HAL2   0.090000        1.0080           0
    3914 MEMB 55   POPE H12B HAL2   0.090000        1.0080           0
    3915 MEMB 55   POPE C11  CTL2  -0.080000       12.0110           0
    3916 MEMB 55   POPE H11A HAL2   0.090000        1.0080           0
    3917 MEMB 55   POPE H11B HAL2   0.090000        1.0080           0
    3918 MEMB 55   POPE P    PL     1.500000       30.9740           0
    3919 MEMB 55   POPE O13  O2L   -0.780000       15.9994           0
    3920 MEMB 55   POPE O14  O2L   -0.780000       15.9994           0
    3921 MEMB 55   POPE O11  OSLP  -0.570000       15.9994           0
    3922 MEMB 55   POPE O12  OSLP  -0.570000       15.9994           0
    3923 MEMB 55   POPE C1   CTL2  -0.080000       12.0110           0
    3924 MEMB 55   POPE HA   HAL2   0.090000        1.0080           0
    3925 MEMB 55   POPE HB   HAL2   0.090000        1.0080           0
    3926 MEMB 55   POPE C2   CTL1   0.170000       12.0110           0
    3927 MEMB 55   POPE HS   HAL1   0.090000        1.0080           0
    3928 MEMB 55   POPE O21  OSL   -0.490000       15.9994           0
    3929 MEMB 55   POPE C21  CL     0.900000       12.0110           0
    3930 MEMB 55   POPE O22  OBL   -0.630000       15.9994           0
    3931 MEMB 55   POPE C22  CTL2  -0.220000       12.0110           0
    3932 MEMB 55   POPE H2R  HAL2   0.090000        1.0080           0
    3933 MEMB 55   POPE H2S  HAL2   0.090000        1.0080           0
    3934 MEMB 55   POPE C3   CTL2   0.080000       12.0110           0
    3935 MEMB 55   POPE HX   HAL2   0.090000        1.0080           0
    3936 MEMB 55   POPE HY   HAL2   0.090000        1.0080           0
    3937 MEMB 55   POPE O31  OSL   -0.490000       15.9994           0
    3938 MEMB 55   POPE C31  CL     0.900000       12.0110           0
    3939 MEMB 55   POPE O32  OBL   -0.630000       15.9994           0
    3940 MEMB 55   POPE C32  CTL2  -0.220000       12.0110           0
    3941 MEMB 55   POPE H2X  HAL2   0.090000        1.0080           0
    3942 MEMB 55   POPE H2Y  HAL2   0.090000        1.0080           0
    3943 MEMB 55   POPE C23  CTL2  -0.180000       12.0110           0
    3944 MEMB 55   POPE H3R  HAL2   0.090000        1.0080           0
    3945 MEMB 55   POPE H3S  HAL2   0.090000        1.0080           0
    3946 MEMB 55   POPE C24  CTL2  -0.180000       12.0110           0
    3947 MEMB 55   POPE H4R  HAL2   0.090000        1.0080           0
    3948 MEMB 55   POPE H4S  HAL2   0.090000        1.0080           0
    3949 MEMB 55   POPE C25  CTL2  -0.180000       12.0110           0
    3950 MEMB 55   POPE H5R  HAL2   0.090000        1.0080           0
    3951 MEMB 55   POPE H5S  HAL2   0.090000        1.0080           0
    3952 MEMB 55   POPE C26  CTL3  -0.270000       12.0110           0
    3953 MEMB 55   POPE H6R  HAL3   0.090000        1.0080           0
    3954 MEMB 55   POPE H6S  HAL3   0.090000        1.0080           0
    3955 MEMB 55   POPE H6T  HAL3   0.090000        1.0080           0
    3956 MEMB 55   POPE C33  CTL2  -0.180000       12.0110           0
    3957 MEMB 55   POPE H3X  HAL2   0.090000        1.0080           0
    3958 MEMB 55   POPE H3Y  HAL2   0.090000        1.0080           0
    3959 MEMB 55   POPE C34  CTL2  -0.180000       12.0110           0
    3960 MEMB 55   POPE H4X  HAL2   0.090000        1.0080           0
    3961 MEMB 55   POPE H4Y  HAL2   0.090000        1.0080           0
    3962 MEMB 55   POPE C35  CTL2  -0.180000       12.0110           0
    3963 MEMB 55   POPE H5X  HAL2   0.090000        1.0080           0
    3964 MEMB 55   POPE H5Y  HAL2   0.090000        1.0080           0
    3965 MEMB 55   POPE C36  CTL3  -0.270000       12.0110           0
    3966 MEMB 55   POPE H6X  HAL3   0.090000        1.0080           0
    3967 MEMB 55   POPE H6Y  HAL3   0.090000        1.0080           0
    3968 MEMB 55   POPE H6Z  HAL3   0.090000        1.0080           0
    3969 MEMB 56   POPC N    NTL   -0.600000       14.0070           0
    3970 MEMB 56   POPC C12  CTL2  -0.100000       12.0110           0
    3971 MEMB 56   POPC H12A HL     0.250000        1.0080           0
    3972 MEMB 56   POPC H12B HL     0.250000        1.0080           0
    3973 MEMB 56   POPC C13  CTL5  -0.350000       12.0110           0
    3974 MEMB 56   POPC H13A HL     0.250000        1.0080           0
    3975 MEMB 56   POPC H13B HL     0.250000        1.0080           0
    3976 MEMB 56   POPC H13C HL     0.250000        1.0080           0
    3977 MEMB 56   POPC C14  CTL5  -0.350000       12.0110           0
    3978 MEMB 56   POPC H14A HL     0.250000        1.0080           0
    3979 MEMB 56   POPC H14B HL     0.250000        1.0080           0
    3980 MEMB 56   POPC H14C HL     0.250000        1.0080           0
    3981 MEMB 56   POPC C15  CTL5  -0.350000       12.0110           0
    3982 MEMB 56   POPC H15A HL     0.250000        1.0080           0
    3983 MEMB 56   POPC H15B HL     0.250000        1.0080           0
    3984 MEMB 56   POPC H15C HL     0.250000        1.0080           0
    3985 MEMB 56   POPC C11  CTL2  -0.080000       12.0110           0
    3986 MEMB 56   POPC H11A HAL2   0.090000        1.0080           0
    3987 MEMB 56   POPC H11B HAL2   0.090000        1.0080           0
    3988 MEMB 56   POPC P    PL     1.500000       30.9740           0
    3989 MEMB 56   POPC O13  O2L   -0.780000       15.9994           0
    3990 MEMB 56   POPC O14  O2L   -0.780000       15.9994           0
    3991 MEMB 56   POPC O12  OSLP  -0.570000       15.9994           0
    3992 MEMB 56   POPC O11  OSLP  -0.570000       15.9994           0
    3993 MEMB 56   POPC C1   CTL2  -0.080000       12.0110           0
    3994 MEMB 56   POPC HA   HAL2   0.090000        1.0080           0
    3995 MEMB 56   POPC HB   HAL2   0.090000        1.0080           0
    3996 MEMB 56   POPC C2   CTL1   0.170000       12.0110           0
    3997 MEMB 56   POPC HS   HAL1   0.090000        1.0080           0
    3998 MEMB 56   POPC O21  OSL   -0.490000       15.9994           0
    3999 MEMB 56   POPC C21  CL     0.900000       12.0110           0
    4000 MEMB 56   POPC O22  OBL   -0.630000       15.9994           0
    4001 MEMB 56   POPC C22  CTL2  -0.220000       12.0110           0
    4002 MEMB 56   POPC H2R  HAL2   0.090000        1.0080           0
    4003 MEMB 56   POPC H2S  HAL2   0.090000        1.0080           0
    4004 MEMB 56   POPC C3   CTL2   0.080000       12.0110           0
    4005 MEMB 56   POPC HX   HAL2   0.090000        1.0080           0
    4006 MEMB 56   POPC HY   HAL2   0.090000        1.0080           0
    4007 MEMB 56   POPC O31  OSL   -0.490000       15.9994           0
    4008 MEMB 56   POPC C31  CL     0.900000       12.0110           0
    4009 MEMB 56   POPC O32  OBL   -0.630000       15.9994           0
    4010 MEMB 56   POPC C32  CTL2  -0.220000       12.0110           0
    4011 MEMB 56   POPC H2X  HAL2   0.090000        1.0080           0
    4012 MEMB 56   POPC H2Y  HAL2   0.090000        1.0080           0
    4013 MEMB 56   POPC C23  CTL2  -0.180000       12.0110           0
    4014 MEMB 56   POPC H3R  HAL2   0.090000        1.0080           0
    4015 MEMB 56   POPC H3S  HAL2   0.090000        1.0080           0
    4016 MEMB 56   POPC C24  CTL2  -0.180000       12.0110           0
    4017 MEMB 56   POPC H4R  HAL2   0.090000        1.0080           0
    4018 MEMB 56   POPC H4S  HAL2   0.090000        1.0080           0
    4019 MEMB 56   POPC C25  CTL2  -0.180000       12.0110           0
    4020 MEMB 56   POPC H5R  HAL2   0.090000        1.0080           0
    4021 MEMB 56   POPC H5S  HAL2   0.090000        1.0080           0
    4022 MEMB 56   POPC C26  CTL3  -0.270000       12.0110           0
    4023 MEMB 56   POPC H6R  HAL3   0.090000        1.0080           0
    4024 MEMB 56   POPC H6S  HAL3   0.090000        1.0080           0
    4025 MEMB 56   POPC H6T  HAL3   0.090000        1.0080           0
    4026 MEMB 56   POPC C33  CTL2  -0.180000       12.0110           0
    4027 MEMB 56   POPC H3X  HAL2   0.090000        1.0080           0
    4028 MEMB 56   POPC H3Y  HAL2   0.090000        1.0080           0
    4029 MEMB 56   POPC C34  CTL2  -0.180000       12.0110           0
    4030 MEMB 56   POPC H4X  HAL2   0.090000        1.0080           0
    4031 MEMB 56   POPC H4Y  HAL2   0.090000        1.0080           0
    4032 MEMB 56   POPC C35  CTL2  -0.180000       12.0110           0
    4033 MEMB 56   POPC H5X  HAL2   0.090000        1.0080           0
    4034 MEMB 56   POPC H5Y  HAL2   0.090000        1.0080           0
    4035 MEMB 56   POPC C36  CTL3  -0.270000       12.0110           0
    4036 MEMB 56   POPC H6X  HAL3   0.090000        1.0080           0
    4037 MEMB 56   POPC H6Y  HAL3   0.090000        1.0080           0
    4038 MEMB 56   POPC H6Z  HAL3   0.090000        1.0080           0
    4039 MEMB 57   POPE N    NH3L  -0.300000       14.0070           0
    4040 MEMB 57   POPE HN1  HCL    0.330000        1.0080           0
    4041 MEMB 57   POPE HN2  HCL    0.330000        1.0080           0
    4042 MEMB 57   POPE HN3  HCL    0.330000        1.0080           0
    4043 MEMB 57   POPE C12  CTL2   0.130000       12.0110           0
    4044 MEMB 57   POPE H12A HAL2   0.090000        1.0080           0
    4045 MEMB 57   POPE H12B HAL2   0.090000        1.0080           0
    4046 MEMB 57   POPE C11  CTL2  -0.080000       12.0110           0
    4047 MEMB 57   POPE H11A HAL2   0.090000        1.0080           0
    4048 MEMB 57   POPE H11B HAL2   0.090000        1.0080           0
    4049 MEMB 57   POPE P    PL     1.500000       30.9740           0
    4050 MEMB 57   POPE O13  O2L   -0.780000       15.9994           0
    4051 MEMB 57   POPE O14  O2L   -0.780000       15.9994           0
    4052 MEMB 57   POPE O11  OSLP  -0.570000       15.9994           0
    4053 MEMB 57   POPE O12  OSLP  -0.570000       15.9994           0
    4054 MEMB 57   POPE C1   CTL2  -0.080000       12.0110           0
    4055 MEMB 57   POPE HA   HAL2   0.090000        1.0080           0
    4056 MEMB 57   POPE HB   HAL2   0.090000        1.0080           0
    4057 MEMB 57   POPE C2   CTL1   0.170000       12.0110           0
    4058 MEMB 57   POPE HS   HAL1   0.090000        1.0080           0
    4059 MEMB 57   POPE O21  OSL   -0.490000       15.9994           0
    4060 MEMB 57   POPE C21  CL     0.900000       12.0110           0
    4061 MEMB 57   POPE O22  OBL   -0.630000       15.9994           0
    4062 MEMB 57   POPE C22  CTL2  -0.220000       12.0110           0
    4063 MEMB 57   POPE H2R  HAL2   0.090000        1.0080           0
    4064 MEMB 57   POPE H2S  HAL2   0.090000        1.0080           0
    4065 MEMB 57   POPE C3   CTL2   0.080000       12.0110           0
    4066 MEMB 57   POPE HX   HAL2   0.090000        1.0080           0
    4067 MEMB 57   POPE HY   HAL2   0.090000        1.0080           0
    4068 MEMB 57   POPE O31  OSL   -0.490000       15.9994           0
    4069 MEMB 57   POPE C31  CL     0.900000       12.0110           0
    4070 MEMB 57   POPE O32  OBL   -0.630000       15.9994           0
    4071 MEMB 57   POPE C32  CTL2  -0.220000       12.0110           0
    4072 MEMB 57   POPE H2X  HAL2   0.090000        1.0080           0
    4073 MEMB 57   POPE H2Y  HAL2   0.090000        1.0080           0
    4074 MEMB 57   POPE C23  CTL2  -0.180000       12.0110           0
    4075 MEMB 57   POPE H3R  HAL2   0.090000        1.0080           0
    4076 MEMB 57   POPE H3S  HAL2   0.090000        1.0080           0
    4077 MEMB 57   POPE C24  CTL2  -0.180000       12.0110           0
    4078 MEMB 57   POPE H4R  HAL2   0.090000        1.0080           0
    4079 MEMB 57   POPE H4S  HAL2   0.090000        1.0080           0
    4080 MEMB 57   POPE C25  CTL2  -0.180000       12.0110           0
    4081 MEMB 57   POPE H5R  HAL2   0.090000        1.0080           0
    4082 MEMB 57   POPE H5S  HAL2   0.090000        1.0080           0
    4083 MEMB 57   POPE C26  CTL3  -0.270000       12.0110           0
    4084 MEMB 57   POPE H6R  HAL3   0.090000        1.0080           0
    4085 MEMB 57   POPE H6S  HAL3   0.090000        1.0080           0
    4086 MEMB 57   POPE H6T  HAL3   0.090000        1.0080           0
    4087 MEMB 57   POPE C33  CTL2  -0.180000       12.0110           0
    4088 MEMB 57   POPE H3X  HAL2   0.090000        1.0080           0
    4089 MEMB 57   POPE H3Y  HAL2   0.090000        1.0080           0
    4090 MEMB 57   POPE C34  CTL2  -0.180000       12.0110           0
    4091 MEMB 57   POPE H4X  HAL2   0.090000        1.0080           0
    4092 MEMB 57   POPE H4Y  HAL2   0.090000        1.0080           0
    4093 MEMB 57   POPE C35  CTL2  -0.180000       12.0110           0
    4094 MEMB 57   POPE H5X  HAL2   0.090000        1.0080           0
    4095 MEMB 57   POPE H5Y  HAL2   0.090000        1.0080           0
    4096 MEMB 57   POPE C36  CTL3  -0.270000       12.0110           0
    4097 MEMB 57   POPE H6X  HAL3   0.090000        1.0080           0
    4098 MEMB 57   POPE H6Y  HAL3   0.090000        1.0080           0
    4099 MEMB 57   POPE H6Z  HAL3   0.090000        1.0080           0
    4100 MEMB 58   POPC N    NTL   -0.600000       14.0070           0
    4101 MEMB 58   POPC C12  CTL2  -0.100000       12.0110           0
    4102 MEMB 58   POPC H12A HL     0.250000        1.0080           0
    4103 MEMB 58   POPC H12B HL     0.250000        1.0080           0
    4104 MEMB 58   POPC C13  CTL5  -0.350000       12.0110           0
    4105 MEMB 58   POPC H13A HL     0.250000        1.0080           0
    4106 MEMB 58   POPC H13B HL     0.250000        1.0080           0
    4107 MEMB 58   POPC H13C HL     0.250000        1.0080           0
    4108 MEMB 58   POPC C14  CTL5  -0.350000       12.0110           0
    4109 MEMB 58   POPC H14A HL     0.250000        1.0080           0
    4110 MEMB 58   POPC H14B HL     0.250000        1.0080           0
    4111 MEMB 58   POPC H14C HL     0.250000        1.0080           0
    4112 MEMB 58   POPC C15  CTL5  -0.350000       12.0110           0
    4113 MEMB 58   POPC H15A HL     0.250000        1.0080           0
    4114 MEMB 58   POPC H15B HL     0.250000        1.0080           0
    4115 MEMB 58   POPC H15C HL     0.250000        1.0080           0
    4116 MEMB 58   POPC C11  CTL2  -0.080000       12.0110           0
    4117 MEMB 58   POPC H11A HAL2   0.090000        1.0080           0
    4118 MEMB 58   POPC H11B HAL2   0.090000        1.0080           0
    4119 MEMB 58   POPC P    PL     1.500000       30.9740           0
    4120 MEMB 58   POPC O13  O2L   -0.780000       15.9994           0
    4121 MEMB 58   POPC O14  O2L   -0.780000       15.9994           0
    4122 MEMB 58   POPC O12  OSLP  -0.570000       15.9994           0
    4123 MEMB 58   POPC O11  OSLP  -0.570000       15.9994           0
    4124 MEMB 58   POPC C1   CTL2  -0.080000       12.0110           0
    4125 MEMB 58   POPC HA   HAL2   0.090000        1.0080           0
    4126 MEMB 58   POPC HB   HAL2   0.090000        1.0080           0
    4127 MEMB 58   POPC C2   CTL1   0.170000       12.0110           0
    4128 MEMB 58   POPC HS   HAL1   0.090000        1.0080           0
    4129 MEMB 58   POPC O21  OSL   -0.490000       15.9994           0
    4130 MEMB 58   POPC C21  CL     0.900000       12.0110           0
    4131 MEMB 58   POPC O22  OBL   -0.630000       15.9994           0
    4132 MEMB 58   POPC C22  CTL2  -0.220000       12.0110           0
    4133 MEMB 58   POPC H2R  HAL2   0.090000        1.0080           0
    4134 MEMB 58   POPC H2S  HAL2   0.090000        1.0080           0
    4135 MEMB 58   POPC C3   CTL2   0.080000       12.0110           0
    4136 MEMB 58   POPC HX   HAL2   0.090000        1.0080           0
    4137 MEMB 58   POPC HY   HAL2   0.090000        1.0080           0
    4138 MEMB 58   POPC O31  OSL   -0.490000       15.9994           0
    4139 MEMB 58   POPC C31  CL     0.900000       12.0110           0
    4140 MEMB 58   POPC O32  OBL   -0.630000       15.9994           0
    4141 MEMB 58   POPC C32  CTL2  -0.220000       12.0110           0
    4142 MEMB 58   POPC H2X  HAL2   0.090000        1.0080           0
    4143 MEMB 58   POPC H2Y  HAL2   0.090000        1.0080           0
    4144 MEMB 58   POPC C23  CTL2  -0.180000       12.0110           0
    4145 MEMB 58   POPC H3R  HAL2   0.090000        1.0080           0
    4146 MEMB 58   POPC H3S  HAL2   0.090000        1.0080           0
    4147 MEMB 58   POPC C24  CTL2  -0.180000       12.0110           0
    4148 MEMB 58   POPC H4R  HAL2   0.090000        1.0080           0
    4149 MEMB 58   POPC H4S  HAL2   0.090000        1.0080           0
    4150 MEMB 58   POPC C25  CTL2  -0.180000       12.0110           0
    4151 MEMB 58   POPC H5R  HAL2   0.090000        1.0080           0
    4152 MEMB 58   POPC H5S  HAL2   0.090000        1.0080           0
    4153 MEMB 58   POPC C26  CTL3  -0.270000       12.0110           0
    4154 MEMB 58   POPC H6R  HAL3   0.090000        1.0080           0
    4155 MEMB 58   POPC H6S  HAL3   0.090000        1.0080           0
    4156 MEMB 58   POPC H6T  HAL3   0.090000        1.0080           0
    4157 MEMB 58   POPC C33  CTL2  -0.180000       12.0110           0
    4158 MEMB 58   POPC H3X  HAL2   0.090000        1.0080           0
    4159 MEMB 58   POPC H3Y  HAL2   0.090000        1.0080           0
    4160 MEMB 58   POPC C34  CTL2  -0.180000       12.0110           0
    4161 MEMB 58   POPC H4X  HAL2   0.090000        1.0080           0
    4162 MEMB 58   POPC H4Y  HAL2   0.090000        1.0080           0
    4163 MEMB 58   POPC C35  CTL2  -0.180000       12.0110           0
    4164 MEMB 58   POPC H5X  HAL2   0.090000        1.0080           0
    4165 MEMB 58   POPC H5Y  HAL2   0.090000        1.0080           0
    4166 MEMB 58   POPC C36  CTL3  -0.270000       12.0110           0
    4167 MEMB 58   POPC H6X  HAL3   0.090000        1.0080           0
    4168 MEMB 58   POPC H6Y  HAL3   0.090000        1.0080           0
    4169 MEMB 58   POPC H6Z  HAL3   0.090000        1.0080           0
    4170 MEMB 59   POPC N    NTL   -0.600000       14.0070           0
    4171 MEMB 59   POPC C12  CTL2  -0.100000       12.0110           0
    4172 MEMB 59   POPC H12A HL     0.250000        1.0080           0
    4173 MEMB 59   POPC H12B HL     0.250000        1.0080           0
    4174 MEMB 59   POPC C13  CTL5  -0.350000       12.0110           0
    4175 MEMB 59   POPC H13A HL     0.250000        1.0080           0
    4176 MEMB 59   POPC H13B HL     0.250000        1.0080           0
    4177 MEMB 59   POPC H13C HL     0.250000        1.0080           0
    4178 MEMB 59   POPC C14  CTL5  -0.350000       12.0110           0
    4179 MEMB 59   POPC H14A HL     0.250000        1.0080           0
    4180 MEMB 59   POPC H14B HL     0.250000        1.0080           0
    4181 MEMB 59   POPC H14C HL     0.250000        1.0080           0
    4182 MEMB 59   POPC C15  CTL5  -0.350000       12.0110           0
    4183 MEMB 59   POPC H15A HL     0.250000        1.0080           0
    4184 MEMB 59   POPC H15B HL     0.250000        1.0080           0
    4185 MEMB 59   POPC H15C HL     0.250000        1.0080           0
    4186 MEMB 59   POPC C11  CTL2  -0.080000       12.0110           0
    4187 MEMB 59   POPC H11A HAL2   0.090000        1.0080           0
    4188 MEMB 59   POPC H11B HAL2   0.090000        1.0080           0
    4189 MEMB 59   POPC P    PL     1.500000       30.9740           0
    4190 MEMB 59   POPC O13  O2L   -0.780000       15.9994           0
    4191 MEMB 59   POPC O14  O2L   -0.780000       15.9994           0
    4192 MEMB 59   POPC O12  OSLP  -0.570000       15.9994           0
    4193 MEMB 59   POPC O11  OSLP  -0.570000       15.9994           0
    4194 MEMB 59   POPC C1   CTL2  -0.080000       12.0110           0
    4195 MEMB 59   POPC HA   HAL2   0.090000        1.0080           0
    4196 MEMB 59   POPC HB   HAL2   0.090000        1.0080           0
    4197 MEMB 59   POPC C2   CTL1   0.170000       12.0110           0
    4198 MEMB 59   POPC HS   HAL1   0.090000        1.0080           0
    4199 MEMB 59   POPC O21  OSL   -0.490000       15.9994           0
    4200 MEMB 59   POPC C21  CL     0.900000       12.0110           0
    4201 MEMB 59   POPC O22  OBL   -0.630000       15.9994           0
    4202 MEMB 59   POPC C22  CTL2  -0.220000       12.0110           0
    4203 MEMB 59   POPC H2R  HAL2   0.090000        1.0080           0
    4204 MEMB 59   POPC H2S  HAL2   0.090000        1.0080           0
    4205 MEMB 59   POPC C3   CTL2   0.080000       12.0110           0
    4206 MEMB 59   POPC HX   HAL2   0.090000        1.0080           0
    4207 MEMB 59   POPC HY   HAL2   0.090000        1.0080           0
    4208 MEMB 59   POPC O31  OSL   -0.490000       15.9994           0
    4209 MEMB 59   POPC C31  CL     0.900000       12.0110           0
    4210 MEMB 59   POPC O32  OBL   -0.630000       15.9994           0
    4211 MEMB 59   POPC C32  CTL2  -0.220000       12.0110           0
    4212 MEMB 59   POPC H2X  HAL2   0.090000        1.0080           0
    4213 MEMB 59   POPC H2Y  HAL2   0.090000        1.0080           0
    4214 MEMB 59   POPC C23  CTL2  -0.180000       12.0110           0
    4215 MEMB 59   POPC H3R  HAL2   0.090000        1.0080           0
    4216 MEMB 59   POPC H3S  HAL2   0.090000        1.0080           0
    4217 MEMB 59   POPC C24  CTL2  -0.180000       12.0110           0
    4218 MEMB 59   POPC H4R  HAL2   0.090000        1.0080           0
    4219 MEMB 59   POPC H4S  HAL2   0.090000        1.0080           0
    4220 MEMB 59   POPC C25  CTL2  -0.180000       12.0110           0
    4221 MEMB 59   POPC H5R  HAL2   0.090000        1.0080           0
    4222 MEMB 59   POPC H5S  HAL2   0.090000        1.0080           0
    4223 MEMB 59   POPC C26  CTL3  -0.270000       12.0110           0
    4224 MEMB 59   POPC H6R  HAL3   0.090000        1.0080           0
    4225 MEMB 59   POPC H6S  HAL3   0.090000        1.0080           0
    4226 MEMB 59   POPC H6T  HAL3   0.090000        1.0080           0
    4227 MEMB 59   POPC C33  CTL2  -0.180000       12.0110           0
    4228 MEMB 59   POPC H3X  HAL2   0.090000        1.0080           0
    4229 MEMB 59   POPC H3Y  HAL2   0.090000        1.0080           0
    4230 MEMB 59   POPC C34  CTL2  -0.180000       12.0110           0
    4231 MEMB 59   POPC H4X  HAL2   0.090000        1.0080           0
    4232 MEMB 59   POPC H4Y  HAL2   0.090000        1.0080           0
    4233 MEMB 59   POPC C35  CTL2  -0.180000       12.0110           0
    4234 MEMB 59   POPC H5X  HAL2   0.090000        1.0080           0
    4235 MEMB 59   POPC H5Y  HAL2   0.090000        1.0080           0
    4236 MEMB 59   POPC C36  CTL3  -0.270000       12.0110           0
    4237 MEMB 59   POPC H6X  HAL3   0.090000        1.0080           0
    4238 MEMB 59   POPC H6Y  HAL3   0.090000        1.0080           0
    4239 MEMB 59   POPC H6Z  HAL3   0.090000        1.0080           0
    4240 MEMB 60   PSM  N    NTL   -0.600000       14.0070           0
    4241 MEMB 60   PSM  C15  CTL5  -0.350000       12.0110           0
    4242 MEMB 60   PSM  H15A HL     0.250000        1.0080           0
    4243 MEMB 60   PSM  H15B HL     0.250000        1.0080           0
    4244 MEMB 60   PSM  H15C HL     0.250000        1.0080           0
    4245 MEMB 60   PSM  C14  CTL5  -0.350000       12.0110           0
    4246 MEMB 60   PSM  H14A HL     0.250000        1.0080           0
    4247 MEMB 60   PSM  H14B HL     0.250000        1.0080           0
    4248 MEMB 60   PSM  H14C HL     0.250000        1.0080           0
    4249 MEMB 60   PSM  C13  CTL5  -0.350000       12.0110           0
    4250 MEMB 60   PSM  H13A HL     0.250000        1.0080           0
    4251 MEMB 60   PSM  H13B HL     0.250000        1.0080           0
    4252 MEMB 60   PSM  H13C HL     0.250000        1.0080           0
    4253 MEMB 60   PSM  C12  CTL2  -0.100000       12.0110           0
    4254 MEMB 60   PSM  H12A HL     0.250000        1.0080           0
    4255 MEMB 60   PSM  H12B HL     0.250000        1.0080           0
    4256 MEMB 60   PSM  C11  CTL2  -0.080000       12.0110           0
    4257 MEMB 60   PSM  H11A HAL2   0.090000        1.0080           0
    4258 MEMB 60   PSM  H11B HAL2   0.090000        1.0080           0
    4259 MEMB 60   PSM  P    PL     1.500000       30.9740           0
    4260 MEMB 60   PSM  O13  O2L   -0.780000       15.9994           0
    4261 MEMB 60   PSM  O14  O2L   -0.780000       15.9994           0
    4262 MEMB 60   PSM  O11  OSLP  -0.570000       15.9994           0
    4263 MEMB 60   PSM  O12  OSLP  -0.570000       15.9994           0
    4264 MEMB 60   PSM  C1S  CTL2  -0.080000       12.0110           0
    4265 MEMB 60   PSM  H1S  HAL2   0.090000        1.0080           0
    4266 MEMB 60   PSM  H1T  HAL2   0.090000        1.0080           0
    4267 MEMB 60   PSM  NF   NHL   -0.700000       14.0070           0
    4268 MEMB 60   PSM  HNF  H      0.350000        1.0080           0
    4269 MEMB 60   PSM  C2S  CTL1   0.300000       12.0110           0
    4270 MEMB 60   PSM  H2S  HAL1   0.050000        1.0080           0
    4271 MEMB 60   PSM  C3S  CTO1   0.500000       12.0110           0
    4272 MEMB 60   PSM  H3S  HAL1  -0.110000        1.0080           0
    4273 MEMB 60   PSM  O3   OHL   -0.690000       15.9994           0
    4274 MEMB 60   PSM  HO3  HOL    0.300000        1.0080           0
    4275 MEMB 60   PSM  C4S  CEL3  -0.150000       12.0110           0
    4276 MEMB 60   PSM  H4S  HEL1   0.150000        1.0080           0
    4277 MEMB 60   PSM  C5S  CEL3  -0.150000       12.0110           0
    4278 MEMB 60   PSM  H5S  HEL1   0.150000        1.0080           0
    4279 MEMB 60   PSM  C6S  CTL3  -0.270000       12.0110           0
    4280 MEMB 60   PSM  H6S  HAL3   0.090000        1.0080           0
    4281 MEMB 60   PSM  H6T  HAL3   0.090000        1.0080           0
    4282 MEMB 60   PSM  H6U  HAL3   0.090000        1.0080           0
    4283 MEMB 60   PSM  C1F  C      0.550000       12.0110           0
    4284 MEMB 60   PSM  OF   O     -0.600000       15.9994           0
    4285 MEMB 60   PSM  C2F  CTL2  -0.070000       12.0110           0
    4286 MEMB 60   PSM  H2F  HAL2   0.060000        1.0080           0
    4287 MEMB 60   PSM  H2G  HAL2   0.060000        1.0080           0
    4288 MEMB 60   PSM  C3F  CTL2  -0.180000       12.0110           0
    4289 MEMB 60   PSM  H3F  HAL2   0.090000        1.0080           0
    4290 MEMB 60   PSM  H3G  HAL2   0.090000        1.0080           0
    4291 MEMB 60   PSM  C4F  CTL2  -0.180000       12.0110           0
    4292 MEMB 60   PSM  H4F  HAL2   0.090000        1.0080           0
    4293 MEMB 60   PSM  H4G  HAL2   0.090000        1.0080           0
    4294 MEMB 60   PSM  C5F  CTL2  -0.180000       12.0110           0
    4295 MEMB 60   PSM  H5F  HAL2   0.090000        1.0080           0
    4296 MEMB 60   PSM  H5G  HAL2   0.090000        1.0080           0
    4297 MEMB 60   PSM  C6F  CTL3  -0.270000       12.0110           0
    4298 MEMB 60   PSM  H6F  HAL3   0.090000        1.0080           0
    4299 MEMB 60   PSM  H6G  HAL3   0.090000        1.0080           0
    4300 MEMB 60   PSM  H6H  HAL3   0.090000        1.0080           0
    4301 MEMB 61   CHL1 C3   CRL1   0.140000       12.0110           0
    4302 MEMB 61   CHL1 H3   HGA1   0.090000        1.0080           0
    4303 MEMB 61   CHL1 O3   OHL   -0.660000       15.9994           0
    4304 MEMB 61   CHL1 H3'  HOL    0.430000        1.0080           0
    4305 MEMB 61   CHL1 C4   CRL2  -0.180000       12.0110           0
    4306 MEMB 61   CHL1 H4A  HGA2   0.090000        1.0080           0
    4307 MEMB 61   CHL1 H4B  HGA2   0.090000        1.0080           0
    4308 MEMB 61   CHL1 C5   CEL1   0.000000       12.0110           0
    4309 MEMB 61   CHL1 C6   CEL1  -0.150000       12.0110           0
    4310 MEMB 61   CHL1 H6   HEL1   0.150000        1.0080           0
    4311 MEMB 61   CHL1 C7   CRL2  -0.180000       12.0110           0
    4312 MEMB 61   CHL1 H7A  HGA2   0.090000        1.0080           0
    4313 MEMB 61   CHL1 H7B  HGA2   0.090000        1.0080           0
    4314 MEMB 61   CHL1 C8   CRL1  -0.090000       12.0110           0
    4315 MEMB 61   CHL1 H8   HGA1   0.090000        1.0080           0
    4316 MEMB 61   CHL1 C14  CRL1  -0.090000       12.0110           0
    4317 MEMB 61   CHL1 H14  HGA1   0.090000        1.0080           0
    4318 MEMB 61   CHL1 C15  CRL2  -0.180000       12.0110           0
    4319 MEMB 61   CHL1 H15A HGA2   0.090000        1.0080           0
    4320 MEMB 61   CHL1 H15B HGA2   0.090000        1.0080           0
    4321 MEMB 61   CHL1 C16  CRL2  -0.180000       12.0110           0
    4322 MEMB 61   CHL1 H16A HGA2   0.090000        1.0080           0
    4323 MEMB 61   CHL1 H16B HGA2   0.090000        1.0080           0
    4324 MEMB 61   CHL1 C17  CRL1  -0.090000       12.0110           0
    4325 MEMB 61   CHL1 H17  HGA1   0.090000        1.0080           0
    4326 MEMB 61   CHL1 C13  CRL1   0.000000       12.0110           0
    4327 MEMB 61   CHL1 C18  CTL3  -0.270000       12.0110           0
    4328 MEMB 61   CHL1 H18A HAL3   0.090000        1.0080           0
    4329 MEMB 61   CHL1 H18B HAL3   0.090000        1.0080           0
    4330 MEMB 61   CHL1 H18C HAL3   0.090000        1.0080           0
    4331 MEMB 61   CHL1 C12  CRL2  -0.180000       12.0110           0
    4332 MEMB 61   CHL1 H12A HGA2   0.090000        1.0080           0
    4333 MEMB 61   CHL1 H12B HGA2   0.090000        1.0080           0
    4334 MEMB 61   CHL1 C11  CRL2  -0.180000       12.0110           0
    4335 MEMB 61   CHL1 H11A HGA2   0.090000        1.0080           0
    4336 MEMB 61   CHL1 H11B HGA2   0.090000        1.0080           0
    4337 MEMB 61   CHL1 C9   CRL1  -0.090000       12.0110           0
    4338 MEMB 61   CHL1 H9   HGA1   0.090000        1.0080           0
    4339 MEMB 61   CHL1 C10  CRL1   0.000000       12.0110           0
    4340 MEMB 61   CHL1 C19  CTL3  -0.270000       12.0110           0
    4341 MEMB 61   CHL1 H19A HAL3   0.090000        1.0080           0
    4342 MEMB 61   CHL1 H19B HAL3   0.090000        1.0080           0
    4343 MEMB 61   CHL1 H19C HAL3   0.090000        1.0080           0
    4344 MEMB 61   CHL1 C1   CRL2  -0.180000       12.0110           0
    4345 MEMB 61   CHL1 H1A  HGA2   0.090000        1.0080           0
    4346 MEMB 61   CHL1 H1B  HGA2   0.090000        1.0080           0
    4347 MEMB 61   CHL1 C2   CRL2  -0.180000       12.0110           0
    4348 MEMB 61   CHL1 H2A  HGA2   0.090000        1.0080           0
    4349 MEMB 61   CHL1 H2B  HGA2   0.090000        1.0080           0
    4350 MEMB 61   CHL1 C20  CTL1  -0.090000       12.0110           0
    4351 MEMB 61   CHL1 H20  HAL1   0.090000        1.0080           0
    4352 MEMB 61   CHL1 C21  CTL3  -0.270000       12.0110           0
    4353 MEMB 61   CHL1 H21A HAL3   0.090000        1.0080           0
    4354 MEMB 61   CHL1 H21B HAL3   0.090000        1.0080           0
    4355 MEMB 61   CHL1 H21C HAL3   0.090000        1.0080           0
    4356 MEMB 61   CHL1 C22  CTL2  -0.180000       12.0110           0
    4357 MEMB 61   CHL1 H22A HAL2   0.090000        1.0080           0
    4358 MEMB 61   CHL1 H22B HAL2   0.090000        1.0080           0
    4359 MEMB 61   CHL1 C23  CTL2  -0.180000       12.0110           0
    4360 MEMB 61   CHL1 H23A HAL2   0.090000        1.0080           0
    4361 MEMB 61   CHL1 H23B HAL2   0.090000        1.0080           0
    4362 MEMB 61   CHL1 C24  CTL2  -0.180000       12.0110           0
    4363 MEMB 61   CHL1 H24A HAL2   0.090000        1.0080           0
    4364 MEMB 61   CHL1 H24B HAL2   0.090000        1.0080           0
    4365 MEMB 61   CHL1 C25  CTL1  -0.090000       12.0110           0
    4366 MEMB 61   CHL1 H25  HAL1   0.090000        1.0080           0
    4367 MEMB 61   CHL1 C26  CTL3  -0.270000       12.0110           0
    4368 MEMB 61   CHL1 H26A HAL3   0.090000        1.0080           0
    4369 MEMB 61   CHL1 H26B HAL3   0.090000        1.0080           0
    4370 MEMB 61   CHL1 H26C HAL3   0.090000        1.0080           0
    4371 MEMB 61   CHL1 C27  CTL3  -0.270000       12.0110           0
    4372 MEMB 61   CHL1 H27A HAL3   0.090000        1.0080           0
    4373 MEMB 61   CHL1 H27B HAL3   0.090000        1.0080           0
    4374 MEMB 61   CHL1 H27C HAL3   0.090000        1.0080           0
    4375 MEMB 62   CHL1 C3   CRL1   0.140000       12.0110           0
    4376 MEMB 62   CHL1 H3   HGA1   0.090000        1.0080           0
    4377 MEMB 62   CHL1 O3   OHL   -0.660000       15.9994           0
    4378 MEMB 62   CHL1 H3'  HOL    0.430000        1.0080           0
    4379 MEMB 62   CHL1 C4   CRL2  -0.180000       12.0110           0
    4380 MEMB 62   CHL1 H4A  HGA2   0.090000        1.0080           0
    4381 MEMB 62   CHL1 H4B  HGA2   0.090000        1.0080           0
    4382 MEMB 62   CHL1 C5   CEL1   0.000000       12.0110           0
    4383 MEMB 62   CHL1 C6   CEL1  -0.150000       12.0110           0
    4384 MEMB 62   CHL1 H6   HEL1   0.150000        1.0080           0
    4385 MEMB 62   CHL1 C7   CRL2  -0.180000       12.0110           0
    4386 MEMB 62   CHL1 H7A  HGA2   0.090000        1.0080           0
    4387 MEMB 62   CHL1 H7B  HGA2   0.090000        1.0080           0
    4388 MEMB 62   CHL1 C8   CRL1  -0.090000       12.0110           0
    4389 MEMB 62   CHL1 H8   HGA1   0.090000        1.0080           0
    4390 MEMB 62   CHL1 C14  CRL1  -0.090000       12.0110           0
    4391 MEMB 62   CHL1 H14  HGA1   0.090000        1.0080           0
    4392 MEMB 62   CHL1 C15  CRL2  -0.180000       12.0110           0
    4393 MEMB 62   CHL1 H15A HGA2   0.090000        1.0080           0
    4394 MEMB 62   CHL1 H15B HGA2   0.090000        1.0080           0
    4395 MEMB 62   CHL1 C16  CRL2  -0.180000       12.0110           0
    4396 MEMB 62   CHL1 H16A HGA2   0.090000        1.0080           0
    4397 MEMB 62   CHL1 H16B HGA2   0.090000        1.0080           0
    4398 MEMB 62   CHL1 C17  CRL1  -0.090000       12.0110           0
    4399 MEMB 62   CHL1 H17  HGA1   0.090000        1.0080           0
    4400 MEMB 62   CHL1 C13  CRL1   0.000000       12.0110           0
    4401 MEMB 62   CHL1 C18  CTL3  -0.270000       12.0110           0
    4402 MEMB 62   CHL1 H18A HAL3   0.090000        1.0080           0
    4403 MEMB 62   CHL1 H18B HAL3   0.090000        1.0080           0
    4404 MEMB 62   CHL1 H18C HAL3   0.090000        1.0080           0
    4405 MEMB 62   CHL1 C12  CRL2  -0.180000       12.0110           0
    4406 MEMB 62   CHL1 H12A HGA2   0.090000        1.0080           0
    4407 MEMB 62   CHL1 H12B HGA2   0.090000        1.0080           0
    4408 MEMB 62   CHL1 C11  CRL2  -0.180000       12.0110           0
    4409 MEMB 62   CHL1 H11A HGA2   0.090000        1.0080           0
    4410 MEMB 62   CHL1 H11B HGA2   0.090000        1.0080           0
    4411 MEMB 62   CHL1 C9   CRL1  -0.090000       12.0110           0
    4412 MEMB 62   CHL1 H9   HGA1   0.090000        1.0080           0
    4413 MEMB 62   CHL1 C10  CRL1   0.000000       12.0110           0
    4414 MEMB 62   CHL1 C19  CTL3  -0.270000       12.0110           0
    4415 MEMB 62   CHL1 H19A HAL3   0.090000        1.0080           0
    4416 MEMB 62   CHL1 H19B HAL3   0.090000        1.0080           0
    4417 MEMB 62   CHL1 H19C HAL3   0.090000        1.0080           0
    4418 MEMB 62   CHL1 C1   CRL2  -0.180000       12.0110           0
    4419 MEMB 62   CHL1 H1A  HGA2   0.090000        1.0080           0
    4420 MEMB 62   CHL1 H1B  HGA2   0.090000        1.0080           0
    4421 MEMB 62   CHL1 C2   CRL2  -0.180000       12.0110           0
    4422 MEMB 62   CHL1 H2A  HGA2   0.090000        1.0080           0
    4423 MEMB 62   CHL1 H2B  HGA2   0.090000        1.0080           0
    4424 MEMB 62   CHL1 C20  CTL1  -0.090000       12.0110           0
    4425 MEMB 62   CHL1 H20  HAL1   0.090000        1.0080           0
    4426 MEMB 62   CHL1 C21  CTL3  -0.270000       12.0110           0
    4427 MEMB 62   CHL1 H21A HAL3   0.090000        1.0080           0
    4428 MEMB 62   CHL1 H21B HAL3   0.090000        1.0080           0
    4429 MEMB 62   CHL1 H21C HAL3   0.090000        1.0080           0
    4430 MEMB 62   CHL1 C22  CTL2  -0.180000       12.0110           0
    4431 MEMB 62   CHL1 H22A HAL2   0.090000        1.0080           0
    4432 MEMB 62   CHL1 H22B HAL2   0.090000        1.0080           0
    4433 MEMB 62   CHL1 C23  CTL2  -0.180000       12.0110           0
    4434 MEMB 62   CHL1 H23A HAL2   0.090000        1.0080           0
    4435 MEMB 62   CHL1 H23B HAL2   0.090000        1.0080           0
    4436 MEMB 62   CHL1 C24  CTL2  -0.180000       12.0110           0
    4437 MEMB 62   CHL1 H24A HAL2   0.090000        1.0080           0
    4438 MEMB 62   CHL1 H24B HAL2   0.090000        1.0080           0
    4439 MEMB 62   CHL1 C25  CTL1  -0.090000       12.0110           0
    4440 MEMB 62   CHL1 H25  HAL1   0.090000        1.0080           0
    4441 MEMB 62   CHL1 C26  CTL3  -0.270000       12.0110           0
    4442 MEMB 62   CHL1 H26A HAL3   0.090000        1.0080           0
    4443 MEMB 62   CHL1 H26B HAL3   0.090000        1.0080           0
    4444 MEMB 62   CHL1 H26C HAL3   0.090000        1.0080           0
    4445 MEMB 62   CHL1 C27  CTL3  -0.270000       12.0110           0
    4446 MEMB 62   CHL1 H27A HAL3   0.090000        1.0080           0
    4447 MEMB 62   CHL1 H27B HAL3   0.090000        1.0080           0
    4448 MEMB 62   CHL1 H27C HAL3   0.090000        1.0080           0
    4449 MEMB 63   CHL1 C3   CRL1   0.140000       12.0110           0
    4450 MEMB 63   CHL1 H3   HGA1   0.090000        1.0080           0
    4451 MEMB 63   CHL1 O3   OHL   -0.660000       15.9994           0
    4452 MEMB 63   CHL1 H3'  HOL    0.430000        1.0080           0
    4453 MEMB 63   CHL1 C4   CRL2  -0.180000       12.0110           0
    4454 MEMB 63   CHL1 H4A  HGA2   0.090000        1.0080           0
    4455 MEMB 63   CHL1 H4B  HGA2   0.090000        1.0080           0
    4456 MEMB 63   CHL1 C5   CEL1   0.000000       12.0110           0
    4457 MEMB 63   CHL1 C6   CEL1  -0.150000       12.0110           0
    4458 MEMB 63   CHL1 H6   HEL1   0.150000        1.0080           0
    4459 MEMB 63   CHL1 C7   CRL2  -0.180000       12.0110           0
    4460 MEMB 63   CHL1 H7A  HGA2   0.090000        1.0080           0
    4461 MEMB 63   CHL1 H7B  HGA2   0.090000        1.0080           0
    4462 MEMB 63   CHL1 C8   CRL1  -0.090000       12.0110           0
    4463 MEMB 63   CHL1 H8   HGA1   0.090000        1.0080           0
    4464 MEMB 63   CHL1 C14  CRL1  -0.090000       12.0110           0
    4465 MEMB 63   CHL1 H14  HGA1   0.090000        1.0080           0
    4466 MEMB 63   CHL1 C15  CRL2  -0.180000       12.0110           0
    4467 MEMB 63   CHL1 H15A HGA2   0.090000        1.0080           0
    4468 MEMB 63   CHL1 H15B HGA2   0.090000        1.0080           0
    4469 MEMB 63   CHL1 C16  CRL2  -0.180000       12.0110           0
    4470 MEMB 63   CHL1 H16A HGA2   0.090000        1.0080           0
    4471 MEMB 63   CHL1 H16B HGA2   0.090000        1.0080           0
    4472 MEMB 63   CHL1 C17  CRL1  -0.090000       12.0110           0
    4473 MEMB 63   CHL1 H17  HGA1   0.090000        1.0080           0
    4474 MEMB 63   CHL1 C13  CRL1   0.000000       12.0110           0
    4475 MEMB 63   CHL1 C18  CTL3  -0.270000       12.0110           0
    4476 MEMB 63   CHL1 H18A HAL3   0.090000        1.0080           0
    4477 MEMB 63   CHL1 H18B HAL3   0.090000        1.0080           0
    4478 MEMB 63   CHL1 H18C HAL3   0.090000        1.0080           0
    4479 MEMB 63   CHL1 C12  CRL2  -0.180000       12.0110           0
    4480 MEMB 63   CHL1 H12A HGA2   0.090000        1.0080           0
    4481 MEMB 63   CHL1 H12B HGA2   0.090000        1.0080           0
    4482 MEMB 63   CHL1 C11  CRL2  -0.180000       12.0110           0
    4483 MEMB 63   CHL1 H11A HGA2   0.090000        1.0080           0
    4484 MEMB 63   CHL1 H11B HGA2   0.090000        1.0080           0
    4485 MEMB 63   CHL1 C9   CRL1  -0.090000       12.0110           0
    4486 MEMB 63   CHL1 H9   HGA1   0.090000        1.0080           0
    4487 MEMB 63   CHL1 C10  CRL1   0.000000       12.0110           0
    4488 MEMB 63   CHL1 C19  CTL3  -0.270000       12.0110           0
    4489 MEMB 63   CHL1 H19A HAL3   0.090000        1.0080           0
    4490 MEMB 63   CHL1 H19B HAL3   0.090000        1.0080           0
    4491 MEMB 63   CHL1 H19C HAL3   0.090000        1.0080           0
    4492 MEMB 63   CHL1 C1   CRL2  -0.180000       12.0110           0
    4493 MEMB 63   CHL1 H1A  HGA2   0.090000        1.0080           0
    4494 MEMB 63   CHL1 H1B  HGA2   0.090000        1.0080           0
    4495 MEMB 63   CHL1 C2   CRL2  -0.180000       12.0110           0
    4496 MEMB 63   CHL1 H2A  HGA2   0.090000        1.0080           0
    4497 MEMB 63   CHL1 H2B  HGA2   0.090000        1.0080           0
    4498 MEMB 63   CHL1 C20  CTL1  -0.090000       12.0110           0
    4499 MEMB 63   CHL1 H20  HAL1   0.090000        1.0080           0
    4500 MEMB 63   CHL1 C21  CTL3  -0.270000       12.0110           0
    4501 MEMB 63   CHL1 H21A HAL3   0.090000        1.0080           0
    4502 MEMB 63   CHL1 H21B HAL3   0.090000        1.0080           0
    4503 MEMB 63   CHL1 H21C HAL3   0.090000        1.0080           0
    4504 MEMB 63   CHL1 C22  CTL2  -0.180000       12.0110           0
    4505 MEMB 63   CHL1 H22A HAL2   0.090000        1.0080           0
    4506 MEMB 63   CHL1 H22B HAL2   0.090000        1.0080           0
    4507 MEMB 63   CHL1 C23  CTL2  -0.180000       12.0110           0
    4508 MEMB 63   CHL1 H23A HAL2   0.090000        1.0080           0
    4509 MEMB 63   CHL1 H23B HAL2   0.090000        1.0080           0
    4510 MEMB 63   CHL1 C24  CTL2  -0.180000       12.0110           0
    4511 MEMB 63   CHL1 H24A HAL2   0.090000        1.0080           0
    4512 MEMB 63   CHL1 H24B HAL2   0.090000        1.0080           0
    4513 MEMB 63   CHL1 C25  CTL1  -0.090000       12.0110           0
    4514 MEMB 63   CHL1 H25  HAL1   0.090000        1.0080           0
    4515 MEMB 63   CHL1 C26  CTL3  -0.270000       12.0110           0
    4516 MEMB 63   CHL1 H26A HAL3   0.090000        1.0080           0
    4517 MEMB 63   CHL1 H26B HAL3   0.090000        1.0080           0
    4518 MEMB 63   CHL1 H26C HAL3   0.090000        1.0080           0
    4519 MEMB 63   CHL1 C27  CTL3  -0.270000       12.0110           0
    4520 MEMB 63   CHL1 H27A HAL3   0.090000        1.0080           0
    4521 MEMB 63   CHL1 H27B HAL3   0.090000        1.0080           0
    4522 MEMB 63   CHL1 H27C HAL3   0.090000        1.0080           0
    4523 MEMB 64   CHL1 C3   CRL1   0.140000       12.0110           0
    4524 MEMB 64   CHL1 H3   HGA1   0.090000        1.0080           0
    4525 MEMB 64   CHL1 O3   OHL   -0.660000       15.9994           0
    4526 MEMB 64   CHL1 H3'  HOL    0.430000        1.0080           0
    4527 MEMB 64   CHL1 C4   CRL2  -0.180000       12.0110           0
    4528 MEMB 64   CHL1 H4A  HGA2   0.090000        1.0080           0
    4529 MEMB 64   CHL1 H4B  HGA2   0.090000        1.0080           0
    4530 MEMB 64   CHL1 C5   CEL1   0.000000       12.0110           0
    4531 MEMB 64   CHL1 C6   CEL1  -0.150000       12.0110           0
    4532 MEMB 64   CHL1 H6   HEL1   0.150000        1.0080           0
    4533 MEMB 64   CHL1 C7   CRL2  -0.180000       12.0110           0
    4534 MEMB 64   CHL1 H7A  HGA2   0.090000        1.0080           0
    4535 MEMB 64   CHL1 H7B  HGA2   0.090000        1.0080           0
    4536 MEMB 64   CHL1 C8   CRL1  -0.090000       12.0110           0
    4537 MEMB 64   CHL1 H8   HGA1   0.090000        1.0080           0
    4538 MEMB 64   CHL1 C14  CRL1  -0.090000       12.0110           0
    4539 MEMB 64   CHL1 H14  HGA1   0.090000        1.0080           0
    4540 MEMB 64   CHL1 C15  CRL2  -0.180000       12.0110           0
    4541 MEMB 64   CHL1 H15A HGA2   0.090000        1.0080           0
    4542 MEMB 64   CHL1 H15B HGA2   0.090000        1.0080           0
    4543 MEMB 64   CHL1 C16  CRL2  -0.180000       12.0110           0
    4544 MEMB 64   CHL1 H16A HGA2   0.090000        1.0080           0
    4545 MEMB 64   CHL1 H16B HGA2   0.090000        1.0080           0
    4546 MEMB 64   CHL1 C17  CRL1  -0.090000       12.0110           0
    4547 MEMB 64   CHL1 H17  HGA1   0.090000        1.0080           0
    4548 MEMB 64   CHL1 C13  CRL1   0.000000       12.0110           0
    4549 MEMB 64   CHL1 C18  CTL3  -0.270000       12.0110           0
    4550 MEMB 64   CHL1 H18A HAL3   0.090000        1.0080           0
    4551 MEMB 64   CHL1 H18B HAL3   0.090000        1.0080           0
    4552 MEMB 64   CHL1 H18C HAL3   0.090000        1.0080           0
    4553 MEMB 64   CHL1 C12  CRL2  -0.180000       12.0110           0
    4554 MEMB 64   CHL1 H12A HGA2   0.090000        1.0080           0
    4555 MEMB 64   CHL1 H12B HGA2   0.090000        1.0080           0
    4556 MEMB 64   CHL1 C11  CRL2  -0.180000       12.0110           0
    4557 MEMB 64   CHL1 H11A HGA2   0.090000        1.0080           0
    4558 MEMB 64   CHL1 H11B HGA2   0.090000        1.0080           0
    4559 MEMB 64   CHL1 C9   CRL1  -0.090000       12.0110           0
    4560 MEMB 64   CHL1 H9   HGA1   0.090000        1.0080           0
    4561 MEMB 64   CHL1 C10  CRL1   0.000000       12.0110           0
    4562 MEMB 64   CHL1 C19  CTL3  -0.270000       12.0110           0
    4563 MEMB 64   CHL1 H19A HAL3   0.090000        1.0080           0
    4564 MEMB 64   CHL1 H19B HAL3   0.090000        1.0080           0
    4565 MEMB 64   CHL1 H19C HAL3   0.090000        1.0080           0
    4566 MEMB 64   CHL1 C1   CRL2  -0.180000       12.0110           0
    4567 MEMB 64   CHL1 H1A  HGA2   0.090000        1.0080           0
    4568 MEMB 64   CHL1 H1B  HGA2   0.090000        1.0080           0
    4569 MEMB 64   CHL1 C2   CRL2  -0.180000       12.0110           0
    4570 MEMB 64   CHL1 H2A  HGA2   0.090000        1.0080           0
    4571 MEMB 64   CHL1 H2B  HGA2   0.090000        1.0080           0
    4572 MEMB 64   CHL1 C20  CTL1  -0.090000       12.0110           0
    4573 MEMB 64   CHL1 H20  HAL1   0.090000        1.0080           0
    4574 MEMB 64   CHL1 C21  CTL3  -0.270000       12.0110           0
    4575 MEMB 64   CHL1 H21A HAL3   0.090000        1.0080           0
    4576 MEMB 64   CHL1 H21B HAL3   0.090000        1.0080           0
    4577 MEMB 64   CHL1 H21C HAL3   0.090000        1.0080           0
    4578 MEMB 64   CHL1 C22  CTL2  -0.180000       12.0110           0
    4579 MEMB 64   CHL1 H22A HAL2   0.090000        1.0080           0
    4580 MEMB 64   CHL1 H22B HAL2   0.090000        1.0080           0
    4581 MEMB 64   CHL1 C23  CTL2  -0.180000       12.0110           0
    4582 MEMB 64   CHL1 H23A HAL2   0.090000        1.0080           0
    4583 MEMB 64   CHL1 H23B HAL2   0.090000        1.0080           0
    4584 MEMB 64   CHL1 C24  CTL2  -0.180000       12.0110           0
    4585 MEMB 64   CHL1 H24A HAL2   0.090000        1.0080           0
    4586 MEMB 64   CHL1 H24B HAL2   0.090000        1.0080           0
    4587 MEMB 64   CHL1 C25  CTL1  -0.090000       12.0110           0
    4588 MEMB 64   CHL1 H25  HAL1   0.090000        1.0080           0
    4589 MEMB 64   CHL1 C26  CTL3  -0.270000       12.0110           0
    4590 MEMB 64   CHL1 H26A HAL3   0.090000        1.0080           0
    4591 MEMB 64   CHL1 H26B HAL3   0.090000        1.0080           0
    4592 MEMB 64   CHL1 H26C HAL3   0.090000        1.0080           0
    4593 MEMB 64   CHL1 C27  CTL3  -0.270000       12.0110           0
    4594 MEMB 64   CHL1 H27A HAL3   0.090000        1.0080           0
    4595 MEMB 64   CHL1 H27B HAL3   0.090000        1.0080           0
    4596 MEMB 64   CHL1 H27C HAL3   0.090000        1.0080           0
    4597 MEMB 65   CHL1 C3   CRL1   0.140000       12.0110           0
    4598 MEMB 65   CHL1 H3   HGA1   0.090000        1.0080           0
    4599 MEMB 65   CHL1 O3   OHL   -0.660000       15.9994           0
    4600 MEMB 65   CHL1 H3'  HOL    0.430000        1.0080           0
    4601 MEMB 65   CHL1 C4   CRL2  -0.180000       12.0110           0
    4602 MEMB 65   CHL1 H4A  HGA2   0.090000        1.0080           0
    4603 MEMB 65   CHL1 H4B  HGA2   0.090000        1.0080           0
    4604 MEMB 65   CHL1 C5   CEL1   0.000000       12.0110           0
    4605 MEMB 65   CHL1 C6   CEL1  -0.150000       12.0110           0
    4606 MEMB 65   CHL1 H6   HEL1   0.150000        1.0080           0
    4607 MEMB 65   CHL1 C7   CRL2  -0.180000       12.0110           0
    4608 MEMB 65   CHL1 H7A  HGA2   0.090000        1.0080           0
    4609 MEMB 65   CHL1 H7B  HGA2   0.090000        1.0080           0
    4610 MEMB 65   CHL1 C8   CRL1  -0.090000       12.0110           0
    4611 MEMB 65   CHL1 H8   HGA1   0.090000        1.0080           0
    4612 MEMB 65   CHL1 C14  CRL1  -0.090000       12.0110           0
    4613 MEMB 65   CHL1 H14  HGA1   0.090000        1.0080           0
    4614 MEMB 65   CHL1 C15  CRL2  -0.180000       12.0110           0
    4615 MEMB 65   CHL1 H15A HGA2   0.090000        1.0080           0
    4616 MEMB 65   CHL1 H15B HGA2   0.090000        1.0080           0
    4617 MEMB 65   CHL1 C16  CRL2  -0.180000       12.0110           0
    4618 MEMB 65   CHL1 H16A HGA2   0.090000        1.0080           0
    4619 MEMB 65   CHL1 H16B HGA2   0.090000        1.0080           0
    4620 MEMB 65   CHL1 C17  CRL1  -0.090000       12.0110           0
    4621 MEMB 65   CHL1 H17  HGA1   0.090000        1.0080           0
    4622 MEMB 65   CHL1 C13  CRL1   0.000000       12.0110           0
    4623 MEMB 65   CHL1 C18  CTL3  -0.270000       12.0110           0
    4624 MEMB 65   CHL1 H18A HAL3   0.090000        1.0080           0
    4625 MEMB 65   CHL1 H18B HAL3   0.090000        1.0080           0
    4626 MEMB 65   CHL1 H18C HAL3   0.090000        1.0080           0
    4627 MEMB 65   CHL1 C12  CRL2  -0.180000       12.0110           0
    4628 MEMB 65   CHL1 H12A HGA2   0.090000        1.0080           0
    4629 MEMB 65   CHL1 H12B HGA2   0.090000        1.0080           0
    4630 MEMB 65   CHL1 C11  CRL2  -0.180000       12.0110           0
    4631 MEMB 65   CHL1 H11A HGA2   0.090000        1.0080           0
    4632 MEMB 65   CHL1 H11B HGA2   0.090000        1.0080           0
    4633 MEMB 65   CHL1 C9   CRL1  -0.090000       12.0110           0
    4634 MEMB 65   CHL1 H9   HGA1   0.090000        1.0080           0
    4635 MEMB 65   CHL1 C10  CRL1   0.000000       12.0110           0
    4636 MEMB 65   CHL1 C19  CTL3  -0.270000       12.0110           0
    4637 MEMB 65   CHL1 H19A HAL3   0.090000        1.0080           0
    4638 MEMB 65   CHL1 H19B HAL3   0.090000        1.0080           0
    4639 MEMB 65   CHL1 H19C HAL3   0.090000        1.0080           0
    4640 MEMB 65   CHL1 C1   CRL2  -0.180000       12.0110           0
    4641 MEMB 65   CHL1 H1A  HGA2   0.090000        1.0080           0
    4642 MEMB 65   CHL1 H1B  HGA2   0.090000        1.0080           0
    4643 MEMB 65   CHL1 C2   CRL2  -0.180000       12.0110           0
    4644 MEMB 65   CHL1 H2A  HGA2   0.090000        1.0080           0
    4645 MEMB 65   CHL1 H2B  HGA2   0.090000        1.0080           0
    4646 MEMB 65   CHL1 C20  CTL1  -0.090000       12.0110           0
    4647 MEMB 65   CHL1 H20  HAL1   0.090000        1.0080           0
    4648 MEMB 65   CHL1 C21  CTL3  -0.270000       12.0110           0
    4649 MEMB 65   CHL1 H21A HAL3   0.090000        1.0080           0
    4650 MEMB 65   CHL1 H21B HAL3   0.090000        1.0080           0
    4651 MEMB 65   CHL1 H21C HAL3   0.090000        1.0080           0
    4652 MEMB 65   CHL1 C22  CTL2  -0.180000       12.0110           0
    4653 MEMB 65   CHL1 H22A HAL2   0.090000        1.0080           0
    4654 MEMB 65   CHL1 H22B HAL2   0.090000        1.0080           0
    4655 MEMB 65   CHL1 C23  CTL2  -0.180000       12.0110           0
    4656 MEMB 65   CHL1 H23A HAL2   0.090000        1.0080           0
    4657 MEMB 65   CHL1 H23B HAL2   0.090000        1.0080           0
    4658 MEMB 65   CHL1 C24  CTL2  -0.180000       12.0110           0
    4659 MEMB 65   CHL1 H24A HAL2   0.090000        1.0080           0
    4660 MEMB 65   CHL1 H24B HAL2   0.090000        1.0080           0
    4661 MEMB 65   CHL1 C25  CTL1  -0.090000       12.0110           0
    4662 MEMB 65   CHL1 H25  HAL1   0.090000        1.0080           0
    4663 MEMB 65   CHL1 C26  CTL3  -0.270000       12.0110           0
    4664 MEMB 65   CHL1 H26A HAL3   0.090000        1.0080           0
    4665 MEMB 65   CHL1 H26B HAL3   0.090000        1.0080           0
    4666 MEMB 65   CHL1 H26C HAL3   0.090000        1.0080           0
    4667 MEMB 65   CHL1 C27  CTL3  -0.270000       12.0110           0
    4668 MEMB 65   CHL1 H27A HAL3   0.090000        1.0080           0
    4669 MEMB 65   CHL1 H27B HAL3   0.090000        1.0080           0
    4670 MEMB 65   CHL1 H27C HAL3   0.090000        1.0080           0
    4671 MEMB 66   CHL1 C3   CRL1   0.140000       12.0110           0
    4672 MEMB 66   CHL1 H3   HGA1   0.090000        1.0080           0
    4673 MEMB 66   CHL1 O3   OHL   -0.660000       15.9994           0
    4674 MEMB 66   CHL1 H3'  HOL    0.430000        1.0080           0
    4675 MEMB 66   CHL1 C4   CRL2  -0.180000       12.0110           0
    4676 MEMB 66   CHL1 H4A  HGA2   0.090000        1.0080           0
    4677 MEMB 66   CHL1 H4B  HGA2   0.090000        1.0080           0
    4678 MEMB 66   CHL1 C5   CEL1   0.000000       12.0110           0
    4679 MEMB 66   CHL1 C6   CEL1  -0.150000       12.0110           0
    4680 MEMB 66   CHL1 H6   HEL1   0.150000        1.0080           0
    4681 MEMB 66   CHL1 C7   CRL2  -0.180000       12.0110           0
    4682 MEMB 66   CHL1 H7A  HGA2   0.090000        1.0080           0
    4683 MEMB 66   CHL1 H7B  HGA2   0.090000        1.0080           0
    4684 MEMB 66   CHL1 C8   CRL1  -0.090000       12.0110           0
    4685 MEMB 66   CHL1 H8   HGA1   0.090000        1.0080           0
    4686 MEMB 66   CHL1 C14  CRL1  -0.090000       12.0110           0
    4687 MEMB 66   CHL1 H14  HGA1   0.090000        1.0080           0
    4688 MEMB 66   CHL1 C15  CRL2  -0.180000       12.0110           0
    4689 MEMB 66   CHL1 H15A HGA2   0.090000        1.0080           0
    4690 MEMB 66   CHL1 H15B HGA2   0.090000        1.0080           0
    4691 MEMB 66   CHL1 C16  CRL2  -0.180000       12.0110           0
    4692 MEMB 66   CHL1 H16A HGA2   0.090000        1.0080           0
    4693 MEMB 66   CHL1 H16B HGA2   0.090000        1.0080           0
    4694 MEMB 66   CHL1 C17  CRL1  -0.090000       12.0110           0
    4695 MEMB 66   CHL1 H17  HGA1   0.090000        1.0080           0
    4696 MEMB 66   CHL1 C13  CRL1   0.000000       12.0110           0
    4697 MEMB 66   CHL1 C18  CTL3  -0.270000       12.0110           0
    4698 MEMB 66   CHL1 H18A HAL3   0.090000        1.0080           0
    4699 MEMB 66   CHL1 H18B HAL3   0.090000        1.0080           0
    4700 MEMB 66   CHL1 H18C HAL3   0.090000        1.0080           0
    4701 MEMB 66   CHL1 C12  CRL2  -0.180000       12.0110           0
    4702 MEMB 66   CHL1 H12A HGA2   0.090000        1.0080           0
    4703 MEMB 66   CHL1 H12B HGA2   0.090000        1.0080           0
    4704 MEMB 66   CHL1 C11  CRL2  -0.180000       12.0110           0
    4705 MEMB 66   CHL1 H11A HGA2   0.090000        1.0080           0
    4706 MEMB 66   CHL1 H11B HGA2   0.090000        1.0080           0
    4707 MEMB 66   CHL1 C9   CRL1  -0.090000       12.0110           0
    4708 MEMB 66   CHL1 H9   HGA1   0.090000        1.0080           0
    4709 MEMB 66   CHL1 C10  CRL1   0.000000       12.0110           0
    4710 MEMB 66   CHL1 C19  CTL3  -0.270000       12.0110           0
    4711 MEMB 66   CHL1 H19A HAL3   0.090000        1.0080           0
    4712 MEMB 66   CHL1 H19B HAL3   0.090000        1.0080           0
    4713 MEMB 66   CHL1 H19C HAL3   0.090000        1.0080           0
    4714 MEMB 66   CHL1 C1   CRL2  -0.180000       12.0110           0
    4715 MEMB 66   CHL1 H1A  HGA2   0.090000        1.0080           0
    4716 MEMB 66   CHL1 H1B  HGA2   0.090000        1.0080           0
    4717 MEMB 66   CHL1 C2   CRL2  -0.180000       12.0110           0
    4718 MEMB 66   CHL1 H2A  HGA2   0.090000        1.0080           0
    4719 MEMB 66   CHL1 H2B  HGA2   0.090000        1.0080           0
    4720 MEMB 66   CHL1 C20  CTL1  -0.090000       12.0110           0
    4721 MEMB 66   CHL1 H20  HAL1   0.090000        1.0080           0
    4722 MEMB 66   CHL1 C21  CTL3  -0.270000       12.0110           0
    4723 MEMB 66   CHL1 H21A HAL3   0.090000        1.0080           0
    4724 MEMB 66   CHL1 H21B HAL3   0.090000        1.0080           0
    4725 MEMB 66   CHL1 H21C HAL3   0.090000        1.0080           0
    4726 MEMB 66   CHL1 C22  CTL2  -0.180000       12.0110           0
    4727 MEMB 66   CHL1 H22A HAL2   0.090000        1.0080           0
    4728 MEMB 66   CHL1 H22B HAL2   0.090000        1.0080           0
    4729 MEMB 66   CHL1 C23  CTL2  -0.180000       12.0110           0
    4730 MEMB 66   CHL1 H23A HAL2   0.090000        1.0080           0
    4731 MEMB 66   CHL1 H23B HAL2   0.090000        1.0080           0
    4732 MEMB 66   CHL1 C24  CTL2  -0.180000       12.0110           0
    4733 MEMB 66   CHL1 H24A HAL2   0.090000        1.0080           0
    4734 MEMB 66   CHL1 H24B HAL2   0.090000        1.0080           0
    4735 MEMB 66   CHL1 C25  CTL1  -0.090000       12.0110           0
    4736 MEMB 66   CHL1 H25  HAL1   0.090000        1.0080           0
    4737 MEMB 66   CHL1 C26  CTL3  -0.270000       12.0110           0
    4738 MEMB 66   CHL1 H26A HAL3   0.090000        1.0080           0
    4739 MEMB 66   CHL1 H26B HAL3   0.090000        1.0080           0
    4740 MEMB 66   CHL1 H26C HAL3   0.090000        1.0080           0
    4741 MEMB 66   CHL1 C27  CTL3  -0.270000       12.0110           0
    4742 MEMB 66   CHL1 H27A HAL3   0.090000        1.0080           0
    4743 MEMB 66   CHL1 H27B HAL3   0.090000        1.0080           0
    4744 MEMB 66   CHL1 H27C HAL3   0.090000        1.0080           0
    4745 MEMB 67   CHL1 C3   CRL1   0.140000       12.0110           0
    4746 MEMB 67   CHL1 H3   HGA1   0.090000        1.0080           0
    4747 MEMB 67   CHL1 O3   OHL   -0.660000       15.9994           0
    4748 MEMB 67   CHL1 H3'  HOL    0.430000        1.0080           0
    4749 MEMB 67   CHL1 C4   CRL2  -0.180000       12.0110           0
    4750 MEMB 67   CHL1 H4A  HGA2   0.090000        1.0080           0
    4751 MEMB 67   CHL1 H4B  HGA2   0.090000        1.0080           0
    4752 MEMB 67   CHL1 C5   CEL1   0.000000       12.0110           0
    4753 MEMB 67   CHL1 C6   CEL1  -0.150000       12.0110           0
    4754 MEMB 67   CHL1 H6   HEL1   0.150000        1.0080           0
    4755 MEMB 67   CHL1 C7   CRL2  -0.180000       12.0110           0
    4756 MEMB 67   CHL1 H7A  HGA2   0.090000        1.0080           0
    4757 MEMB 67   CHL1 H7B  HGA2   0.090000        1.0080           0
    4758 MEMB 67   CHL1 C8   CRL1  -0.090000       12.0110           0
    4759 MEMB 67   CHL1 H8   HGA1   0.090000        1.0080           0
    4760 MEMB 67   CHL1 C14  CRL1  -0.090000       12.0110           0
    4761 MEMB 67   CHL1 H14  HGA1   0.090000        1.0080           0
    4762 MEMB 67   CHL1 C15  CRL2  -0.180000       12.0110           0
    4763 MEMB 67   CHL1 H15A HGA2   0.090000        1.0080           0
    4764 MEMB 67   CHL1 H15B HGA2   0.090000        1.0080           0
    4765 MEMB 67   CHL1 C16  CRL2  -0.180000       12.0110           0
    4766 MEMB 67   CHL1 H16A HGA2   0.090000        1.0080           0
    4767 MEMB 67   CHL1 H16B HGA2   0.090000        1.0080           0
    4768 MEMB 67   CHL1 C17  CRL1  -0.090000       12.0110           0
    4769 MEMB 67   CHL1 H17  HGA1   0.090000        1.0080           0
    4770 MEMB 67   CHL1 C13  CRL1   0.000000       12.0110           0
    4771 MEMB 67   CHL1 C18  CTL3  -0.270000       12.0110           0
    4772 MEMB 67   CHL1 H18A HAL3   0.090000        1.0080           0
    4773 MEMB 67   CHL1 H18B HAL3   0.090000        1.0080           0
    4774 MEMB 67   CHL1 H18C HAL3   0.090000        1.0080           0
    4775 MEMB 67   CHL1 C12  CRL2  -0.180000       12.0110           0
    4776 MEMB 67   CHL1 H12A HGA2   0.090000        1.0080           0
    4777 MEMB 67   CHL1 H12B HGA2   0.090000        1.0080           0
    4778 MEMB 67   CHL1 C11  CRL2  -0.180000       12.0110           0
    4779 MEMB 67   CHL1 H11A HGA2   0.090000        1.0080           0
    4780 MEMB 67   CHL1 H11B HGA2   0.090000        1.0080           0
    4781 MEMB 67   CHL1 C9   CRL1  -0.090000       12.0110           0
    4782 MEMB 67   CHL1 H9   HGA1   0.090000        1.0080           0
    4783 MEMB 67   CHL1 C10  CRL1   0.000000       12.0110           0
    4784 MEMB 67   CHL1 C19  CTL3  -0.270000       12.0110           0
    4785 MEMB 67   CHL1 H19A HAL3   0.090000        1.0080           0
    4786 MEMB 67   CHL1 H19B HAL3   0.090000        1.0080           0
    4787 MEMB 67   CHL1 H19C HAL3   0.090000        1.0080           0
    4788 MEMB 67   CHL1 C1   CRL2  -0.180000       12.0110           0
    4789 MEMB 67   CHL1 H1A  HGA2   0.090000        1.0080           0
    4790 MEMB 67   CHL1 H1B  HGA2   0.090000        1.0080           0
    4791 MEMB 67   CHL1 C2   CRL2  -0.180000       12.0110           0
    4792 MEMB 67   CHL1 H2A  HGA2   0.090000        1.0080           0
    4793 MEMB 67   CHL1 H2B  HGA2   0.090000        1.0080           0
    4794 MEMB 67   CHL1 C20  CTL1  -0.090000       12.0110           0
    4795 MEMB 67   CHL1 H20  HAL1   0.090000        1.0080           0
    4796 MEMB 67   CHL1 C21  CTL3  -0.270000       12.0110           0
    4797 MEMB 67   CHL1 H21A HAL3   0.090000        1.0080           0
    4798 MEMB 67   CHL1 H21B HAL3   0.090000        1.0080           0
    4799 MEMB 67   CHL1 H21C HAL3   0.090000        1.0080           0
    4800 MEMB 67   CHL1 C22  CTL2  -0.180000       12.0110           0
    4801 MEMB 67   CHL1 H22A HAL2   0.090000        1.0080           0
    4802 MEMB 67   CHL1 H22B HAL2   0.090000        1.0080           0
    4803 MEMB 67   CHL1 C23  CTL2  -0.180000       12.0110           0
    4804 MEMB 67   CHL1 H23A HAL2   0.090000        1.0080           0
    4805 MEMB 67   CHL1 H23B HAL2   0.090000        1.0080           0
    4806 MEMB 67   CHL1 C24  CTL2  -0.180000       12.0110           0
    4807 MEMB 67   CHL1 H24A HAL2   0.090000        1.0080           0
    4808 MEMB 67   CHL1 H24B HAL2   0.090000        1.0080           0
    4809 MEMB 67   CHL1 C25  CTL1  -0.090000       12.0110           0
    4810 MEMB 67   CHL1 H25  HAL1   0.090000        1.0080           0
    4811 MEMB 67   CHL1 C26  CTL3  -0.270000       12.0110           0
    4812 MEMB 67   CHL1 H26A HAL3   0.090000        1.0080           0
    4813 MEMB 67   CHL1 H26B HAL3   0.090000        1.0080           0
    4814 MEMB 67   CHL1 H26C HAL3   0.090000        1.0080           0
    4815 MEMB 67   CHL1 C27  CTL3  -0.270000       12.0110           0
    4816 MEMB 67   CHL1 H27A HAL3   0.090000        1.0080           0
    4817 MEMB 67   CHL1 H27B HAL3   0.090000        1.0080           0
    4818 MEMB 67   CHL1 H27C HAL3   0.090000        1.0080           0
    4819 MEMB 68   CHL1 C3   CRL1   0.140000       12.0110           0
    4820 MEMB 68   CHL1 H3   HGA1   0.090000        1.0080           0
    4821 MEMB 68   CHL1 O3   OHL   -0.660000       15.9994           0
    4822 MEMB 68   CHL1 H3'  HOL    0.430000        1.0080           0
    4823 MEMB 68   CHL1 C4   CRL2  -0.180000       12.0110           0
    4824 MEMB 68   CHL1 H4A  HGA2   0.090000        1.0080           0
    4825 MEMB 68   CHL1 H4B  HGA2   0.090000        1.0080           0
    4826 MEMB 68   CHL1 C5   CEL1   0.000000       12.0110           0
    4827 MEMB 68   CHL1 C6   CEL1  -0.150000       12.0110           0
    4828 MEMB 68   CHL1 H6   HEL1   0.150000        1.0080           0
    4829 MEMB 68   CHL1 C7   CRL2  -0.180000       12.0110           0
    4830 MEMB 68   CHL1 H7A  HGA2   0.090000        1.0080           0
    4831 MEMB 68   CHL1 H7B  HGA2   0.090000        1.0080           0
    4832 MEMB 68   CHL1 C8   CRL1  -0.090000       12.0110           0
    4833 MEMB 68   CHL1 H8   HGA1   0.090000        1.0080           0
    4834 MEMB 68   CHL1 C14  CRL1  -0.090000       12.0110           0
    4835 MEMB 68   CHL1 H14  HGA1   0.090000        1.0080           0
    4836 MEMB 68   CHL1 C15  CRL2  -0.180000       12.0110           0
    4837 MEMB 68   CHL1 H15A HGA2   0.090000        1.0080           0
    4838 MEMB 68   CHL1 H15B HGA2   0.090000        1.0080           0
    4839 MEMB 68   CHL1 C16  CRL2  -0.180000       12.0110           0
    4840 MEMB 68   CHL1 H16A HGA2   0.090000        1.0080           0
    4841 MEMB 68   CHL1 H16B HGA2   0.090000        1.0080           0
    4842 MEMB 68   CHL1 C17  CRL1  -0.090000       12.0110           0
    4843 MEMB 68   CHL1 H17  HGA1   0.090000        1.0080           0
    4844 MEMB 68   CHL1 C13  CRL1   0.000000       12.0110           0
    4845 MEMB 68   CHL1 C18  CTL3  -0.270000       12.0110           0
    4846 MEMB 68   CHL1 H18A HAL3   0.090000        1.0080           0
    4847 MEMB 68   CHL1 H18B HAL3   0.090000        1.0080           0
    4848 MEMB 68   CHL1 H18C HAL3   0.090000        1.0080           0
    4849 MEMB 68   CHL1 C12  CRL2  -0.180000       12.0110           0
    4850 MEMB 68   CHL1 H12A HGA2   0.090000        1.0080           0
    4851 MEMB 68   CHL1 H12B HGA2   0.090000        1.0080           0
    4852 MEMB 68   CHL1 C11  CRL2  -0.180000       12.0110           0
    4853 MEMB 68   CHL1 H11A HGA2   0.090000        1.0080           0
    4854 MEMB 68   CHL1 H11B HGA2   0.090000        1.0080           0
    4855 MEMB 68   CHL1 C9   CRL1  -0.090000       12.0110           0
    4856 MEMB 68   CHL1 H9   HGA1   0.090000        1.0080           0
    4857 MEMB 68   CHL1 C10  CRL1   0.000000       12.0110           0
    4858 MEMB 68   CHL1 C19  CTL3  -0.270000       12.0110           0
    4859 MEMB 68   CHL1 H19A HAL3   0.090000        1.0080           0
    4860 MEMB 68   CHL1 H19B HAL3   0.090000        1.0080           0
    4861 MEMB 68   CHL1 H19C HAL3   0.090000        1.0080           0
    4862 MEMB 68   CHL1 C1   CRL2  -0.180000       12.0110           0
    4863 MEMB 68   CHL1 H1A  HGA2   0.090000        1.0080           0
    4864 MEMB 68   CHL1 H1B  HGA2   0.090000        1.0080           0
    4865 MEMB 68   CHL1 C2   CRL2  -0.180000       12.0110           0
    4866 MEMB 68   CHL1 H2A  HGA2   0.090000        1.0080           0
    4867 MEMB 68   CHL1 H2B  HGA2   0.090000        1.0080           0
    4868 MEMB 68   CHL1 C20  CTL1  -0.090000       12.0110           0
    4869 MEMB 68   CHL1 H20  HAL1   0.090000        1.0080           0
    4870 MEMB 68   CHL1 C21  CTL3  -0.270000       12.0110           0
    4871 MEMB 68   CHL1 H21A HAL3   0.090000        1.0080           0
    4872 MEMB 68   CHL1 H21B HAL3   0.090000        1.0080           0
    4873 MEMB 68   CHL1 H21C HAL3   0.090000        1.0080           0
    4874 MEMB 68   CHL1 C22  CTL2  -0.180000       12.0110           0
    4875 MEMB 68   CHL1 H22A HAL2   0.090000        1.0080           0
    4876 MEMB 68   CHL1 H22B HAL2   0.090000        1.0080           0
    4877 MEMB 68   CHL1 C23  CTL2  -0.180000       12.0110           0
    4878 MEMB 68   CHL1 H23A HAL2   0.090000        1.0080           0
    4879 MEMB 68   CHL1 H23B HAL2   0.090000        1.0080           0
    4880 MEMB 68   CHL1 C24  CTL2  -0.180000       12.0110           0
    4881 MEMB 68   CHL1 H24A HAL2   0.090000        1.0080           0
    4882 MEMB 68   CHL1 H24B HAL2   0.090000        1.0080           0
    4883 MEMB 68   CHL1 C25  CTL1  -0.090000       12.0110           0
    4884 MEMB 68   CHL1 H25  HAL1   0.090000        1.0080           0
    4885 MEMB 68   CHL1 C26  CTL3  -0.270000       12.0110           0
    4886 MEMB 68   CHL1 H26A HAL3   0.090000        1.0080           0
    4887 MEMB 68   CHL1 H26B HAL3   0.090000        1.0080           0
    4888 MEMB 68   CHL1 H26C HAL3   0.090000        1.0080           0
    4889 MEMB 68   CHL1 C27  CTL3  -0.270000       12.0110           0
    4890 MEMB 68   CHL1 H27A HAL3   0.090000        1.0080           0
    4891 MEMB 68   CHL1 H27B HAL3   0.090000        1.0080           0
    4892 MEMB 68   CHL1 H27C HAL3   0.090000        1.0080           0
    4893 MEMB 69   CHL1 C3   CRL1   0.140000       12.0110           0
    4894 MEMB 69   CHL1 H3   HGA1   0.090000        1.0080           0
    4895 MEMB 69   CHL1 O3   OHL   -0.660000       15.9994           0
    4896 MEMB 69   CHL1 H3'  HOL    0.430000        1.0080           0
    4897 MEMB 69   CHL1 C4   CRL2  -0.180000       12.0110           0
    4898 MEMB 69   CHL1 H4A  HGA2   0.090000        1.0080           0
    4899 MEMB 69   CHL1 H4B  HGA2   0.090000        1.0080           0
    4900 MEMB 69   CHL1 C5   CEL1   0.000000       12.0110           0
    4901 MEMB 69   CHL1 C6   CEL1  -0.150000       12.0110           0
    4902 MEMB 69   CHL1 H6   HEL1   0.150000        1.0080           0
    4903 MEMB 69   CHL1 C7   CRL2  -0.180000       12.0110           0
    4904 MEMB 69   CHL1 H7A  HGA2   0.090000        1.0080           0
    4905 MEMB 69   CHL1 H7B  HGA2   0.090000        1.0080           0
    4906 MEMB 69   CHL1 C8   CRL1  -0.090000       12.0110           0
    4907 MEMB 69   CHL1 H8   HGA1   0.090000        1.0080           0
    4908 MEMB 69   CHL1 C14  CRL1  -0.090000       12.0110           0
    4909 MEMB 69   CHL1 H14  HGA1   0.090000        1.0080           0
    4910 MEMB 69   CHL1 C15  CRL2  -0.180000       12.0110           0
    4911 MEMB 69   CHL1 H15A HGA2   0.090000        1.0080           0
    4912 MEMB 69   CHL1 H15B HGA2   0.090000        1.0080           0
    4913 MEMB 69   CHL1 C16  CRL2  -0.180000       12.0110           0
    4914 MEMB 69   CHL1 H16A HGA2   0.090000        1.0080           0
    4915 MEMB 69   CHL1 H16B HGA2   0.090000        1.0080           0
    4916 MEMB 69   CHL1 C17  CRL1  -0.090000       12.0110           0
    4917 MEMB 69   CHL1 H17  HGA1   0.090000        1.0080           0
    4918 MEMB 69   CHL1 C13  CRL1   0.000000       12.0110           0
    4919 MEMB 69   CHL1 C18  CTL3  -0.270000       12.0110           0
    4920 MEMB 69   CHL1 H18A HAL3   0.090000        1.0080           0
    4921 MEMB 69   CHL1 H18B HAL3   0.090000        1.0080           0
    4922 MEMB 69   CHL1 H18C HAL3   0.090000        1.0080           0
    4923 MEMB 69   CHL1 C12  CRL2  -0.180000       12.0110           0
    4924 MEMB 69   CHL1 H12A HGA2   0.090000        1.0080           0
    4925 MEMB 69   CHL1 H12B HGA2   0.090000        1.0080           0
    4926 MEMB 69   CHL1 C11  CRL2  -0.180000       12.0110           0
    4927 MEMB 69   CHL1 H11A HGA2   0.090000        1.0080           0
    4928 MEMB 69   CHL1 H11B HGA2   0.090000        1.0080           0
    4929 MEMB 69   CHL1 C9   CRL1  -0.090000       12.0110           0
    4930 MEMB 69   CHL1 H9   HGA1   0.090000        1.0080           0
    4931 MEMB 69   CHL1 C10  CRL1   0.000000       12.0110           0
    4932 MEMB 69   CHL1 C19  CTL3  -0.270000       12.0110           0
    4933 MEMB 69   CHL1 H19A HAL3   0.090000        1.0080           0
    4934 MEMB 69   CHL1 H19B HAL3   0.090000        1.0080           0
    4935 MEMB 69   CHL1 H19C HAL3   0.090000        1.0080           0
    4936 MEMB 69   CHL1 C1   CRL2  -0.180000       12.0110           0
    4937 MEMB 69   CHL1 H1A  HGA2   0.090000        1.0080           0
    4938 MEMB 69   CHL1 H1B  HGA2   0.090000        1.0080           0
    4939 MEMB 69   CHL1 C2   CRL2  -0.180000       12.0110           0
    4940 MEMB 69   CHL1 H2A  HGA2   0.090000        1.0080           0
    4941 MEMB 69   CHL1 H2B  HGA2   0.090000        1.0080           0
    4942 MEMB 69   CHL1 C20  CTL1  -0.090000       12.0110           0
    4943 MEMB 69   CHL1 H20  HAL1   0.090000        1.0080           0
    4944 MEMB 69   CHL1 C21  CTL3  -0.270000       12.0110           0
    4945 MEMB 69   CHL1 H21A HAL3   0.090000        1.0080           0
    4946 MEMB 69   CHL1 H21B HAL3   0.090000        1.0080           0
    4947 MEMB 69   CHL1 H21C HAL3   0.090000        1.0080           0
    4948 MEMB 69   CHL1 C22  CTL2  -0.180000       12.0110           0
    4949 MEMB 69   CHL1 H22A HAL2   0.090000        1.0080           0
    4950 MEMB 69   CHL1 H22B HAL2   0.090000        1.0080           0
    4951 MEMB 69   CHL1 C23  CTL2  -0.180000       12.0110           0
    4952 MEMB 69   CHL1 H23A HAL2   0.090000        1.0080           0
    4953 MEMB 69   CHL1 H23B HAL2   0.090000        1.0080           0
    4954 MEMB 69   CHL1 C24  CTL2  -0.180000       12.0110           0
    4955 MEMB 69   CHL1 H24A HAL2   0.090000        1.0080           0
    4956 MEMB 69   CHL1 H24B HAL2   0.090000        1.0080           0
    4957 MEMB 69   CHL1 C25  CTL1  -0.090000       12.0110           0
    4958 MEMB 69   CHL1 H25  HAL1   0.090000        1.0080           0
    4959 MEMB 69   CHL1 C26  CTL3  -0.270000       12.0110           0
    4960 MEMB 69   CHL1 H26A HAL3   0.090000        1.0080           0
    4961 MEMB 69   CHL1 H26B HAL3   0.090000        1.0080           0
    4962 MEMB 69   CHL1 H26C HAL3   0.090000        1.0080           0
    4963 MEMB 69   CHL1 C27  CTL3  -0.270000       12.0110           0
    4964 MEMB 69   CHL1 H27A HAL3   0.090000        1.0080           0
    4965 MEMB 69   CHL1 H27B HAL3   0.090000        1.0080           0
    4966 MEMB 69   CHL1 H27C HAL3   0.090000        1.0080           0
    4967 MEMB 70   CHL1 C3   CRL1   0.140000       12.0110           0
    4968 MEMB 70   CHL1 H3   HGA1   0.090000        1.0080           0
    4969 MEMB 70   CHL1 O3   OHL   -0.660000       15.9994           0
    4970 MEMB 70   CHL1 H3'  HOL    0.430000        1.0080           0
    4971 MEMB 70   CHL1 C4   CRL2  -0.180000       12.0110           0
    4972 MEMB 70   CHL1 H4A  HGA2   0.090000        1.0080           0
    4973 MEMB 70   CHL1 H4B  HGA2   0.090000        1.0080           0
    4974 MEMB 70   CHL1 C5   CEL1   0.000000       12.0110           0
    4975 MEMB 70   CHL1 C6   CEL1  -0.150000       12.0110           0
    4976 MEMB 70   CHL1 H6   HEL1   0.150000        1.0080           0
    4977 MEMB 70   CHL1 C7   CRL2  -0.180000       12.0110           0
    4978 MEMB 70   CHL1 H7A  HGA2   0.090000        1.0080           0
    4979 MEMB 70   CHL1 H7B  HGA2   0.090000        1.0080           0
    4980 MEMB 70   CHL1 C8   CRL1  -0.090000       12.0110           0
    4981 MEMB 70   CHL1 H8   HGA1   0.090000        1.0080           0
    4982 MEMB 70   CHL1 C14  CRL1  -0.090000       12.0110           0
    4983 MEMB 70   CHL1 H14  HGA1   0.090000        1.0080           0
    4984 MEMB 70   CHL1 C15  CRL2  -0.180000       12.0110           0
    4985 MEMB 70   CHL1 H15A HGA2   0.090000        1.0080           0
    4986 MEMB 70   CHL1 H15B HGA2   0.090000        1.0080           0
    4987 MEMB 70   CHL1 C16  CRL2  -0.180000       12.0110           0
    4988 MEMB 70   CHL1 H16A HGA2   0.090000        1.0080           0
    4989 MEMB 70   CHL1 H16B HGA2   0.090000        1.0080           0
    4990 MEMB 70   CHL1 C17  CRL1  -0.090000       12.0110           0
    4991 MEMB 70   CHL1 H17  HGA1   0.090000        1.0080           0
    4992 MEMB 70   CHL1 C13  CRL1   0.000000       12.0110           0
    4993 MEMB 70   CHL1 C18  CTL3  -0.270000       12.0110           0
    4994 MEMB 70   CHL1 H18A HAL3   0.090000        1.0080           0
    4995 MEMB 70   CHL1 H18B HAL3   0.090000        1.0080           0
    4996 MEMB 70   CHL1 H18C HAL3   0.090000        1.0080           0
    4997 MEMB 70   CHL1 C12  CRL2  -0.180000       12.0110           0
    4998 MEMB 70   CHL1 H12A HGA2   0.090000        1.0080           0
    4999 MEMB 70   CHL1 H12B HGA2   0.090000        1.0080           0
    5000 MEMB 70   CHL1 C11  CRL2  -0.180000       12.0110           0
    5001 MEMB 70   CHL1 H11A HGA2   0.090000        1.0080           0
    5002 MEMB 70   CHL1 H11B HGA2   0.090000        1.0080           0
    5003 MEMB 70   CHL1 C9   CRL1  -0.090000       12.0110           0
    5004 MEMB 70   CHL1 H9   HGA1   0.090000        1.0080           0
    5005 MEMB 70   CHL1 C10  CRL1   0.000000       12.0110           0
    5006 MEMB 70   CHL1 C19  CTL3  -0.270000       12.0110           0
    5007 MEMB 70   CHL1 H19A HAL3   0.090000        1.0080           0
    5008 MEMB 70   CHL1 H19B HAL3   0.090000        1.0080           0
    5009 MEMB 70   CHL1 H19C HAL3   0.090000        1.0080           0
    5010 MEMB 70   CHL1 C1   CRL2  -0.180000       12.0110           0
    5011 MEMB 70   CHL1 H1A  HGA2   0.090000        1.0080           0
    5012 MEMB 70   CHL1 H1B  HGA2   0.090000        1.0080           0
    5013 MEMB 70   CHL1 C2   CRL2  -0.180000       12.0110           0
    5014 MEMB 70   CHL1 H2A  HGA2   0.090000        1.0080           0
    5015 MEMB 70   CHL1 H2B  HGA2   0.090000        1.0080           0
    5016 MEMB 70   CHL1 C20  CTL1  -0.090000       12.0110           0
    5017 MEMB 70   CHL1 H20  HAL1   0.090000        1.0080           0
    5018 MEMB 70   CHL1 C21  CTL3  -0.270000       12.0110           0
    5019 MEMB 70   CHL1 H21A HAL3   0.090000        1.0080           0
    5020 MEMB 70   CHL1 H21B HAL3   0.090000        1.0080           0
    5021 MEMB 70   CHL1 H21C HAL3   0.090000        1.0080           0
    5022 MEMB 70   CHL1 C22  CTL2  -0.180000       12.0110           0
    5023 MEMB 70   CHL1 H22A HAL2   0.090000        1.0080           0
    5024 MEMB 70   CHL1 H22B HAL2   0.090000        1.0080           0
    5025 MEMB 70   CHL1 C23  CTL2  -0.180000       12.0110           0
    5026 MEMB 70   CHL1 H23A HAL2   0.090000        1.0080           0
    5027 MEMB 70   CHL1 H23B HAL2   0.090000        1.0080           0
    5028 MEMB 70   CHL1 C24  CTL2  -0.180000       12.0110           0
    5029 MEMB 70   CHL1 H24A HAL2   0.090000        1.0080           0
    5030 MEMB 70   CHL1 H24B HAL2   0.090000        1.0080           0
    5031 MEMB 70   CHL1 C25  CTL1  -0.090000       12.0110           0
    5032 MEMB 70   CHL1 H25  HAL1   0.090000        1.0080           0
    5033 MEMB 70   CHL1 C26  CTL3  -0.270000       12.0110           0
    5034 MEMB 70   CHL1 H26A HAL3   0.090000        1.0080           0
    5035 MEMB 70   CHL1 H26B HAL3   0.090000        1.0080           0
    5036 MEMB 70   CHL1 H26C HAL3   0.090000        1.0080           0
    5037 MEMB 70   CHL1 C27  CTL3  -0.270000       12.0110           0
    5038 MEMB 70   CHL1 H27A HAL3   0.090000        1.0080           0
    5039 MEMB 70   CHL1 H27B HAL3   0.090000        1.0080           0
    5040 MEMB 70   CHL1 H27C HAL3   0.090000        1.0080           0
    5041 MEMB 71   CHL1 C3   CRL1   0.140000       12.0110           0
    5042 MEMB 71   CHL1 H3   HGA1   0.090000        1.0080           0
    5043 MEMB 71   CHL1 O3   OHL   -0.660000       15.9994           0
    5044 MEMB 71   CHL1 H3'  HOL    0.430000        1.0080           0
    5045 MEMB 71   CHL1 C4   CRL2  -0.180000       12.0110           0
    5046 MEMB 71   CHL1 H4A  HGA2   0.090000        1.0080           0
    5047 MEMB 71   CHL1 H4B  HGA2   0.090000        1.0080           0
    5048 MEMB 71   CHL1 C5   CEL1   0.000000       12.0110           0
    5049 MEMB 71   CHL1 C6   CEL1  -0.150000       12.0110           0
    5050 MEMB 71   CHL1 H6   HEL1   0.150000        1.0080           0
    5051 MEMB 71   CHL1 C7   CRL2  -0.180000       12.0110           0
    5052 MEMB 71   CHL1 H7A  HGA2   0.090000        1.0080           0
    5053 MEMB 71   CHL1 H7B  HGA2   0.090000        1.0080           0
    5054 MEMB 71   CHL1 C8   CRL1  -0.090000       12.0110           0
    5055 MEMB 71   CHL1 H8   HGA1   0.090000        1.0080           0
    5056 MEMB 71   CHL1 C14  CRL1  -0.090000       12.0110           0
    5057 MEMB 71   CHL1 H14  HGA1   0.090000        1.0080           0
    5058 MEMB 71   CHL1 C15  CRL2  -0.180000       12.0110           0
    5059 MEMB 71   CHL1 H15A HGA2   0.090000        1.0080           0
    5060 MEMB 71   CHL1 H15B HGA2   0.090000        1.0080           0
    5061 MEMB 71   CHL1 C16  CRL2  -0.180000       12.0110           0
    5062 MEMB 71   CHL1 H16A HGA2   0.090000        1.0080           0
    5063 MEMB 71   CHL1 H16B HGA2   0.090000        1.0080           0
    5064 MEMB 71   CHL1 C17  CRL1  -0.090000       12.0110           0
    5065 MEMB 71   CHL1 H17  HGA1   0.090000        1.0080           0
    5066 MEMB 71   CHL1 C13  CRL1   0.000000       12.0110           0
    5067 MEMB 71   CHL1 C18  CTL3  -0.270000       12.0110           0
    5068 MEMB 71   CHL1 H18A HAL3   0.090000        1.0080           0
    5069 MEMB 71   CHL1 H18B HAL3   0.090000        1.0080           0
    5070 MEMB 71   CHL1 H18C HAL3   0.090000        1.0080           0
    5071 MEMB 71   CHL1 C12  CRL2  -0.180000       12.0110           0
    5072 MEMB 71   CHL1 H12A HGA2   0.090000        1.0080           0
    5073 MEMB 71   CHL1 H12B HGA2   0.090000        1.0080           0
    5074 MEMB 71   CHL1 C11  CRL2  -0.180000       12.0110           0
    5075 MEMB 71   CHL1 H11A HGA2   0.090000        1.0080           0
    5076 MEMB 71   CHL1 H11B HGA2   0.090000        1.0080           0
    5077 MEMB 71   CHL1 C9   CRL1  -0.090000       12.0110           0
    5078 MEMB 71   CHL1 H9   HGA1   0.090000        1.0080           0
    5079 MEMB 71   CHL1 C10  CRL1   0.000000       12.0110           0
    5080 MEMB 71   CHL1 C19  CTL3  -0.270000       12.0110           0
    5081 MEMB 71   CHL1 H19A HAL3   0.090000        1.0080           0
    5082 MEMB 71   CHL1 H19B HAL3   0.090000        1.0080           0
    5083 MEMB 71   CHL1 H19C HAL3   0.090000        1.0080           0
    5084 MEMB 71   CHL1 C1   CRL2  -0.180000       12.0110           0
    5085 MEMB 71   CHL1 H1A  HGA2   0.090000        1.0080           0
    5086 MEMB 71   CHL1 H1B  HGA2   0.090000        1.0080           0
    5087 MEMB 71   CHL1 C2   CRL2  -0.180000       12.0110           0
    5088 MEMB 71   CHL1 H2A  HGA2   0.090000        1.0080           0
    5089 MEMB 71   CHL1 H2B  HGA2   0.090000        1.0080           0
    5090 MEMB 71   CHL1 C20  CTL1  -0.090000       12.0110           0
    5091 MEMB 71   CHL1 H20  HAL1   0.090000        1.0080           0
    5092 MEMB 71   CHL1 C21  CTL3  -0.270000       12.0110           0
    5093 MEMB 71   CHL1 H21A HAL3   0.090000        1.0080           0
    5094 MEMB 71   CHL1 H21B HAL3   0.090000        1.0080           0
    5095 MEMB 71   CHL1 H21C HAL3   0.090000        1.0080           0
    5096 MEMB 71   CHL1 C22  CTL2  -0.180000       12.0110           0
    5097 MEMB 71   CHL1 H22A HAL2   0.090000        1.0080           0
    5098 MEMB 71   CHL1 H22B HAL2   0.090000        1.0080           0
    5099 MEMB 71   CHL1 C23  CTL2  -0.180000       12.0110           0
    5100 MEMB 71   CHL1 H23A HAL2   0.090000        1.0080           0
    5101 MEMB 71   CHL1 H23B HAL2   0.090000        1.0080           0
    5102 MEMB 71   CHL1 C24  CTL2  -0.180000       12.0110           0
    5103 MEMB 71   CHL1 H24A HAL2   0.090000        1.0080           0
    5104 MEMB 71   CHL1 H24B HAL2   0.090000        1.0080           0
    5105 MEMB 71   CHL1 C25  CTL1  -0.090000       12.0110           0
    5106 MEMB 71   CHL1 H25  HAL1   0.090000        1.0080           0
    5107 MEMB 71   CHL1 C26  CTL3  -0.270000       12.0110           0
    5108 MEMB 71   CHL1 H26A HAL3   0.090000        1.0080           0
    5109 MEMB 71   CHL1 H26B HAL3   0.090000        1.0080           0
    5110 MEMB 71   CHL1 H26C HAL3   0.090000        1.0080           0
    5111 MEMB 71   CHL1 C27  CTL3  -0.270000       12.0110           0
    5112 MEMB 71   CHL1 H27A HAL3   0.090000        1.0080           0
    5113 MEMB 71   CHL1 H27B HAL3   0.090000        1.0080           0
    5114 MEMB 71   CHL1 H27C HAL3   0.090000        1.0080           0
    5115 MEMB 72   CHL1 C3   CRL1   0.140000       12.0110           0
    5116 MEMB 72   CHL1 H3   HGA1   0.090000        1.0080           0
    5117 MEMB 72   CHL1 O3   OHL   -0.660000       15.9994           0
    5118 MEMB 72   CHL1 H3'  HOL    0.430000        1.0080           0
    5119 MEMB 72   CHL1 C4   CRL2  -0.180000       12.0110           0
    5120 MEMB 72   CHL1 H4A  HGA2   0.090000        1.0080           0
    5121 MEMB 72   CHL1 H4B  HGA2   0.090000        1.0080           0
    5122 MEMB 72   CHL1 C5   CEL1   0.000000       12.0110           0
    5123 MEMB 72   CHL1 C6   CEL1  -0.150000       12.0110           0
    5124 MEMB 72   CHL1 H6   HEL1   0.150000        1.0080           0
    5125 MEMB 72   CHL1 C7   CRL2  -0.180000       12.0110           0
    5126 MEMB 72   CHL1 H7A  HGA2   0.090000        1.0080           0
    5127 MEMB 72   CHL1 H7B  HGA2   0.090000        1.0080           0
    5128 MEMB 72   CHL1 C8   CRL1  -0.090000       12.0110           0
    5129 MEMB 72   CHL1 H8   HGA1   0.090000        1.0080           0
    5130 MEMB 72   CHL1 C14  CRL1  -0.090000       12.0110           0
    5131 MEMB 72   CHL1 H14  HGA1   0.090000        1.0080           0
    5132 MEMB 72   CHL1 C15  CRL2  -0.180000       12.0110           0
    5133 MEMB 72   CHL1 H15A HGA2   0.090000        1.0080           0
    5134 MEMB 72   CHL1 H15B HGA2   0.090000        1.0080           0
    5135 MEMB 72   CHL1 C16  CRL2  -0.180000       12.0110           0
    5136 MEMB 72   CHL1 H16A HGA2   0.090000        1.0080           0
    5137 MEMB 72   CHL1 H16B HGA2   0.090000        1.0080           0
    5138 MEMB 72   CHL1 C17  CRL1  -0.090000       12.0110           0
    5139 MEMB 72   CHL1 H17  HGA1   0.090000        1.0080           0
    5140 MEMB 72   CHL1 C13  CRL1   0.000000       12.0110           0
    5141 MEMB 72   CHL1 C18  CTL3  -0.270000       12.0110           0
    5142 MEMB 72   CHL1 H18A HAL3   0.090000        1.0080           0
    5143 MEMB 72   CHL1 H18B HAL3   0.090000        1.0080           0
    5144 MEMB 72   CHL1 H18C HAL3   0.090000        1.0080           0
    5145 MEMB 72   CHL1 C12  CRL2  -0.180000       12.0110           0
    5146 MEMB 72   CHL1 H12A HGA2   0.090000        1.0080           0
    5147 MEMB 72   CHL1 H12B HGA2   0.090000        1.0080           0
    5148 MEMB 72   CHL1 C11  CRL2  -0.180000       12.0110           0
    5149 MEMB 72   CHL1 H11A HGA2   0.090000        1.0080           0
    5150 MEMB 72   CHL1 H11B HGA2   0.090000        1.0080           0
    5151 MEMB 72   CHL1 C9   CRL1  -0.090000       12.0110           0
    5152 MEMB 72   CHL1 H9   HGA1   0.090000        1.0080           0
    5153 MEMB 72   CHL1 C10  CRL1   0.000000       12.0110           0
    5154 MEMB 72   CHL1 C19  CTL3  -0.270000       12.0110           0
    5155 MEMB 72   CHL1 H19A HAL3   0.090000        1.0080           0
    5156 MEMB 72   CHL1 H19B HAL3   0.090000        1.0080           0
    5157 MEMB 72   CHL1 H19C HAL3   0.090000        1.0080           0
    5158 MEMB 72   CHL1 C1   CRL2  -0.180000       12.0110           0
    5159 MEMB 72   CHL1 H1A  HGA2   0.090000        1.0080           0
    5160 MEMB 72   CHL1 H1B  HGA2   0.090000        1.0080           0
    5161 MEMB 72   CHL1 C2   CRL2  -0.180000       12.0110           0
    5162 MEMB 72   CHL1 H2A  HGA2   0.090000        1.0080           0
    5163 MEMB 72   CHL1 H2B  HGA2   0.090000        1.0080           0
    5164 MEMB 72   CHL1 C20  CTL1  -0.090000       12.0110           0
    5165 MEMB 72   CHL1 H20  HAL1   0.090000        1.0080           0
    5166 MEMB 72   CHL1 C21  CTL3  -0.270000       12.0110           0
    5167 MEMB 72   CHL1 H21A HAL3   0.090000        1.0080           0
    5168 MEMB 72   CHL1 H21B HAL3   0.090000        1.0080           0
    5169 MEMB 72   CHL1 H21C HAL3   0.090000        1.0080           0
    5170 MEMB 72   CHL1 C22  CTL2  -0.180000       12.0110           0
    5171 MEMB 72   CHL1 H22A HAL2   0.090000        1.0080           0
    5172 MEMB 72   CHL1 H22B HAL2   0.090000        1.0080           0
    5173 MEMB 72   CHL1 C23  CTL2  -0.180000       12.0110           0
    5174 MEMB 72   CHL1 H23A HAL2   0.090000        1.0080           0
    5175 MEMB 72   CHL1 H23B HAL2   0.090000        1.0080           0
    5176 MEMB 72   CHL1 C24  CTL2  -0.180000       12.0110           0
    5177 MEMB 72   CHL1 H24A HAL2   0.090000        1.0080           0
    5178 MEMB 72   CHL1 H24B HAL2   0.090000        1.0080           0
    5179 MEMB 72   CHL1 C25  CTL1  -0.090000       12.0110           0
    5180 MEMB 72   CHL1 H25  HAL1   0.090000        1.0080           0
    5181 MEMB 72   CHL1 C26  CTL3  -0.270000       12.0110           0
    5182 MEMB 72   CHL1 H26A HAL3   0.090000        1.0080           0
    5183 MEMB 72   CHL1 H26B HAL3   0.090000        1.0080           0
    5184 MEMB 72   CHL1 H26C HAL3   0.090000        1.0080           0
    5185 MEMB 72   CHL1 C27  CTL3  -0.270000       12.0110           0
    5186 MEMB 72   CHL1 H27A HAL3   0.090000        1.0080           0
    5187 MEMB 72   CHL1 H27B HAL3   0.090000        1.0080           0
    5188 MEMB 72   CHL1 H27C HAL3   0.090000        1.0080           0
    5189 MEMB 73   CHL1 C3   CRL1   0.140000       12.0110           0
    5190 MEMB 73   CHL1 H3   HGA1   0.090000        1.0080           0
    5191 MEMB 73   CHL1 O3   OHL   -0.660000       15.9994           0
    5192 MEMB 73   CHL1 H3'  HOL    0.430000        1.0080           0
    5193 MEMB 73   CHL1 C4   CRL2  -0.180000       12.0110           0
    5194 MEMB 73   CHL1 H4A  HGA2   0.090000        1.0080           0
    5195 MEMB 73   CHL1 H4B  HGA2   0.090000        1.0080           0
    5196 MEMB 73   CHL1 C5   CEL1   0.000000       12.0110           0
    5197 MEMB 73   CHL1 C6   CEL1  -0.150000       12.0110           0
    5198 MEMB 73   CHL1 H6   HEL1   0.150000        1.0080           0
    5199 MEMB 73   CHL1 C7   CRL2  -0.180000       12.0110           0
    5200 MEMB 73   CHL1 H7A  HGA2   0.090000        1.0080           0
    5201 MEMB 73   CHL1 H7B  HGA2   0.090000        1.0080           0
    5202 MEMB 73   CHL1 C8   CRL1  -0.090000       12.0110           0
    5203 MEMB 73   CHL1 H8   HGA1   0.090000        1.0080           0
    5204 MEMB 73   CHL1 C14  CRL1  -0.090000       12.0110           0
    5205 MEMB 73   CHL1 H14  HGA1   0.090000        1.0080           0
    5206 MEMB 73   CHL1 C15  CRL2  -0.180000       12.0110           0
    5207 MEMB 73   CHL1 H15A HGA2   0.090000        1.0080           0
    5208 MEMB 73   CHL1 H15B HGA2   0.090000        1.0080           0
    5209 MEMB 73   CHL1 C16  CRL2  -0.180000       12.0110           0
    5210 MEMB 73   CHL1 H16A HGA2   0.090000        1.0080           0
    5211 MEMB 73   CHL1 H16B HGA2   0.090000        1.0080           0
    5212 MEMB 73   CHL1 C17  CRL1  -0.090000       12.0110           0
    5213 MEMB 73   CHL1 H17  HGA1   0.090000        1.0080           0
    5214 MEMB 73   CHL1 C13  CRL1   0.000000       12.0110           0
    5215 MEMB 73   CHL1 C18  CTL3  -0.270000       12.0110           0
    5216 MEMB 73   CHL1 H18A HAL3   0.090000        1.0080           0
    5217 MEMB 73   CHL1 H18B HAL3   0.090000        1.0080           0
    5218 MEMB 73   CHL1 H18C HAL3   0.090000        1.0080           0
    5219 MEMB 73   CHL1 C12  CRL2  -0.180000       12.0110           0
    5220 MEMB 73   CHL1 H12A HGA2   0.090000        1.0080           0
    5221 MEMB 73   CHL1 H12B HGA2   0.090000        1.0080           0
    5222 MEMB 73   CHL1 C11  CRL2  -0.180000       12.0110           0
    5223 MEMB 73   CHL1 H11A HGA2   0.090000        1.0080           0
    5224 MEMB 73   CHL1 H11B HGA2   0.090000        1.0080           0
    5225 MEMB 73   CHL1 C9   CRL1  -0.090000       12.0110           0
    5226 MEMB 73   CHL1 H9   HGA1   0.090000        1.0080           0
    5227 MEMB 73   CHL1 C10  CRL1   0.000000       12.0110           0
    5228 MEMB 73   CHL1 C19  CTL3  -0.270000       12.0110           0
    5229 MEMB 73   CHL1 H19A HAL3   0.090000        1.0080           0
    5230 MEMB 73   CHL1 H19B HAL3   0.090000        1.0080           0
    5231 MEMB 73   CHL1 H19C HAL3   0.090000        1.0080           0
    5232 MEMB 73   CHL1 C1   CRL2  -0.180000       12.0110           0
    5233 MEMB 73   CHL1 H1A  HGA2   0.090000        1.0080           0
    5234 MEMB 73   CHL1 H1B  HGA2   0.090000        1.0080           0
    5235 MEMB 73   CHL1 C2   CRL2  -0.180000       12.0110           0
    5236 MEMB 73   CHL1 H2A  HGA2   0.090000        1.0080           0
    5237 MEMB 73   CHL1 H2B  HGA2   0.090000        1.0080           0
    5238 MEMB 73   CHL1 C20  CTL1  -0.090000       12.0110           0
    5239 MEMB 73   CHL1 H20  HAL1   0.090000        1.0080           0
    5240 MEMB 73   CHL1 C21  CTL3  -0.270000       12.0110           0
    5241 MEMB 73   CHL1 H21A HAL3   0.090000        1.0080           0
    5242 MEMB 73   CHL1 H21B HAL3   0.090000        1.0080           0
    5243 MEMB 73   CHL1 H21C HAL3   0.090000        1.0080           0
    5244 MEMB 73   CHL1 C22  CTL2  -0.180000       12.0110           0
    5245 MEMB 73   CHL1 H22A HAL2   0.090000        1.0080           0
    5246 MEMB 73   CHL1 H22B HAL2   0.090000        1.0080           0
    5247 MEMB 73   CHL1 C23  CTL2  -0.180000       12.0110           0
    5248 MEMB 73   CHL1 H23A HAL2   0.090000        1.0080           0
    5249 MEMB 73   CHL1 H23B HAL2   0.090000        1.0080           0
    5250 MEMB 73   CHL1 C24  CTL2  -0.180000       12.0110           0
    5251 MEMB 73   CHL1 H24A HAL2   0.090000        1.0080           0
    5252 MEMB 73   CHL1 H24B HAL2   0.090000        1.0080           0
    5253 MEMB 73   CHL1 C25  CTL1  -0.090000       12.0110           0
    5254 MEMB 73   CHL1 H25  HAL1   0.090000        1.0080           0
    5255 MEMB 73   CHL1 C26  CTL3  -0.270000       12.0110           0
    5256 MEMB 73   CHL1 H26A HAL3   0.090000        1.0080           0
    5257 MEMB 73   CHL1 H26B HAL3   0.090000        1.0080           0
    5258 MEMB 73   CHL1 H26C HAL3   0.090000        1.0080           0
    5259 MEMB 73   CHL1 C27  CTL3  -0.270000       12.0110           0
    5260 MEMB 73   CHL1 H27A HAL3   0.090000        1.0080           0
    5261 MEMB 73   CHL1 H27B HAL3   0.090000        1.0080           0
    5262 MEMB 73   CHL1 H27C HAL3   0.090000        1.0080           0
    5263 MEMB 74   CHL1 C3   CRL1   0.140000       12.0110           0
    5264 MEMB 74   CHL1 H3   HGA1   0.090000        1.0080           0
    5265 MEMB 74   CHL1 O3   OHL   -0.660000       15.9994           0
    5266 MEMB 74   CHL1 H3'  HOL    0.430000        1.0080           0
    5267 MEMB 74   CHL1 C4   CRL2  -0.180000       12.0110           0
    5268 MEMB 74   CHL1 H4A  HGA2   0.090000        1.0080           0
    5269 MEMB 74   CHL1 H4B  HGA2   0.090000        1.0080           0
    5270 MEMB 74   CHL1 C5   CEL1   0.000000       12.0110           0
    5271 MEMB 74   CHL1 C6   CEL1  -0.150000       12.0110           0
    5272 MEMB 74   CHL1 H6   HEL1   0.150000        1.0080           0
    5273 MEMB 74   CHL1 C7   CRL2  -0.180000       12.0110           0
    5274 MEMB 74   CHL1 H7A  HGA2   0.090000        1.0080           0
    5275 MEMB 74   CHL1 H7B  HGA2   0.090000        1.0080           0
    5276 MEMB 74   CHL1 C8   CRL1  -0.090000       12.0110           0
    5277 MEMB 74   CHL1 H8   HGA1   0.090000        1.0080           0
    5278 MEMB 74   CHL1 C14  CRL1  -0.090000       12.0110           0
    5279 MEMB 74   CHL1 H14  HGA1   0.090000        1.0080           0
    5280 MEMB 74   CHL1 C15  CRL2  -0.180000       12.0110           0
    5281 MEMB 74   CHL1 H15A HGA2   0.090000        1.0080           0
    5282 MEMB 74   CHL1 H15B HGA2   0.090000        1.0080           0
    5283 MEMB 74   CHL1 C16  CRL2  -0.180000       12.0110           0
    5284 MEMB 74   CHL1 H16A HGA2   0.090000        1.0080           0
    5285 MEMB 74   CHL1 H16B HGA2   0.090000        1.0080           0
    5286 MEMB 74   CHL1 C17  CRL1  -0.090000       12.0110           0
    5287 MEMB 74   CHL1 H17  HGA1   0.090000        1.0080           0
    5288 MEMB 74   CHL1 C13  CRL1   0.000000       12.0110           0
    5289 MEMB 74   CHL1 C18  CTL3  -0.270000       12.0110           0
    5290 MEMB 74   CHL1 H18A HAL3   0.090000        1.0080           0
    5291 MEMB 74   CHL1 H18B HAL3   0.090000        1.0080           0
    5292 MEMB 74   CHL1 H18C HAL3   0.090000        1.0080           0
    5293 MEMB 74   CHL1 C12  CRL2  -0.180000       12.0110           0
    5294 MEMB 74   CHL1 H12A HGA2   0.090000        1.0080           0
    5295 MEMB 74   CHL1 H12B HGA2   0.090000        1.0080           0
    5296 MEMB 74   CHL1 C11  CRL2  -0.180000       12.0110           0
    5297 MEMB 74   CHL1 H11A HGA2   0.090000        1.0080           0
    5298 MEMB 74   CHL1 H11B HGA2   0.090000        1.0080           0
    5299 MEMB 74   CHL1 C9   CRL1  -0.090000       12.0110           0
    5300 MEMB 74   CHL1 H9   HGA1   0.090000        1.0080           0
    5301 MEMB 74   CHL1 C10  CRL1   0.000000       12.0110           0
    5302 MEMB 74   CHL1 C19  CTL3  -0.270000       12.0110           0
    5303 MEMB 74   CHL1 H19A HAL3   0.090000        1.0080           0
    5304 MEMB 74   CHL1 H19B HAL3   0.090000        1.0080           0
    5305 MEMB 74   CHL1 H19C HAL3   0.090000        1.0080           0
    5306 MEMB 74   CHL1 C1   CRL2  -0.180000       12.0110           0
    5307 MEMB 74   CHL1 H1A  HGA2   0.090000        1.0080           0
    5308 MEMB 74   CHL1 H1B  HGA2   0.090000        1.0080           0
    5309 MEMB 74   CHL1 C2   CRL2  -0.180000       12.0110           0
    5310 MEMB 74   CHL1 H2A  HGA2   0.090000        1.0080           0
    5311 MEMB 74   CHL1 H2B  HGA2   0.090000        1.0080           0
    5312 MEMB 74   CHL1 C20  CTL1  -0.090000       12.0110           0
    5313 MEMB 74   CHL1 H20  HAL1   0.090000        1.0080           0
    5314 MEMB 74   CHL1 C21  CTL3  -0.270000       12.0110           0
    5315 MEMB 74   CHL1 H21A HAL3   0.090000        1.0080           0
    5316 MEMB 74   CHL1 H21B HAL3   0.090000        1.0080           0
    5317 MEMB 74   CHL1 H21C HAL3   0.090000        1.0080           0
    5318 MEMB 74   CHL1 C22  CTL2  -0.180000       12.0110           0
    5319 MEMB 74   CHL1 H22A HAL2   0.090000        1.0080           0
    5320 MEMB 74   CHL1 H22B HAL2   0.090000        1.0080           0
    5321 MEMB 74   CHL1 C23  CTL2  -0.180000       12.0110           0
    5322 MEMB 74   CHL1 H23A HAL2   0.090000        1.0080           0
    5323 MEMB 74   CHL1 H23B HAL2   0.090000        1.0080           0
    5324 MEMB 74   CHL1 C24  CTL2  -0.180000       12.0110           0
    5325 MEMB 74   CHL1 H24A HAL2   0.090000        1.0080           0
    5326 MEMB 74   CHL1 H24B HAL2   0.090000        1.0080           0
    5327 MEMB 74   CHL1 C25  CTL1  -0.090000       12.0110           0
    5328 MEMB 74   CHL1 H25  HAL1   0.090000        1.0080           0
    5329 MEMB 74   CHL1 C26  CTL3  -0.270000       12.0110           0
    5330 MEMB 74   CHL1 H26A HAL3   0.090000        1.0080           0
    5331 MEMB 74   CHL1 H26B HAL3   0.090000        1.0080           0
    5332 MEMB 74   CHL1 H26C HAL3   0.090000        1.0080           0
    5333 MEMB 74   CHL1 C27  CTL3  -0.270000       12.0110           0
    5334 MEMB 74   CHL1 H27A HAL3   0.090000        1.0080           0
    5335 MEMB 74   CHL1 H27B HAL3   0.090000        1.0080           0
    5336 MEMB 74   CHL1 H27C HAL3   0.090000        1.0080           0
    5337 MEMB 75   CHL1 C3   CRL1   0.140000       12.0110           0
    5338 MEMB 75   CHL1 H3   HGA1   0.090000        1.0080           0
    5339 MEMB 75   CHL1 O3   OHL   -0.660000       15.9994           0
    5340 MEMB 75   CHL1 H3'  HOL    0.430000        1.0080           0
    5341 MEMB 75   CHL1 C4   CRL2  -0.180000       12.0110           0
    5342 MEMB 75   CHL1 H4A  HGA2   0.090000        1.0080           0
    5343 MEMB 75   CHL1 H4B  HGA2   0.090000        1.0080           0
    5344 MEMB 75   CHL1 C5   CEL1   0.000000       12.0110           0
    5345 MEMB 75   CHL1 C6   CEL1  -0.150000       12.0110           0
    5346 MEMB 75   CHL1 H6   HEL1   0.150000        1.0080           0
    5347 MEMB 75   CHL1 C7   CRL2  -0.180000       12.0110           0
    5348 MEMB 75   CHL1 H7A  HGA2   0.090000        1.0080           0
    5349 MEMB 75   CHL1 H7B  HGA2   0.090000        1.0080           0
    5350 MEMB 75   CHL1 C8   CRL1  -0.090000       12.0110           0
    5351 MEMB 75   CHL1 H8   HGA1   0.090000        1.0080           0
    5352 MEMB 75   CHL1 C14  CRL1  -0.090000       12.0110           0
    5353 MEMB 75   CHL1 H14  HGA1   0.090000        1.0080           0
    5354 MEMB 75   CHL1 C15  CRL2  -0.180000       12.0110           0
    5355 MEMB 75   CHL1 H15A HGA2   0.090000        1.0080           0
    5356 MEMB 75   CHL1 H15B HGA2   0.090000        1.0080           0
    5357 MEMB 75   CHL1 C16  CRL2  -0.180000       12.0110           0
    5358 MEMB 75   CHL1 H16A HGA2   0.090000        1.0080           0
    5359 MEMB 75   CHL1 H16B HGA2   0.090000        1.0080           0
    5360 MEMB 75   CHL1 C17  CRL1  -0.090000       12.0110           0
    5361 MEMB 75   CHL1 H17  HGA1   0.090000        1.0080           0
    5362 MEMB 75   CHL1 C13  CRL1   0.000000       12.0110           0
    5363 MEMB 75   CHL1 C18  CTL3  -0.270000       12.0110           0
    5364 MEMB 75   CHL1 H18A HAL3   0.090000        1.0080           0
    5365 MEMB 75   CHL1 H18B HAL3   0.090000        1.0080           0
    5366 MEMB 75   CHL1 H18C HAL3   0.090000        1.0080           0
    5367 MEMB 75   CHL1 C12  CRL2  -0.180000       12.0110           0
    5368 MEMB 75   CHL1 H12A HGA2   0.090000        1.0080           0
    5369 MEMB 75   CHL1 H12B HGA2   0.090000        1.0080           0
    5370 MEMB 75   CHL1 C11  CRL2  -0.180000       12.0110           0
    5371 MEMB 75   CHL1 H11A HGA2   0.090000        1.0080           0
    5372 MEMB 75   CHL1 H11B HGA2   0.090000        1.0080           0
    5373 MEMB 75   CHL1 C9   CRL1  -0.090000       12.0110           0
    5374 MEMB 75   CHL1 H9   HGA1   0.090000        1.0080           0
    5375 MEMB 75   CHL1 C10  CRL1   0.000000       12.0110           0
    5376 MEMB 75   CHL1 C19  CTL3  -0.270000       12.0110           0
    5377 MEMB 75   CHL1 H19A HAL3   0.090000        1.0080           0
    5378 MEMB 75   CHL1 H19B HAL3   0.090000        1.0080           0
    5379 MEMB 75   CHL1 H19C HAL3   0.090000        1.0080           0
    5380 MEMB 75   CHL1 C1   CRL2  -0.180000       12.0110           0
    5381 MEMB 75   CHL1 H1A  HGA2   0.090000        1.0080           0
    5382 MEMB 75   CHL1 H1B  HGA2   0.090000        1.0080           0
    5383 MEMB 75   CHL1 C2   CRL2  -0.180000       12.0110           0
    5384 MEMB 75   CHL1 H2A  HGA2   0.090000        1.0080           0
    5385 MEMB 75   CHL1 H2B  HGA2   0.090000        1.0080           0
    5386 MEMB 75   CHL1 C20  CTL1  -0.090000       12.0110           0
    5387 MEMB 75   CHL1 H20  HAL1   0.090000        1.0080           0
    5388 MEMB 75   CHL1 C21  CTL3  -0.270000       12.0110           0
    5389 MEMB 75   CHL1 H21A HAL3   0.090000        1.0080           0
    5390 MEMB 75   CHL1 H21B HAL3   0.090000        1.0080           0
    5391 MEMB 75   CHL1 H21C HAL3   0.090000        1.0080           0
    5392 MEMB 75   CHL1 C22  CTL2  -0.180000       12.0110           0
    5393 MEMB 75   CHL1 H22A HAL2   0.090000        1.0080           0
    5394 MEMB 75   CHL1 H22B HAL2   0.090000        1.0080           0
    5395 MEMB 75   CHL1 C23  CTL2  -0.180000       12.0110           0
    5396 MEMB 75   CHL1 H23A HAL2   0.090000        1.0080           0
    5397 MEMB 75   CHL1 H23B HAL2   0.090000        1.0080           0
    5398 MEMB 75   CHL1 C24  CTL2  -0.180000       12.0110           0
    5399 MEMB 75   CHL1 H24A HAL2   0.090000        1.0080           0
    5400 MEMB 75   CHL1 H24B HAL2   0.090000        1.0080           0
    5401 MEMB 75   CHL1 C25  CTL1  -0.090000       12.0110           0
    5402 MEMB 75   CHL1 H25  HAL1   0.090000        1.0080           0
    5403 MEMB 75   CHL1 C26  CTL3  -0.270000       12.0110           0
    5404 MEMB 75   CHL1 H26A HAL3   0.090000        1.0080           0
    5405 MEMB 75   CHL1 H26B HAL3   0.090000        1.0080           0
    5406 MEMB 75   CHL1 H26C HAL3   0.090000        1.0080           0
    5407 MEMB 75   CHL1 C27  CTL3  -0.270000       12.0110           0
    5408 MEMB 75   CHL1 H27A HAL3   0.090000        1.0080           0
    5409 MEMB 75   CHL1 H27B HAL3   0.090000        1.0080           0
    5410 MEMB 75   CHL1 H27C HAL3   0.090000        1.0080           0
    5411 MEMB 76   CHL1 C3   CRL1   0.140000       12.0110           0
    5412 MEMB 76   CHL1 H3   HGA1   0.090000        1.0080           0
    5413 MEMB 76   CHL1 O3   OHL   -0.660000       15.9994           0
    5414 MEMB 76   CHL1 H3'  HOL    0.430000        1.0080           0
    5415 MEMB 76   CHL1 C4   CRL2  -0.180000       12.0110           0
    5416 MEMB 76   CHL1 H4A  HGA2   0.090000        1.0080           0
    5417 MEMB 76   CHL1 H4B  HGA2   0.090000        1.0080           0
    5418 MEMB 76   CHL1 C5   CEL1   0.000000       12.0110           0
    5419 MEMB 76   CHL1 C6   CEL1  -0.150000       12.0110           0
    5420 MEMB 76   CHL1 H6   HEL1   0.150000        1.0080           0
    5421 MEMB 76   CHL1 C7   CRL2  -0.180000       12.0110           0
    5422 MEMB 76   CHL1 H7A  HGA2   0.090000        1.0080           0
    5423 MEMB 76   CHL1 H7B  HGA2   0.090000        1.0080           0
    5424 MEMB 76   CHL1 C8   CRL1  -0.090000       12.0110           0
    5425 MEMB 76   CHL1 H8   HGA1   0.090000        1.0080           0
    5426 MEMB 76   CHL1 C14  CRL1  -0.090000       12.0110           0
    5427 MEMB 76   CHL1 H14  HGA1   0.090000        1.0080           0
    5428 MEMB 76   CHL1 C15  CRL2  -0.180000       12.0110           0
    5429 MEMB 76   CHL1 H15A HGA2   0.090000        1.0080           0
    5430 MEMB 76   CHL1 H15B HGA2   0.090000        1.0080           0
    5431 MEMB 76   CHL1 C16  CRL2  -0.180000       12.0110           0
    5432 MEMB 76   CHL1 H16A HGA2   0.090000        1.0080           0
    5433 MEMB 76   CHL1 H16B HGA2   0.090000        1.0080           0
    5434 MEMB 76   CHL1 C17  CRL1  -0.090000       12.0110           0
    5435 MEMB 76   CHL1 H17  HGA1   0.090000        1.0080           0
    5436 MEMB 76   CHL1 C13  CRL1   0.000000       12.0110           0
    5437 MEMB 76   CHL1 C18  CTL3  -0.270000       12.0110           0
    5438 MEMB 76   CHL1 H18A HAL3   0.090000        1.0080           0
    5439 MEMB 76   CHL1 H18B HAL3   0.090000        1.0080           0
    5440 MEMB 76   CHL1 H18C HAL3   0.090000        1.0080           0
    5441 MEMB 76   CHL1 C12  CRL2  -0.180000       12.0110           0
    5442 MEMB 76   CHL1 H12A HGA2   0.090000        1.0080           0
    5443 MEMB 76   CHL1 H12B HGA2   0.090000        1.0080           0
    5444 MEMB 76   CHL1 C11  CRL2  -0.180000       12.0110           0
    5445 MEMB 76   CHL1 H11A HGA2   0.090000        1.0080           0
    5446 MEMB 76   CHL1 H11B HGA2   0.090000        1.0080           0
    5447 MEMB 76   CHL1 C9   CRL1  -0.090000       12.0110           0
    5448 MEMB 76   CHL1 H9   HGA1   0.090000        1.0080           0
    5449 MEMB 76   CHL1 C10  CRL1   0.000000       12.0110           0
    5450 MEMB 76   CHL1 C19  CTL3  -0.270000       12.0110           0
    5451 MEMB 76   CHL1 H19A HAL3   0.090000        1.0080           0
    5452 MEMB 76   CHL1 H19B HAL3   0.090000        1.0080           0
    5453 MEMB 76   CHL1 H19C HAL3   0.090000        1.0080           0
    5454 MEMB 76   CHL1 C1   CRL2  -0.180000       12.0110           0
    5455 MEMB 76   CHL1 H1A  HGA2   0.090000        1.0080           0
    5456 MEMB 76   CHL1 H1B  HGA2   0.090000        1.0080           0
    5457 MEMB 76   CHL1 C2   CRL2  -0.180000       12.0110           0
    5458 MEMB 76   CHL1 H2A  HGA2   0.090000        1.0080           0
    5459 MEMB 76   CHL1 H2B  HGA2   0.090000        1.0080           0
    5460 MEMB 76   CHL1 C20  CTL1  -0.090000       12.0110           0
    5461 MEMB 76   CHL1 H20  HAL1   0.090000        1.0080           0
    5462 MEMB 76   CHL1 C21  CTL3  -0.270000       12.0110           0
    5463 MEMB 76   CHL1 H21A HAL3   0.090000        1.0080           0
    5464 MEMB 76   CHL1 H21B HAL3   0.090000        1.0080           0
    5465 MEMB 76   CHL1 H21C HAL3   0.090000        1.0080           0
    5466 MEMB 76   CHL1 C22  CTL2  -0.180000       12.0110           0
    5467 MEMB 76   CHL1 H22A HAL2   0.090000        1.0080           0
    5468 MEMB 76   CHL1 H22B HAL2   0.090000        1.0080           0
    5469 MEMB 76   CHL1 C23  CTL2  -0.180000       12.0110           0
    5470 MEMB 76   CHL1 H23A HAL2   0.090000        1.0080           0
    5471 MEMB 76   CHL1 H23B HAL2   0.090000        1.0080           0
    5472 MEMB 76   CHL1 C24  CTL2  -0.180000       12.0110           0
    5473 MEMB 76   CHL1 H24A HAL2   0.090000        1.0080           0
    5474 MEMB 76   CHL1 H24B HAL2   0.090000        1.0080           0
    5475 MEMB 76   CHL1 C25  CTL1  -0.090000       12.0110           0
    5476 MEMB 76   CHL1 H25  HAL1   0.090000        1.0080           0
    5477 MEMB 76   CHL1 C26  CTL3  -0.270000       12.0110           0
    5478 MEMB 76   CHL1 H26A HAL3   0.090000        1.0080           0
    5479 MEMB 76   CHL1 H26B HAL3   0.090000        1.0080           0
    5480 MEMB 76   CHL1 H26C HAL3   0.090000        1.0080           0
    5481 MEMB 76   CHL1 C27  CTL3  -0.270000       12.0110           0
    5482 MEMB 76   CHL1 H27A HAL3   0.090000        1.0080           0
    5483 MEMB 76   CHL1 H27B HAL3   0.090000        1.0080           0
    5484 MEMB 76   CHL1 H27C HAL3   0.090000        1.0080           0
    5485 MEMB 77   CHL1 C3   CRL1   0.140000       12.0110           0
    5486 MEMB 77   CHL1 H3   HGA1   0.090000        1.0080           0
    5487 MEMB 77   CHL1 O3   OHL   -0.660000       15.9994           0
    5488 MEMB 77   CHL1 H3'  HOL    0.430000        1.0080           0
    5489 MEMB 77   CHL1 C4   CRL2  -0.180000       12.0110           0
    5490 MEMB 77   CHL1 H4A  HGA2   0.090000        1.0080           0
    5491 MEMB 77   CHL1 H4B  HGA2   0.090000        1.0080           0
    5492 MEMB 77   CHL1 C5   CEL1   0.000000       12.0110           0
    5493 MEMB 77   CHL1 C6   CEL1  -0.150000       12.0110           0
    5494 MEMB 77   CHL1 H6   HEL1   0.150000        1.0080           0
    5495 MEMB 77   CHL1 C7   CRL2  -0.180000       12.0110           0
    5496 MEMB 77   CHL1 H7A  HGA2   0.090000        1.0080           0
    5497 MEMB 77   CHL1 H7B  HGA2   0.090000        1.0080           0
    5498 MEMB 77   CHL1 C8   CRL1  -0.090000       12.0110           0
    5499 MEMB 77   CHL1 H8   HGA1   0.090000        1.0080           0
    5500 MEMB 77   CHL1 C14  CRL1  -0.090000       12.0110           0
    5501 MEMB 77   CHL1 H14  HGA1   0.090000        1.0080           0
    5502 MEMB 77   CHL1 C15  CRL2  -0.180000       12.0110           0
    5503 MEMB 77   CHL1 H15A HGA2   0.090000        1.0080           0
    5504 MEMB 77   CHL1 H15B HGA2   0.090000        1.0080           0
    5505 MEMB 77   CHL1 C16  CRL2  -0.180000       12.0110           0
    5506 MEMB 77   CHL1 H16A HGA2   0.090000        1.0080           0
    5507 MEMB 77   CHL1 H16B HGA2   0.090000        1.0080           0
    5508 MEMB 77   CHL1 C17  CRL1  -0.090000       12.0110           0
    5509 MEMB 77   CHL1 H17  HGA1   0.090000        1.0080           0
    5510 MEMB 77   CHL1 C13  CRL1   0.000000       12.0110           0
    5511 MEMB 77   CHL1 C18  CTL3  -0.270000       12.0110           0
    5512 MEMB 77   CHL1 H18A HAL3   0.090000        1.0080           0
    5513 MEMB 77   CHL1 H18B HAL3   0.090000        1.0080           0
    5514 MEMB 77   CHL1 H18C HAL3   0.090000        1.0080           0
    5515 MEMB 77   CHL1 C12  CRL2  -0.180000       12.0110           0
    5516 MEMB 77   CHL1 H12A HGA2   0.090000        1.0080           0
    5517 MEMB 77   CHL1 H12B HGA2   0.090000        1.0080           0
    5518 MEMB 77   CHL1 C11  CRL2  -0.180000       12.0110           0
    5519 MEMB 77   CHL1 H11A HGA2   0.090000        1.0080           0
    5520 MEMB 77   CHL1 H11B HGA2   0.090000        1.0080           0
    5521 MEMB 77   CHL1 C9   CRL1  -0.090000       12.0110           0
    5522 MEMB 77   CHL1 H9   HGA1   0.090000        1.0080           0
    5523 MEMB 77   CHL1 C10  CRL1   0.000000       12.0110           0
    5524 MEMB 77   CHL1 C19  CTL3  -0.270000       12.0110           0
    5525 MEMB 77   CHL1 H19A HAL3   0.090000        1.0080           0
    5526 MEMB 77   CHL1 H19B HAL3   0.090000        1.0080           0
    5527 MEMB 77   CHL1 H19C HAL3   0.090000        1.0080           0
    5528 MEMB 77   CHL1 C1   CRL2  -0.180000       12.0110           0
    5529 MEMB 77   CHL1 H1A  HGA2   0.090000        1.0080           0
    5530 MEMB 77   CHL1 H1B  HGA2   0.090000        1.0080           0
    5531 MEMB 77   CHL1 C2   CRL2  -0.180000       12.0110           0
    5532 MEMB 77   CHL1 H2A  HGA2   0.090000        1.0080           0
    5533 MEMB 77   CHL1 H2B  HGA2   0.090000        1.0080           0
    5534 MEMB 77   CHL1 C20  CTL1  -0.090000       12.0110           0
    5535 MEMB 77   CHL1 H20  HAL1   0.090000        1.0080           0
    5536 MEMB 77   CHL1 C21  CTL3  -0.270000       12.0110           0
    5537 MEMB 77   CHL1 H21A HAL3   0.090000        1.0080           0
    5538 MEMB 77   CHL1 H21B HAL3   0.090000        1.0080           0
    5539 MEMB 77   CHL1 H21C HAL3   0.090000        1.0080           0
    5540 MEMB 77   CHL1 C22  CTL2  -0.180000       12.0110           0
    5541 MEMB 77   CHL1 H22A HAL2   0.090000        1.0080           0
    5542 MEMB 77   CHL1 H22B HAL2   0.090000        1.0080           0
    5543 MEMB 77   CHL1 C23  CTL2  -0.180000       12.0110           0
    5544 MEMB 77   CHL1 H23A HAL2   0.090000        1.0080           0
    5545 MEMB 77   CHL1 H23B HAL2   0.090000        1.0080           0
    5546 MEMB 77   CHL1 C24  CTL2  -0.180000       12.0110           0
    5547 MEMB 77   CHL1 H24A HAL2   0.090000        1.0080           0
    5548 MEMB 77   CHL1 H24B HAL2   0.090000        1.0080           0
    5549 MEMB 77   CHL1 C25  CTL1  -0.090000       12.0110           0
    5550 MEMB 77   CHL1 H25  HAL1   0.090000        1.0080           0
    5551 MEMB 77   CHL1 C26  CTL3  -0.270000       12.0110           0
    5552 MEMB 77   CHL1 H26A HAL3   0.090000        1.0080           0
    5553 MEMB 77   CHL1 H26B HAL3   0.090000        1.0080           0
    5554 MEMB 77   CHL1 H26C HAL3   0.090000        1.0080           0
    5555 MEMB 77   CHL1 C27  CTL3  -0.270000       12.0110           0
    5556 MEMB 77   CHL1 H27A HAL3   0.090000        1.0080           0
    5557 MEMB 77   CHL1 H27B HAL3   0.090000        1.0080           0
    5558 MEMB 77   CHL1 H27C HAL3   0.090000        1.0080           0
    5559 MEMB 78   CHL1 C3   CRL1   0.140000       12.0110           0
    5560 MEMB 78   CHL1 H3   HGA1   0.090000        1.0080           0
    5561 MEMB 78   CHL1 O3   OHL   -0.660000       15.9994           0
    5562 MEMB 78   CHL1 H3'  HOL    0.430000        1.0080           0
    5563 MEMB 78   CHL1 C4   CRL2  -0.180000       12.0110           0
    5564 MEMB 78   CHL1 H4A  HGA2   0.090000        1.0080           0
    5565 MEMB 78   CHL1 H4B  HGA2   0.090000        1.0080           0
    5566 MEMB 78   CHL1 C5   CEL1   0.000000       12.0110           0
    5567 MEMB 78   CHL1 C6   CEL1  -0.150000       12.0110           0
    5568 MEMB 78   CHL1 H6   HEL1   0.150000        1.0080           0
    5569 MEMB 78   CHL1 C7   CRL2  -0.180000       12.0110           0
    5570 MEMB 78   CHL1 H7A  HGA2   0.090000        1.0080           0
    5571 MEMB 78   CHL1 H7B  HGA2   0.090000        1.0080           0
    5572 MEMB 78   CHL1 C8   CRL1  -0.090000       12.0110           0
    5573 MEMB 78   CHL1 H8   HGA1   0.090000        1.0080           0
    5574 MEMB 78   CHL1 C14  CRL1  -0.090000       12.0110           0
    5575 MEMB 78   CHL1 H14  HGA1   0.090000        1.0080           0
    5576 MEMB 78   CHL1 C15  CRL2  -0.180000       12.0110           0
    5577 MEMB 78   CHL1 H15A HGA2   0.090000        1.0080           0
    5578 MEMB 78   CHL1 H15B HGA2   0.090000        1.0080           0
    5579 MEMB 78   CHL1 C16  CRL2  -0.180000       12.0110           0
    5580 MEMB 78   CHL1 H16A HGA2   0.090000        1.0080           0
    5581 MEMB 78   CHL1 H16B HGA2   0.090000        1.0080           0
    5582 MEMB 78   CHL1 C17  CRL1  -0.090000       12.0110           0
    5583 MEMB 78   CHL1 H17  HGA1   0.090000        1.0080           0
    5584 MEMB 78   CHL1 C13  CRL1   0.000000       12.0110           0
    5585 MEMB 78   CHL1 C18  CTL3  -0.270000       12.0110           0
    5586 MEMB 78   CHL1 H18A HAL3   0.090000        1.0080           0
    5587 MEMB 78   CHL1 H18B HAL3   0.090000        1.0080           0
    5588 MEMB 78   CHL1 H18C HAL3   0.090000        1.0080           0
    5589 MEMB 78   CHL1 C12  CRL2  -0.180000       12.0110           0
    5590 MEMB 78   CHL1 H12A HGA2   0.090000        1.0080           0
    5591 MEMB 78   CHL1 H12B HGA2   0.090000        1.0080           0
    5592 MEMB 78   CHL1 C11  CRL2  -0.180000       12.0110           0
    5593 MEMB 78   CHL1 H11A HGA2   0.090000        1.0080           0
    5594 MEMB 78   CHL1 H11B HGA2   0.090000        1.0080           0
    5595 MEMB 78   CHL1 C9   CRL1  -0.090000       12.0110           0
    5596 MEMB 78   CHL1 H9   HGA1   0.090000        1.0080           0
    5597 MEMB 78   CHL1 C10  CRL1   0.000000       12.0110           0
    5598 MEMB 78   CHL1 C19  CTL3  -0.270000       12.0110           0
    5599 MEMB 78   CHL1 H19A HAL3   0.090000        1.0080           0
    5600 MEMB 78   CHL1 H19B HAL3   0.090000        1.0080           0
    5601 MEMB 78   CHL1 H19C HAL3   0.090000        1.0080           0
    5602 MEMB 78   CHL1 C1   CRL2  -0.180000       12.0110           0
    5603 MEMB 78   CHL1 H1A  HGA2   0.090000        1.0080           0
    5604 MEMB 78   CHL1 H1B  HGA2   0.090000        1.0080           0
    5605 MEMB 78   CHL1 C2   CRL2  -0.180000       12.0110           0
    5606 MEMB 78   CHL1 H2A  HGA2   0.090000        1.0080           0
    5607 MEMB 78   CHL1 H2B  HGA2   0.090000        1.0080           0
    5608 MEMB 78   CHL1 C20  CTL1  -0.090000       12.0110           0
    5609 MEMB 78   CHL1 H20  HAL1   0.090000        1.0080           0
    5610 MEMB 78   CHL1 C21  CTL3  -0.270000       12.0110           0
    5611 MEMB 78   CHL1 H21A HAL3   0.090000        1.0080           0
    5612 MEMB 78   CHL1 H21B HAL3   0.090000        1.0080           0
    5613 MEMB 78   CHL1 H21C HAL3   0.090000        1.0080           0
    5614 MEMB 78   CHL1 C22  CTL2  -0.180000       12.0110           0
    5615 MEMB 78   CHL1 H22A HAL2   0.090000        1.0080           0
    5616 MEMB 78   CHL1 H22B HAL2   0.090000        1.0080           0
    5617 MEMB 78   CHL1 C23  CTL2  -0.180000       12.0110           0
    5618 MEMB 78   CHL1 H23A HAL2   0.090000        1.0080           0
    5619 MEMB 78   CHL1 H23B HAL2   0.090000        1.0080           0
    5620 MEMB 78   CHL1 C24  CTL2  -0.180000       12.0110           0
    5621 MEMB 78   CHL1 H24A HAL2   0.090000        1.0080           0
    5622 MEMB 78   CHL1 H24B HAL2   0.090000        1.0080           0
    5623 MEMB 78   CHL1 C25  CTL1  -0.090000       12.0110           0
    5624 MEMB 78   CHL1 H25  HAL1   0.090000        1.0080           0
    5625 MEMB 78   CHL1 C26  CTL3  -0.270000       12.0110           0
    5626 MEMB 78   CHL1 H26A HAL3   0.090000        1.0080           0
    5627 MEMB 78   CHL1 H26B HAL3   0.090000        1.0080           0
    5628 MEMB 78   CHL1 H26C HAL3   0.090000        1.0080           0
    5629 MEMB 78   CHL1 C27  CTL3  -0.270000       12.0110           0
    5630 MEMB 78   CHL1 H27A HAL3   0.090000        1.0080           0
    5631 MEMB 78   CHL1 H27B HAL3   0.090000        1.0080           0
    5632 MEMB 78   CHL1 H27C HAL3   0.090000        1.0080           0
    5633 MEMB 79   CHL1 C3   CRL1   0.140000       12.0110           0
    5634 MEMB 79   CHL1 H3   HGA1   0.090000        1.0080           0
    5635 MEMB 79   CHL1 O3   OHL   -0.660000       15.9994           0
    5636 MEMB 79   CHL1 H3'  HOL    0.430000        1.0080           0
    5637 MEMB 79   CHL1 C4   CRL2  -0.180000       12.0110           0
    5638 MEMB 79   CHL1 H4A  HGA2   0.090000        1.0080           0
    5639 MEMB 79   CHL1 H4B  HGA2   0.090000        1.0080           0
    5640 MEMB 79   CHL1 C5   CEL1   0.000000       12.0110           0
    5641 MEMB 79   CHL1 C6   CEL1  -0.150000       12.0110           0
    5642 MEMB 79   CHL1 H6   HEL1   0.150000        1.0080           0
    5643 MEMB 79   CHL1 C7   CRL2  -0.180000       12.0110           0
    5644 MEMB 79   CHL1 H7A  HGA2   0.090000        1.0080           0
    5645 MEMB 79   CHL1 H7B  HGA2   0.090000        1.0080           0
    5646 MEMB 79   CHL1 C8   CRL1  -0.090000       12.0110           0
    5647 MEMB 79   CHL1 H8   HGA1   0.090000        1.0080           0
    5648 MEMB 79   CHL1 C14  CRL1  -0.090000       12.0110           0
    5649 MEMB 79   CHL1 H14  HGA1   0.090000        1.0080           0
    5650 MEMB 79   CHL1 C15  CRL2  -0.180000       12.0110           0
    5651 MEMB 79   CHL1 H15A HGA2   0.090000        1.0080           0
    5652 MEMB 79   CHL1 H15B HGA2   0.090000        1.0080           0
    5653 MEMB 79   CHL1 C16  CRL2  -0.180000       12.0110           0
    5654 MEMB 79   CHL1 H16A HGA2   0.090000        1.0080           0
    5655 MEMB 79   CHL1 H16B HGA2   0.090000        1.0080           0
    5656 MEMB 79   CHL1 C17  CRL1  -0.090000       12.0110           0
    5657 MEMB 79   CHL1 H17  HGA1   0.090000        1.0080           0
    5658 MEMB 79   CHL1 C13  CRL1   0.000000       12.0110           0
    5659 MEMB 79   CHL1 C18  CTL3  -0.270000       12.0110           0
    5660 MEMB 79   CHL1 H18A HAL3   0.090000        1.0080           0
    5661 MEMB 79   CHL1 H18B HAL3   0.090000        1.0080           0
    5662 MEMB 79   CHL1 H18C HAL3   0.090000        1.0080           0
    5663 MEMB 79   CHL1 C12  CRL2  -0.180000       12.0110           0
    5664 MEMB 79   CHL1 H12A HGA2   0.090000        1.0080           0
    5665 MEMB 79   CHL1 H12B HGA2   0.090000        1.0080           0
    5666 MEMB 79   CHL1 C11  CRL2  -0.180000       12.0110           0
    5667 MEMB 79   CHL1 H11A HGA2   0.090000        1.0080           0
    5668 MEMB 79   CHL1 H11B HGA2   0.090000        1.0080           0
    5669 MEMB 79   CHL1 C9   CRL1  -0.090000       12.0110           0
    5670 MEMB 79   CHL1 H9   HGA1   0.090000        1.0080           0
    5671 MEMB 79   CHL1 C10  CRL1   0.000000       12.0110           0
    5672 MEMB 79   CHL1 C19  CTL3  -0.270000       12.0110           0
    5673 MEMB 79   CHL1 H19A HAL3   0.090000        1.0080           0
    5674 MEMB 79   CHL1 H19B HAL3   0.090000        1.0080           0
    5675 MEMB 79   CHL1 H19C HAL3   0.090000        1.0080           0
    5676 MEMB 79   CHL1 C1   CRL2  -0.180000       12.0110           0
    5677 MEMB 79   CHL1 H1A  HGA2   0.090000        1.0080           0
    5678 MEMB 79   CHL1 H1B  HGA2   0.090000        1.0080           0
    5679 MEMB 79   CHL1 C2   CRL2  -0.180000       12.0110           0
    5680 MEMB 79   CHL1 H2A  HGA2   0.090000        1.0080           0
    5681 MEMB 79   CHL1 H2B  HGA2   0.090000        1.0080           0
    5682 MEMB 79   CHL1 C20  CTL1  -0.090000       12.0110           0
    5683 MEMB 79   CHL1 H20  HAL1   0.090000        1.0080           0
    5684 MEMB 79   CHL1 C21  CTL3  -0.270000       12.0110           0
    5685 MEMB 79   CHL1 H21A HAL3   0.090000        1.0080           0
    5686 MEMB 79   CHL1 H21B HAL3   0.090000        1.0080           0
    5687 MEMB 79   CHL1 H21C HAL3   0.090000        1.0080           0
    5688 MEMB 79   CHL1 C22  CTL2  -0.180000       12.0110           0
    5689 MEMB 79   CHL1 H22A HAL2   0.090000        1.0080           0
    5690 MEMB 79   CHL1 H22B HAL2   0.090000        1.0080           0
    5691 MEMB 79   CHL1 C23  CTL2  -0.180000       12.0110           0
    5692 MEMB 79   CHL1 H23A HAL2   0.090000        1.0080           0
    5693 MEMB 79   CHL1 H23B HAL2   0.090000        1.0080           0
    5694 MEMB 79   CHL1 C24  CTL2  -0.180000       12.0110           0
    5695 MEMB 79   CHL1 H24A HAL2   0.090000        1.0080           0
    5696 MEMB 79   CHL1 H24B HAL2   0.090000        1.0080           0
    5697 MEMB 79   CHL1 C25  CTL1  -0.090000       12.0110           0
    5698 MEMB 79   CHL1 H25  HAL1   0.090000        1.0080           0
    5699 MEMB 79   CHL1 C26  CTL3  -0.270000       12.0110           0
    5700 MEMB 79   CHL1 H26A HAL3   0.090000        1.0080           0
    5701 MEMB 79   CHL1 H26B HAL3   0.090000        1.0080           0
    5702 MEMB 79   CHL1 H26C HAL3   0.090000        1.0080           0
    5703 MEMB 79   CHL1 C27  CTL3  -0.270000       12.0110           0
    5704 MEMB 79   CHL1 H27A HAL3   0.090000        1.0080           0
    5705 MEMB 79   CHL1 H27B HAL3   0.090000        1.0080           0
    5706 MEMB 79   CHL1 H27C HAL3   0.090000        1.0080           0
    5707 MEMB 80   CHL1 C3   CRL1   0.140000       12.0110           0
    5708 MEMB 80   CHL1 H3   HGA1   0.090000        1.0080           0
    5709 MEMB 80   CHL1 O3   OHL   -0.660000       15.9994           0
    5710 MEMB 80   CHL1 H3'  HOL    0.430000        1.0080           0
    5711 MEMB 80   CHL1 C4   CRL2  -0.180000       12.0110           0
    5712 MEMB 80   CHL1 H4A  HGA2   0.090000        1.0080           0
    5713 MEMB 80   CHL1 H4B  HGA2   0.090000        1.0080           0
    5714 MEMB 80   CHL1 C5   CEL1   0.000000       12.0110           0
    5715 MEMB 80   CHL1 C6   CEL1  -0.150000       12.0110           0
    5716 MEMB 80   CHL1 H6   HEL1   0.150000        1.0080           0
    5717 MEMB 80   CHL1 C7   CRL2  -0.180000       12.0110           0
    5718 MEMB 80   CHL1 H7A  HGA2   0.090000        1.0080           0
    5719 MEMB 80   CHL1 H7B  HGA2   0.090000        1.0080           0
    5720 MEMB 80   CHL1 C8   CRL1  -0.090000       12.0110           0
    5721 MEMB 80   CHL1 H8   HGA1   0.090000        1.0080           0
    5722 MEMB 80   CHL1 C14  CRL1  -0.090000       12.0110           0
    5723 MEMB 80   CHL1 H14  HGA1   0.090000        1.0080           0
    5724 MEMB 80   CHL1 C15  CRL2  -0.180000       12.0110           0
    5725 MEMB 80   CHL1 H15A HGA2   0.090000        1.0080           0
    5726 MEMB 80   CHL1 H15B HGA2   0.090000        1.0080           0
    5727 MEMB 80   CHL1 C16  CRL2  -0.180000       12.0110           0
    5728 MEMB 80   CHL1 H16A HGA2   0.090000        1.0080           0
    5729 MEMB 80   CHL1 H16B HGA2   0.090000        1.0080           0
    5730 MEMB 80   CHL1 C17  CRL1  -0.090000       12.0110           0
    5731 MEMB 80   CHL1 H17  HGA1   0.090000        1.0080           0
    5732 MEMB 80   CHL1 C13  CRL1   0.000000       12.0110           0
    5733 MEMB 80   CHL1 C18  CTL3  -0.270000       12.0110           0
    5734 MEMB 80   CHL1 H18A HAL3   0.090000        1.0080           0
    5735 MEMB 80   CHL1 H18B HAL3   0.090000        1.0080           0
    5736 MEMB 80   CHL1 H18C HAL3   0.090000        1.0080           0
    5737 MEMB 80   CHL1 C12  CRL2  -0.180000       12.0110           0
    5738 MEMB 80   CHL1 H12A HGA2   0.090000        1.0080           0
    5739 MEMB 80   CHL1 H12B HGA2   0.090000        1.0080           0
    5740 MEMB 80   CHL1 C11  CRL2  -0.180000       12.0110           0
    5741 MEMB 80   CHL1 H11A HGA2   0.090000        1.0080           0
    5742 MEMB 80   CHL1 H11B HGA2   0.090000        1.0080           0
    5743 MEMB 80   CHL1 C9   CRL1  -0.090000       12.0110           0
    5744 MEMB 80   CHL1 H9   HGA1   0.090000        1.0080           0
    5745 MEMB 80   CHL1 C10  CRL1   0.000000       12.0110           0
    5746 MEMB 80   CHL1 C19  CTL3  -0.270000       12.0110           0
    5747 MEMB 80   CHL1 H19A HAL3   0.090000        1.0080           0
    5748 MEMB 80   CHL1 H19B HAL3   0.090000        1.0080           0
    5749 MEMB 80   CHL1 H19C HAL3   0.090000        1.0080           0
    5750 MEMB 80   CHL1 C1   CRL2  -0.180000       12.0110           0
    5751 MEMB 80   CHL1 H1A  HGA2   0.090000        1.0080           0
    5752 MEMB 80   CHL1 H1B  HGA2   0.090000        1.0080           0
    5753 MEMB 80   CHL1 C2   CRL2  -0.180000       12.0110           0
    5754 MEMB 80   CHL1 H2A  HGA2   0.090000        1.0080           0
    5755 MEMB 80   CHL1 H2B  HGA2   0.090000        1.0080           0
    5756 MEMB 80   CHL1 C20  CTL1  -0.090000       12.0110           0
    5757 MEMB 80   CHL1 H20  HAL1   0.090000        1.0080           0
    5758 MEMB 80   CHL1 C21  CTL3  -0.270000       12.0110           0
    5759 MEMB 80   CHL1 H21A HAL3   0.090000        1.0080           0
    5760 MEMB 80   CHL1 H21B HAL3   0.090000        1.0080           0
    5761 MEMB 80   CHL1 H21C HAL3   0.090000        1.0080           0
    5762 MEMB 80   CHL1 C22  CTL2  -0.180000       12.0110           0
    5763 MEMB 80   CHL1 H22A HAL2   0.090000        1.0080           0
    5764 MEMB 80   CHL1 H22B HAL2   0.090000        1.0080           0
    5765 MEMB 80   CHL1 C23  CTL2  -0.180000       12.0110           0
    5766 MEMB 80   CHL1 H23A HAL2   0.090000        1.0080           0
    5767 MEMB 80   CHL1 H23B HAL2   0.090000        1.0080           0
    5768 MEMB 80   CHL1 C24  CTL2  -0.180000       12.0110           0
    5769 MEMB 80   CHL1 H24A HAL2   0.090000        1.0080           0
    5770 MEMB 80   CHL1 H24B HAL2   0.090000        1.0080           0
    5771 MEMB 80   CHL1 C25  CTL1  -0.090000       12.0110           0
    5772 MEMB 80   CHL1 H25  HAL1   0.090000        1.0080           0
    5773 MEMB 80   CHL1 C26  CTL3  -0.270000       12.0110           0
    5774 MEMB 80   CHL1 H26A HAL3   0.090000        1.0080           0
    5775 MEMB 80   CHL1 H26B HAL3   0.090000        1.0080           0
    5776 MEMB 80   CHL1 H26C HAL3   0.090000        1.0080           0
    5777 MEMB 80   CHL1 C27  CTL3  -0.270000       12.0110           0
    5778 MEMB 80   CHL1 H27A HAL3   0.090000        1.0080           0
    5779 MEMB 80   CHL1 H27B HAL3   0.090000        1.0080           0
    5780 MEMB 80   CHL1 H27C HAL3   0.090000        1.0080           0
    5781 MEMB 81   CHL1 C3   CRL1   0.140000       12.0110           0
    5782 MEMB 81   CHL1 H3   HGA1   0.090000        1.0080           0
    5783 MEMB 81   CHL1 O3   OHL   -0.660000       15.9994           0
    5784 MEMB 81   CHL1 H3'  HOL    0.430000        1.0080           0
    5785 MEMB 81   CHL1 C4   CRL2  -0.180000       12.0110           0
    5786 MEMB 81   CHL1 H4A  HGA2   0.090000        1.0080           0
    5787 MEMB 81   CHL1 H4B  HGA2   0.090000        1.0080           0
    5788 MEMB 81   CHL1 C5   CEL1   0.000000       12.0110           0
    5789 MEMB 81   CHL1 C6   CEL1  -0.150000       12.0110           0
    5790 MEMB 81   CHL1 H6   HEL1   0.150000        1.0080           0
    5791 MEMB 81   CHL1 C7   CRL2  -0.180000       12.0110           0
    5792 MEMB 81   CHL1 H7A  HGA2   0.090000        1.0080           0
    5793 MEMB 81   CHL1 H7B  HGA2   0.090000        1.0080           0
    5794 MEMB 81   CHL1 C8   CRL1  -0.090000       12.0110           0
    5795 MEMB 81   CHL1 H8   HGA1   0.090000        1.0080           0
    5796 MEMB 81   CHL1 C14  CRL1  -0.090000       12.0110           0
    5797 MEMB 81   CHL1 H14  HGA1   0.090000        1.0080           0
    5798 MEMB 81   CHL1 C15  CRL2  -0.180000       12.0110           0
    5799 MEMB 81   CHL1 H15A HGA2   0.090000        1.0080           0
    5800 MEMB 81   CHL1 H15B HGA2   0.090000        1.0080           0
    5801 MEMB 81   CHL1 C16  CRL2  -0.180000       12.0110           0
    5802 MEMB 81   CHL1 H16A HGA2   0.090000        1.0080           0
    5803 MEMB 81   CHL1 H16B HGA2   0.090000        1.0080           0
    5804 MEMB 81   CHL1 C17  CRL1  -0.090000       12.0110           0
    5805 MEMB 81   CHL1 H17  HGA1   0.090000        1.0080           0
    5806 MEMB 81   CHL1 C13  CRL1   0.000000       12.0110           0
    5807 MEMB 81   CHL1 C18  CTL3  -0.270000       12.0110           0
    5808 MEMB 81   CHL1 H18A HAL3   0.090000        1.0080           0
    5809 MEMB 81   CHL1 H18B HAL3   0.090000        1.0080           0
    5810 MEMB 81   CHL1 H18C HAL3   0.090000        1.0080           0
    5811 MEMB 81   CHL1 C12  CRL2  -0.180000       12.0110           0
    5812 MEMB 81   CHL1 H12A HGA2   0.090000        1.0080           0
    5813 MEMB 81   CHL1 H12B HGA2   0.090000        1.0080           0
    5814 MEMB 81   CHL1 C11  CRL2  -0.180000       12.0110           0
    5815 MEMB 81   CHL1 H11A HGA2   0.090000        1.0080           0
    5816 MEMB 81   CHL1 H11B HGA2   0.090000        1.0080           0
    5817 MEMB 81   CHL1 C9   CRL1  -0.090000       12.0110           0
    5818 MEMB 81   CHL1 H9   HGA1   0.090000        1.0080           0
    5819 MEMB 81   CHL1 C10  CRL1   0.000000       12.0110           0
    5820 MEMB 81   CHL1 C19  CTL3  -0.270000       12.0110           0
    5821 MEMB 81   CHL1 H19A HAL3   0.090000        1.0080           0
    5822 MEMB 81   CHL1 H19B HAL3   0.090000        1.0080           0
    5823 MEMB 81   CHL1 H19C HAL3   0.090000        1.0080           0
    5824 MEMB 81   CHL1 C1   CRL2  -0.180000       12.0110           0
    5825 MEMB 81   CHL1 H1A  HGA2   0.090000        1.0080           0
    5826 MEMB 81   CHL1 H1B  HGA2   0.090000        1.0080           0
    5827 MEMB 81   CHL1 C2   CRL2  -0.180000       12.0110           0
    5828 MEMB 81   CHL1 H2A  HGA2   0.090000        1.0080           0
    5829 MEMB 81   CHL1 H2B  HGA2   0.090000        1.0080           0
    5830 MEMB 81   CHL1 C20  CTL1  -0.090000       12.0110           0
    5831 MEMB 81   CHL1 H20  HAL1   0.090000        1.0080           0
    5832 MEMB 81   CHL1 C21  CTL3  -0.270000       12.0110           0
    5833 MEMB 81   CHL1 H21A HAL3   0.090000        1.0080           0
    5834 MEMB 81   CHL1 H21B HAL3   0.090000        1.0080           0
    5835 MEMB 81   CHL1 H21C HAL3   0.090000        1.0080           0
    5836 MEMB 81   CHL1 C22  CTL2  -0.180000       12.0110           0
    5837 MEMB 81   CHL1 H22A HAL2   0.090000        1.0080           0
    5838 MEMB 81   CHL1 H22B HAL2   0.090000        1.0080           0
    5839 MEMB 81   CHL1 C23  CTL2  -0.180000       12.0110           0
    5840 MEMB 81   CHL1 H23A HAL2   0.090000        1.0080           0
    5841 MEMB 81   CHL1 H23B HAL2   0.090000        1.0080           0
    5842 MEMB 81   CHL1 C24  CTL2  -0.180000       12.0110           0
    5843 MEMB 81   CHL1 H24A HAL2   0.090000        1.0080           0
    5844 MEMB 81   CHL1 H24B HAL2   0.090000        1.0080           0
    5845 MEMB 81   CHL1 C25  CTL1  -0.090000       12.0110           0
    5846 MEMB 81   CHL1 H25  HAL1   0.090000        1.0080           0
    5847 MEMB 81   CHL1 C26  CTL3  -0.270000       12.0110           0
    5848 MEMB 81   CHL1 H26A HAL3   0.090000        1.0080           0
    5849 MEMB 81   CHL1 H26B HAL3   0.090000        1.0080           0
    5850 MEMB 81   CHL1 H26C HAL3   0.090000        1.0080           0
    5851 MEMB 81   CHL1 C27  CTL3  -0.270000       12.0110           0
    5852 MEMB 81   CHL1 H27A HAL3   0.090000        1.0080           0
    5853 MEMB 81   CHL1 H27B HAL3   0.090000        1.0080           0
    5854 MEMB 81   CHL1 H27C HAL3   0.090000        1.0080           0
    5855 MEMB 82   POPS N    NH3L  -0.300000       14.0070           0
    5856 MEMB 82   POPS HN1  HCL    0.330000        1.0080           0
    5857 MEMB 82   POPS HN2  HCL    0.330000        1.0080           0
    5858 MEMB 82   POPS HN3  HCL    0.330000        1.0080           0
    5859 MEMB 82   POPS C12  CTL1   0.210000       12.0110           0
    5860 MEMB 82   POPS H12A HBL    0.100000        1.0080           0
    5861 MEMB 82   POPS C13  CCL    0.340000       12.0110           0
    5862 MEMB 82   POPS O13A OCL   -0.670000       15.9994           0
    5863 MEMB 82   POPS O13B OCL   -0.670000       15.9994           0
    5864 MEMB 82   POPS C11  CTL2  -0.080000       12.0110           0
    5865 MEMB 82   POPS H11A HAL2   0.090000        1.0080           0
    5866 MEMB 82   POPS H11B HAL2   0.090000        1.0080           0
    5867 MEMB 82   POPS P    PL     1.500000       30.9740           0
    5868 MEMB 82   POPS O13  O2L   -0.780000       15.9994           0
    5869 MEMB 82   POPS O14  O2L   -0.780000       15.9994           0
    5870 MEMB 82   POPS O12  OSLP  -0.570000       15.9994           0
    5871 MEMB 82   POPS O11  OSLP  -0.570000       15.9994           0
    5872 MEMB 82   POPS C1   CTL2  -0.080000       12.0110           0
    5873 MEMB 82   POPS HA   HAL2   0.090000        1.0080           0
    5874 MEMB 82   POPS HB   HAL2   0.090000        1.0080           0
    5875 MEMB 82   POPS C2   CTL1   0.170000       12.0110           0
    5876 MEMB 82   POPS HS   HAL1   0.090000        1.0080           0
    5877 MEMB 82   POPS O21  OSL   -0.490000       15.9994           0
    5878 MEMB 82   POPS C21  CL     0.900000       12.0110           0
    5879 MEMB 82   POPS O22  OBL   -0.630000       15.9994           0
    5880 MEMB 82   POPS C22  CTL2  -0.220000       12.0110           0
    5881 MEMB 82   POPS H2R  HAL2   0.090000        1.0080           0
    5882 MEMB 82   POPS H2S  HAL2   0.090000        1.0080           0
    5883 MEMB 82   POPS C3   CTL2   0.080000       12.0110           0
    5884 MEMB 82   POPS HX   HAL2   0.090000        1.0080           0
    5885 MEMB 82   POPS HY   HAL2   0.090000        1.0080           0
    5886 MEMB 82   POPS O31  OSL   -0.490000       15.9994           0
    5887 MEMB 82   POPS C31  CL     0.900000       12.0110           0
    5888 MEMB 82   POPS O32  OBL   -0.630000       15.9994           0
    5889 MEMB 82   POPS C32  CTL2  -0.220000       12.0110           0
    5890 MEMB 82   POPS H2X  HAL2   0.090000        1.0080           0
    5891 MEMB 82   POPS H2Y  HAL2   0.090000        1.0080           0
    5892 MEMB 82   POPS C23  CTL2  -0.180000       12.0110           0
    5893 MEMB 82   POPS H3R  HAL2   0.090000        1.0080           0
    5894 MEMB 82   POPS H3S  HAL2   0.090000        1.0080           0
    5895 MEMB 82   POPS C24  CTL2  -0.180000       12.0110           0
    5896 MEMB 82   POPS H4R  HAL2   0.090000        1.0080           0
    5897 MEMB 82   POPS H4S  HAL2   0.090000        1.0080           0
    5898 MEMB 82   POPS C25  CTL2  -0.180000       12.0110           0
    5899 MEMB 82   POPS H5R  HAL2   0.090000        1.0080           0
    5900 MEMB 82   POPS H5S  HAL2   0.090000        1.0080           0
    5901 MEMB 82   POPS C26  CTL3  -0.270000       12.0110           0
    5902 MEMB 82   POPS H6R  HAL3   0.090000        1.0080           0
    5903 MEMB 82   POPS H6S  HAL3   0.090000        1.0080           0
    5904 MEMB 82   POPS H6T  HAL3   0.090000        1.0080           0
    5905 MEMB 82   POPS C33  CTL2  -0.180000       12.0110           0
    5906 MEMB 82   POPS H3X  HAL2   0.090000        1.0080           0
    5907 MEMB 82   POPS H3Y  HAL2   0.090000        1.0080           0
    5908 MEMB 82   POPS C34  CTL2  -0.180000       12.0110           0
    5909 MEMB 82   POPS H4X  HAL2   0.090000        1.0080           0
    5910 MEMB 82   POPS H4Y  HAL2   0.090000        1.0080           0
    5911 MEMB 82   POPS C35  CTL2  -0.180000       12.0110           0
    5912 MEMB 82   POPS H5X  HAL2   0.090000        1.0080           0
    5913 MEMB 82   POPS H5Y  HAL2   0.090000        1.0080           0
    5914 MEMB 82   POPS C36  CTL3  -0.270000       12.0110           0
    5915 MEMB 82   POPS H6X  HAL3   0.090000        1.0080           0
    5916 MEMB 82   POPS H6Y  HAL3   0.090000        1.0080           0
    5917 MEMB 82   POPS H6Z  HAL3   0.090000        1.0080           0
    5918 MEMB 83   PSM  N    NTL   -0.600000       14.0070           0
    5919 MEMB 83   PSM  C15  CTL5  -0.350000       12.0110           0
    5920 MEMB 83   PSM  H15A HL     0.250000        1.0080           0
    5921 MEMB 83   PSM  H15B HL     0.250000        1.0080           0
    5922 MEMB 83   PSM  H15C HL     0.250000        1.0080           0
    5923 MEMB 83   PSM  C14  CTL5  -0.350000       12.0110           0
    5924 MEMB 83   PSM  H14A HL     0.250000        1.0080           0
    5925 MEMB 83   PSM  H14B HL     0.250000        1.0080           0
    5926 MEMB 83   PSM  H14C HL     0.250000        1.0080           0
    5927 MEMB 83   PSM  C13  CTL5  -0.350000       12.0110           0
    5928 MEMB 83   PSM  H13A HL     0.250000        1.0080           0
    5929 MEMB 83   PSM  H13B HL     0.250000        1.0080           0
    5930 MEMB 83   PSM  H13C HL     0.250000        1.0080           0
    5931 MEMB 83   PSM  C12  CTL2  -0.100000       12.0110           0
    5932 MEMB 83   PSM  H12A HL     0.250000        1.0080           0
    5933 MEMB 83   PSM  H12B HL     0.250000        1.0080           0
    5934 MEMB 83   PSM  C11  CTL2  -0.080000       12.0110           0
    5935 MEMB 83   PSM  H11A HAL2   0.090000        1.0080           0
    5936 MEMB 83   PSM  H11B HAL2   0.090000        1.0080           0
    5937 MEMB 83   PSM  P    PL     1.500000       30.9740           0
    5938 MEMB 83   PSM  O13  O2L   -0.780000       15.9994           0
    5939 MEMB 83   PSM  O14  O2L   -0.780000       15.9994           0
    5940 MEMB 83   PSM  O11  OSLP  -0.570000       15.9994           0
    5941 MEMB 83   PSM  O12  OSLP  -0.570000       15.9994           0
    5942 MEMB 83   PSM  C1S  CTL2  -0.080000       12.0110           0
    5943 MEMB 83   PSM  H1S  HAL2   0.090000        1.0080           0
    5944 MEMB 83   PSM  H1T  HAL2   0.090000        1.0080           0
    5945 MEMB 83   PSM  NF   NHL   -0.700000       14.0070           0
    5946 MEMB 83   PSM  HNF  H      0.350000        1.0080           0
    5947 MEMB 83   PSM  C2S  CTL1   0.300000       12.0110           0
    5948 MEMB 83   PSM  H2S  HAL1   0.050000        1.0080           0
    5949 MEMB 83   PSM  C3S  CTO1   0.500000       12.0110           0
    5950 MEMB 83   PSM  H3S  HAL1  -0.110000        1.0080           0
    5951 MEMB 83   PSM  O3   OHL   -0.690000       15.9994           0
    5952 MEMB 83   PSM  HO3  HOL    0.300000        1.0080           0
    5953 MEMB 83   PSM  C4S  CEL3  -0.150000       12.0110           0
    5954 MEMB 83   PSM  H4S  HEL1   0.150000        1.0080           0
    5955 MEMB 83   PSM  C5S  CEL3  -0.150000       12.0110           0
    5956 MEMB 83   PSM  H5S  HEL1   0.150000        1.0080           0
    5957 MEMB 83   PSM  C6S  CTL3  -0.270000       12.0110           0
    5958 MEMB 83   PSM  H6S  HAL3   0.090000        1.0080           0
    5959 MEMB 83   PSM  H6T  HAL3   0.090000        1.0080           0
    5960 MEMB 83   PSM  H6U  HAL3   0.090000        1.0080           0
    5961 MEMB 83   PSM  C1F  C      0.550000       12.0110           0
    5962 MEMB 83   PSM  OF   O     -0.600000       15.9994           0
    5963 MEMB 83   PSM  C2F  CTL2  -0.070000       12.0110           0
    5964 MEMB 83   PSM  H2F  HAL2   0.060000        1.0080           0
    5965 MEMB 83   PSM  H2G  HAL2   0.060000        1.0080           0
    5966 MEMB 83   PSM  C3F  CTL2  -0.180000       12.0110           0
    5967 MEMB 83   PSM  H3F  HAL2   0.090000        1.0080           0
    5968 MEMB 83   PSM  H3G  HAL2   0.090000        1.0080           0
    5969 MEMB 83   PSM  C4F  CTL2  -0.180000       12.0110           0
    5970 MEMB 83   PSM  H4F  HAL2   0.090000        1.0080           0
    5971 MEMB 83   PSM  H4G  HAL2   0.090000        1.0080           0
    5972 MEMB 83   PSM  C5F  CTL2  -0.180000       12.0110           0
    5973 MEMB 83   PSM  H5F  HAL2   0.090000        1.0080           0
    5974 MEMB 83   PSM  H5G  HAL2   0.090000        1.0080           0
    5975 MEMB 83   PSM  C6F  CTL3  -0.270000       12.0110           0
    5976 MEMB 83   PSM  H6F  HAL3   0.090000        1.0080           0
    5977 MEMB 83   PSM  H6G  HAL3   0.090000        1.0080           0
    5978 MEMB 83   PSM  H6H  HAL3   0.090000        1.0080           0
    5979 MEMB 84   POPS N    NH3L  -0.300000       14.0070           0
    5980 MEMB 84   POPS HN1  HCL    0.330000        1.0080           0
    5981 MEMB 84   POPS HN2  HCL    0.330000        1.0080           0
    5982 MEMB 84   POPS HN3  HCL    0.330000        1.0080           0
    5983 MEMB 84   POPS C12  CTL1   0.210000       12.0110           0
    5984 MEMB 84   POPS H12A HBL    0.100000        1.0080           0
    5985 MEMB 84   POPS C13  CCL    0.340000       12.0110           0
    5986 MEMB 84   POPS O13A OCL   -0.670000       15.9994           0
    5987 MEMB 84   POPS O13B OCL   -0.670000       15.9994           0
    5988 MEMB 84   POPS C11  CTL2  -0.080000       12.0110           0
    5989 MEMB 84   POPS H11A HAL2   0.090000        1.0080           0
    5990 MEMB 84   POPS H11B HAL2   0.090000        1.0080           0
    5991 MEMB 84   POPS P    PL     1.500000       30.9740           0
    5992 MEMB 84   POPS O13  O2L   -0.780000       15.9994           0
    5993 MEMB 84   POPS O14  O2L   -0.780000       15.9994           0
    5994 MEMB 84   POPS O12  OSLP  -0.570000       15.9994           0
    5995 MEMB 84   POPS O11  OSLP  -0.570000       15.9994           0
    5996 MEMB 84   POPS C1   CTL2  -0.080000       12.0110           0
    5997 MEMB 84   POPS HA   HAL2   0.090000        1.0080           0
    5998 MEMB 84   POPS HB   HAL2   0.090000        1.0080           0
    5999 MEMB 84   POPS C2   CTL1   0.170000       12.0110           0
    6000 MEMB 84   POPS HS   HAL1   0.090000        1.0080           0
    6001 MEMB 84   POPS O21  OSL   -0.490000       15.9994           0
    6002 MEMB 84   POPS C21  CL     0.900000       12.0110           0
    6003 MEMB 84   POPS O22  OBL   -0.630000       15.9994           0
    6004 MEMB 84   POPS C22  CTL2  -0.220000       12.0110           0
    6005 MEMB 84   POPS H2R  HAL2   0.090000        1.0080           0
    6006 MEMB 84   POPS H2S  HAL2   0.090000        1.0080           0
    6007 MEMB 84   POPS C3   CTL2   0.080000       12.0110           0
    6008 MEMB 84   POPS HX   HAL2   0.090000        1.0080           0
    6009 MEMB 84   POPS HY   HAL2   0.090000        1.0080           0
    6010 MEMB 84   POPS O31  OSL   -0.490000       15.9994           0
    6011 MEMB 84   POPS C31  CL     0.900000       12.0110           0
    6012 MEMB 84   POPS O32  OBL   -0.630000       15.9994           0
    6013 MEMB 84   POPS C32  CTL2  -0.220000       12.0110           0
    6014 MEMB 84   POPS H2X  HAL2   0.090000        1.0080           0
    6015 MEMB 84   POPS H2Y  HAL2   0.090000        1.0080           0
    6016 MEMB 84   POPS C23  CTL2  -0.180000       12.0110           0
    6017 MEMB 84   POPS H3R  HAL2   0.090000        1.0080           0
    6018 MEMB 84   POPS H3S  HAL2   0.090000        1.0080           0
    6019 MEMB 84   POPS C24  CTL2  -0.180000       12.0110           0
    6020 MEMB 84   POPS H4R  HAL2   0.090000        1.0080           0
    6021 MEMB 84   POPS H4S  HAL2   0.090000        1.0080           0
    6022 MEMB 84   POPS C25  CTL2  -0.180000       12.0110           0
    6023 MEMB 84   POPS H5R  HAL2   0.090000        1.0080           0
    6024 MEMB 84   POPS H5S  HAL2   0.090000        1.0080           0
    6025 MEMB 84   POPS C26  CTL3  -0.270000       12.0110           0
    6026 MEMB 84   POPS H6R  HAL3   0.090000        1.0080           0
    6027 MEMB 84   POPS H6S  HAL3   0.090000        1.0080           0
    6028 MEMB 84   POPS H6T  HAL3   0.090000        1.0080           0
    6029 MEMB 84   POPS C33  CTL2  -0.180000       12.0110           0
    6030 MEMB 84   POPS H3X  HAL2   0.090000        1.0080           0
    6031 MEMB 84   POPS H3Y  HAL2   0.090000        1.0080           0
    6032 MEMB 84   POPS C34  CTL2  -0.180000       12.0110           0
    6033 MEMB 84   POPS H4X  HAL2   0.090000        1.0080           0
    6034 MEMB 84   POPS H4Y  HAL2   0.090000        1.0080           0
    6035 MEMB 84   POPS C35  CTL2  -0.180000       12.0110           0
    6036 MEMB 84   POPS H5X  HAL2   0.090000        1.0080           0
    6037 MEMB 84   POPS H5Y  HAL2   0.090000        1.0080           0
    6038 MEMB 84   POPS C36  CTL3  -0.270000       12.0110           0
    6039 MEMB 84   POPS H6X  HAL3   0.090000        1.0080           0
    6040 MEMB 84   POPS H6Y  HAL3   0.090000        1.0080           0
    6041 MEMB 84   POPS H6Z  HAL3   0.090000        1.0080           0
    6042 MEMB 85   POPS N    NH3L  -0.300000       14.0070           0
    6043 MEMB 85   POPS HN1  HCL    0.330000        1.0080           0
    6044 MEMB 85   POPS HN2  HCL    0.330000        1.0080           0
    6045 MEMB 85   POPS HN3  HCL    0.330000        1.0080           0
    6046 MEMB 85   POPS C12  CTL1   0.210000       12.0110           0
    6047 MEMB 85   POPS H12A HBL    0.100000        1.0080           0
    6048 MEMB 85   POPS C13  CCL    0.340000       12.0110           0
    6049 MEMB 85   POPS O13A OCL   -0.670000       15.9994           0
    6050 MEMB 85   POPS O13B OCL   -0.670000       15.9994           0
    6051 MEMB 85   POPS C11  CTL2  -0.080000       12.0110           0
    6052 MEMB 85   POPS H11A HAL2   0.090000        1.0080           0
    6053 MEMB 85   POPS H11B HAL2   0.090000        1.0080           0
    6054 MEMB 85   POPS P    PL     1.500000       30.9740           0
    6055 MEMB 85   POPS O13  O2L   -0.780000       15.9994           0
    6056 MEMB 85   POPS O14  O2L   -0.780000       15.9994           0
    6057 MEMB 85   POPS O12  OSLP  -0.570000       15.9994           0
    6058 MEMB 85   POPS O11  OSLP  -0.570000       15.9994           0
    6059 MEMB 85   POPS C1   CTL2  -0.080000       12.0110           0
    6060 MEMB 85   POPS HA   HAL2   0.090000        1.0080           0
    6061 MEMB 85   POPS HB   HAL2   0.090000        1.0080           0
    6062 MEMB 85   POPS C2   CTL1   0.170000       12.0110           0
    6063 MEMB 85   POPS HS   HAL1   0.090000        1.0080           0
    6064 MEMB 85   POPS O21  OSL   -0.490000       15.9994           0
    6065 MEMB 85   POPS C21  CL     0.900000       12.0110           0
    6066 MEMB 85   POPS O22  OBL   -0.630000       15.9994           0
    6067 MEMB 85   POPS C22  CTL2  -0.220000       12.0110           0
    6068 MEMB 85   POPS H2R  HAL2   0.090000        1.0080           0
    6069 MEMB 85   POPS H2S  HAL2   0.090000        1.0080           0
    6070 MEMB 85   POPS C3   CTL2   0.080000       12.0110           0
    6071 MEMB 85   POPS HX   HAL2   0.090000        1.0080           0
    6072 MEMB 85   POPS HY   HAL2   0.090000        1.0080           0
    6073 MEMB 85   POPS O31  OSL   -0.490000       15.9994           0
    6074 MEMB 85   POPS C31  CL     0.900000       12.0110           0
    6075 MEMB 85   POPS O32  OBL   -0.630000       15.9994           0
    6076 MEMB 85   POPS C32  CTL2  -0.220000       12.0110           0
    6077 MEMB 85   POPS H2X  HAL2   0.090000        1.0080           0
    6078 MEMB 85   POPS H2Y  HAL2   0.090000        1.0080           0
    6079 MEMB 85   POPS C23  CTL2  -0.180000       12.0110           0
    6080 MEMB 85   POPS H3R  HAL2   0.090000        1.0080           0
    6081 MEMB 85   POPS H3S  HAL2   0.090000        1.0080           0
    6082 MEMB 85   POPS C24  CTL2  -0.180000       12.0110           0
    6083 MEMB 85   POPS H4R  HAL2   0.090000        1.0080           0
    6084 MEMB 85   POPS H4S  HAL2   0.090000        1.0080           0
    6085 MEMB 85   POPS C25  CTL2  -0.180000       12.0110           0
    6086 MEMB 85   POPS H5R  HAL2   0.090000        1.0080           0
    6087 MEMB 85   POPS H5S  HAL2   0.090000        1.0080           0
    6088 MEMB 85   POPS C26  CTL3  -0.270000       12.0110           0
    6089 MEMB 85   POPS H6R  HAL3   0.090000        1.0080           0
    6090 MEMB 85   POPS H6S  HAL3   0.090000        1.0080           0
    6091 MEMB 85   POPS H6T  HAL3   0.090000        1.0080           0
    6092 MEMB 85   POPS C33  CTL2  -0.180000       12.0110           0
    6093 MEMB 85   POPS H3X  HAL2   0.090000        1.0080           0
    6094 MEMB 85   POPS H3Y  HAL2   0.090000        1.0080           0
    6095 MEMB 85   POPS C34  CTL2  -0.180000       12.0110           0
    6096 MEMB 85   POPS H4X  HAL2   0.090000        1.0080           0
    6097 MEMB 85   POPS H4Y  HAL2   0.090000        1.0080           0
    6098 MEMB 85   POPS C35  CTL2  -0.180000       12.0110           0
    6099 MEMB 85   POPS H5X  HAL2   0.090000        1.0080           0
    6100 MEMB 85   POPS H5Y  HAL2   0.090000        1.0080           0
    6101 MEMB 85   POPS C36  CTL3  -0.270000       12.0110           0
    6102 MEMB 85   POPS H6X  HAL3   0.090000        1.0080           0
    6103 MEMB 85   POPS H6Y  HAL3   0.090000        1.0080           0
    6104 MEMB 85   POPS H6Z  HAL3   0.090000        1.0080           0
    6105 MEMB 86   POPC N    NTL   -0.600000       14.0070           0
    6106 MEMB 86   POPC C12  CTL2  -0.100000       12.0110           0
    6107 MEMB 86   POPC H12A HL     0.250000        1.0080           0
    6108 MEMB 86   POPC H12B HL     0.250000        1.0080           0
    6109 MEMB 86   POPC C13  CTL5  -0.350000       12.0110           0
    6110 MEMB 86   POPC H13A HL     0.250000        1.0080           0
    6111 MEMB 86   POPC H13B HL     0.250000        1.0080           0
    6112 MEMB 86   POPC H13C HL     0.250000        1.0080           0
    6113 MEMB 86   POPC C14  CTL5  -0.350000       12.0110           0
    6114 MEMB 86   POPC H14A HL     0.250000        1.0080           0
    6115 MEMB 86   POPC H14B HL     0.250000        1.0080           0
    6116 MEMB 86   POPC H14C HL     0.250000        1.0080           0
    6117 MEMB 86   POPC C15  CTL5  -0.350000       12.0110           0
    6118 MEMB 86   POPC H15A HL     0.250000        1.0080           0
    6119 MEMB 86   POPC H15B HL     0.250000        1.0080           0
    6120 MEMB 86   POPC H15C HL     0.250000        1.0080           0
    6121 MEMB 86   POPC C11  CTL2  -0.080000       12.0110           0
    6122 MEMB 86   POPC H11A HAL2   0.090000        1.0080           0
    6123 MEMB 86   POPC H11B HAL2   0.090000        1.0080           0
    6124 MEMB 86   POPC P    PL     1.500000       30.9740           0
    6125 MEMB 86   POPC O13  O2L   -0.780000       15.9994           0
    6126 MEMB 86   POPC O14  O2L   -0.780000       15.9994           0
    6127 MEMB 86   POPC O12  OSLP  -0.570000       15.9994           0
    6128 MEMB 86   POPC O11  OSLP  -0.570000       15.9994           0
    6129 MEMB 86   POPC C1   CTL2  -0.080000       12.0110           0
    6130 MEMB 86   POPC HA   HAL2   0.090000        1.0080           0
    6131 MEMB 86   POPC HB   HAL2   0.090000        1.0080           0
    6132 MEMB 86   POPC C2   CTL1   0.170000       12.0110           0
    6133 MEMB 86   POPC HS   HAL1   0.090000        1.0080           0
    6134 MEMB 86   POPC O21  OSL   -0.490000       15.9994           0
    6135 MEMB 86   POPC C21  CL     0.900000       12.0110           0
    6136 MEMB 86   POPC O22  OBL   -0.630000       15.9994           0
    6137 MEMB 86   POPC C22  CTL2  -0.220000       12.0110           0
    6138 MEMB 86   POPC H2R  HAL2   0.090000        1.0080           0
    6139 MEMB 86   POPC H2S  HAL2   0.090000        1.0080           0
    6140 MEMB 86   POPC C3   CTL2   0.080000       12.0110           0
    6141 MEMB 86   POPC HX   HAL2   0.090000        1.0080           0
    6142 MEMB 86   POPC HY   HAL2   0.090000        1.0080           0
    6143 MEMB 86   POPC O31  OSL   -0.490000       15.9994           0
    6144 MEMB 86   POPC C31  CL     0.900000       12.0110           0
    6145 MEMB 86   POPC O32  OBL   -0.630000       15.9994           0
    6146 MEMB 86   POPC C32  CTL2  -0.220000       12.0110           0
    6147 MEMB 86   POPC H2X  HAL2   0.090000        1.0080           0
    6148 MEMB 86   POPC H2Y  HAL2   0.090000        1.0080           0
    6149 MEMB 86   POPC C23  CTL2  -0.180000       12.0110           0
    6150 MEMB 86   POPC H3R  HAL2   0.090000        1.0080           0
    6151 MEMB 86   POPC H3S  HAL2   0.090000        1.0080           0
    6152 MEMB 86   POPC C24  CTL2  -0.180000       12.0110           0
    6153 MEMB 86   POPC H4R  HAL2   0.090000        1.0080           0
    6154 MEMB 86   POPC H4S  HAL2   0.090000        1.0080           0
    6155 MEMB 86   POPC C25  CTL2  -0.180000       12.0110           0
    6156 MEMB 86   POPC H5R  HAL2   0.090000        1.0080           0
    6157 MEMB 86   POPC H5S  HAL2   0.090000        1.0080           0
    6158 MEMB 86   POPC C26  CTL3  -0.270000       12.0110           0
    6159 MEMB 86   POPC H6R  HAL3   0.090000        1.0080           0
    6160 MEMB 86   POPC H6S  HAL3   0.090000        1.0080           0
    6161 MEMB 86   POPC H6T  HAL3   0.090000        1.0080           0
    6162 MEMB 86   POPC C33  CTL2  -0.180000       12.0110           0
    6163 MEMB 86   POPC H3X  HAL2   0.090000        1.0080           0
    6164 MEMB 86   POPC H3Y  HAL2   0.090000        1.0080           0
    6165 MEMB 86   POPC C34  CTL2  -0.180000       12.0110           0
    6166 MEMB 86   POPC H4X  HAL2   0.090000        1.0080           0
    6167 MEMB 86   POPC H4Y  HAL2   0.090000        1.0080           0
    6168 MEMB 86   POPC C35  CTL2  -0.180000       12.0110           0
    6169 MEMB 86   POPC H5X  HAL2   0.090000        1.0080           0
    6170 MEMB 86   POPC H5Y  HAL2   0.090000        1.0080           0
    6171 MEMB 86   POPC C36  CTL3  -0.270000       12.0110           0
    6172 MEMB 86   POPC H6X  HAL3   0.090000        1.0080           0
    6173 MEMB 86   POPC H6Y  HAL3   0.090000        1.0080           0
    6174 MEMB 86   POPC H6Z  HAL3   0.090000        1.0080           0
    6175 MEMB 87   PSM  N    NTL   -0.600000       14.0070           0
    6176 MEMB 87   PSM  C15  CTL5  -0.350000       12.0110           0
    6177 MEMB 87   PSM  H15A HL     0.250000        1.0080           0
    6178 MEMB 87   PSM  H15B HL     0.250000        1.0080           0
    6179 MEMB 87   PSM  H15C HL     0.250000        1.0080           0
    6180 MEMB 87   PSM  C14  CTL5  -0.350000       12.0110           0
    6181 MEMB 87   PSM  H14A HL     0.250000        1.0080           0
    6182 MEMB 87   PSM  H14B HL     0.250000        1.0080           0
    6183 MEMB 87   PSM  H14C HL     0.250000        1.0080           0
    6184 MEMB 87   PSM  C13  CTL5  -0.350000       12.0110           0
    6185 MEMB 87   PSM  H13A HL     0.250000        1.0080           0
    6186 MEMB 87   PSM  H13B HL     0.250000        1.0080           0
    6187 MEMB 87   PSM  H13C HL     0.250000        1.0080           0
    6188 MEMB 87   PSM  C12  CTL2  -0.100000       12.0110           0
    6189 MEMB 87   PSM  H12A HL     0.250000        1.0080           0
    6190 MEMB 87   PSM  H12B HL     0.250000        1.0080           0
    6191 MEMB 87   PSM  C11  CTL2  -0.080000       12.0110           0
    6192 MEMB 87   PSM  H11A HAL2   0.090000        1.0080           0
    6193 MEMB 87   PSM  H11B HAL2   0.090000        1.0080           0
    6194 MEMB 87   PSM  P    PL     1.500000       30.9740           0
    6195 MEMB 87   PSM  O13  O2L   -0.780000       15.9994           0
    6196 MEMB 87   PSM  O14  O2L   -0.780000       15.9994           0
    6197 MEMB 87   PSM  O11  OSLP  -0.570000       15.9994           0
    6198 MEMB 87   PSM  O12  OSLP  -0.570000       15.9994           0
    6199 MEMB 87   PSM  C1S  CTL2  -0.080000       12.0110           0
    6200 MEMB 87   PSM  H1S  HAL2   0.090000        1.0080           0
    6201 MEMB 87   PSM  H1T  HAL2   0.090000        1.0080           0
    6202 MEMB 87   PSM  NF   NHL   -0.700000       14.0070           0
    6203 MEMB 87   PSM  HNF  H      0.350000        1.0080           0
    6204 MEMB 87   PSM  C2S  CTL1   0.300000       12.0110           0
    6205 MEMB 87   PSM  H2S  HAL1   0.050000        1.0080           0
    6206 MEMB 87   PSM  C3S  CTO1   0.500000       12.0110           0
    6207 MEMB 87   PSM  H3S  HAL1  -0.110000        1.0080           0
    6208 MEMB 87   PSM  O3   OHL   -0.690000       15.9994           0
    6209 MEMB 87   PSM  HO3  HOL    0.300000        1.0080           0
    6210 MEMB 87   PSM  C4S  CEL3  -0.150000       12.0110           0
    6211 MEMB 87   PSM  H4S  HEL1   0.150000        1.0080           0
    6212 MEMB 87   PSM  C5S  CEL3  -0.150000       12.0110           0
    6213 MEMB 87   PSM  H5S  HEL1   0.150000        1.0080           0
    6214 MEMB 87   PSM  C6S  CTL3  -0.270000       12.0110           0
    6215 MEMB 87   PSM  H6S  HAL3   0.090000        1.0080           0
    6216 MEMB 87   PSM  H6T  HAL3   0.090000        1.0080           0
    6217 MEMB 87   PSM  H6U  HAL3   0.090000        1.0080           0
    6218 MEMB 87   PSM  C1F  C      0.550000       12.0110           0
    6219 MEMB 87   PSM  OF   O     -0.600000       15.9994           0
    6220 MEMB 87   PSM  C2F  CTL2  -0.070000       12.0110           0
    6221 MEMB 87   PSM  H2F  HAL2   0.060000        1.0080           0
    6222 MEMB 87   PSM  H2G  HAL2   0.060000        1.0080           0
    6223 MEMB 87   PSM  C3F  CTL2  -0.180000       12.0110           0
    6224 MEMB 87   PSM  H3F  HAL2   0.090000        1.0080           0
    6225 MEMB 87   PSM  H3G  HAL2   0.090000        1.0080           0
    6226 MEMB 87   PSM  C4F  CTL2  -0.180000       12.0110           0
    6227 MEMB 87   PSM  H4F  HAL2   0.090000        1.0080           0
    6228 MEMB 87   PSM  H4G  HAL2   0.090000        1.0080           0
    6229 MEMB 87   PSM  C5F  CTL2  -0.180000       12.0110           0
    6230 MEMB 87   PSM  H5F  HAL2   0.090000        1.0080           0
    6231 MEMB 87   PSM  H5G  HAL2   0.090000        1.0080           0
    6232 MEMB 87   PSM  C6F  CTL3  -0.270000       12.0110           0
    6233 MEMB 87   PSM  H6F  HAL3   0.090000        1.0080           0
    6234 MEMB 87   PSM  H6G  HAL3   0.090000        1.0080           0
    6235 MEMB 87   PSM  H6H  HAL3   0.090000        1.0080           0
    6236 MEMB 88   POPC N    NTL   -0.600000       14.0070           0
    6237 MEMB 88   POPC C12  CTL2  -0.100000       12.0110           0
    6238 MEMB 88   POPC H12A HL     0.250000        1.0080           0
    6239 MEMB 88   POPC H12B HL     0.250000        1.0080           0
    6240 MEMB 88   POPC C13  CTL5  -0.350000       12.0110           0
    6241 MEMB 88   POPC H13A HL     0.250000        1.0080           0
    6242 MEMB 88   POPC H13B HL     0.250000        1.0080           0
    6243 MEMB 88   POPC H13C HL     0.250000        1.0080           0
    6244 MEMB 88   POPC C14  CTL5  -0.350000       12.0110           0
    6245 MEMB 88   POPC H14A HL     0.250000        1.0080           0
    6246 MEMB 88   POPC H14B HL     0.250000        1.0080           0
    6247 MEMB 88   POPC H14C HL     0.250000        1.0080           0
    6248 MEMB 88   POPC C15  CTL5  -0.350000       12.0110           0
    6249 MEMB 88   POPC H15A HL     0.250000        1.0080           0
    6250 MEMB 88   POPC H15B HL     0.250000        1.0080           0
    6251 MEMB 88   POPC H15C HL     0.250000        1.0080           0
    6252 MEMB 88   POPC C11  CTL2  -0.080000       12.0110           0
    6253 MEMB 88   POPC H11A HAL2   0.090000        1.0080           0
    6254 MEMB 88   POPC H11B HAL2   0.090000        1.0080           0
    6255 MEMB 88   POPC P    PL     1.500000       30.9740           0
    6256 MEMB 88   POPC O13  O2L   -0.780000       15.9994           0
    6257 MEMB 88   POPC O14  O2L   -0.780000       15.9994           0
    6258 MEMB 88   POPC O12  OSLP  -0.570000       15.9994           0
    6259 MEMB 88   POPC O11  OSLP  -0.570000       15.9994           0
    6260 MEMB 88   POPC C1   CTL2  -0.080000       12.0110           0
    6261 MEMB 88   POPC HA   HAL2   0.090000        1.0080           0
    6262 MEMB 88   POPC HB   HAL2   0.090000        1.0080           0
    6263 MEMB 88   POPC C2   CTL1   0.170000       12.0110           0
    6264 MEMB 88   POPC HS   HAL1   0.090000        1.0080           0
    6265 MEMB 88   POPC O21  OSL   -0.490000       15.9994           0
    6266 MEMB 88   POPC C21  CL     0.900000       12.0110           0
    6267 MEMB 88   POPC O22  OBL   -0.630000       15.9994           0
    6268 MEMB 88   POPC C22  CTL2  -0.220000       12.0110           0
    6269 MEMB 88   POPC H2R  HAL2   0.090000        1.0080           0
    6270 MEMB 88   POPC H2S  HAL2   0.090000        1.0080           0
    6271 MEMB 88   POPC C3   CTL2   0.080000       12.0110           0
    6272 MEMB 88   POPC HX   HAL2   0.090000        1.0080           0
    6273 MEMB 88   POPC HY   HAL2   0.090000        1.0080           0
    6274 MEMB 88   POPC O31  OSL   -0.490000       15.9994           0
    6275 MEMB 88   POPC C31  CL     0.900000       12.0110           0
    6276 MEMB 88   POPC O32  OBL   -0.630000       15.9994           0
    6277 MEMB 88   POPC C32  CTL2  -0.220000       12.0110           0
    6278 MEMB 88   POPC H2X  HAL2   0.090000        1.0080           0
    6279 MEMB 88   POPC H2Y  HAL2   0.090000        1.0080           0
    6280 MEMB 88   POPC C23  CTL2  -0.180000       12.0110           0
    6281 MEMB 88   POPC H3R  HAL2   0.090000        1.0080           0
    6282 MEMB 88   POPC H3S  HAL2   0.090000        1.0080           0
    6283 MEMB 88   POPC C24  CTL2  -0.180000       12.0110           0
    6284 MEMB 88   POPC H4R  HAL2   0.090000        1.0080           0
    6285 MEMB 88   POPC H4S  HAL2   0.090000        1.0080           0
    6286 MEMB 88   POPC C25  CTL2  -0.180000       12.0110           0
    6287 MEMB 88   POPC H5R  HAL2   0.090000        1.0080           0
    6288 MEMB 88   POPC H5S  HAL2   0.090000        1.0080           0
    6289 MEMB 88   POPC C26  CTL3  -0.270000       12.0110           0
    6290 MEMB 88   POPC H6R  HAL3   0.090000        1.0080           0
    6291 MEMB 88   POPC H6S  HAL3   0.090000        1.0080           0
    6292 MEMB 88   POPC H6T  HAL3   0.090000        1.0080           0
    6293 MEMB 88   POPC C33  CTL2  -0.180000       12.0110           0
    6294 MEMB 88   POPC H3X  HAL2   0.090000        1.0080           0
    6295 MEMB 88   POPC H3Y  HAL2   0.090000        1.0080           0
    6296 MEMB 88   POPC C34  CTL2  -0.180000       12.0110           0
    6297 MEMB 88   POPC H4X  HAL2   0.090000        1.0080           0
    6298 MEMB 88   POPC H4Y  HAL2   0.090000        1.0080           0
    6299 MEMB 88   POPC C35  CTL2  -0.180000       12.0110           0
    6300 MEMB 88   POPC H5X  HAL2   0.090000        1.0080           0
    6301 MEMB 88   POPC H5Y  HAL2   0.090000        1.0080           0
    6302 MEMB 88   POPC C36  CTL3  -0.270000       12.0110           0
    6303 MEMB 88   POPC H6X  HAL3   0.090000        1.0080           0
    6304 MEMB 88   POPC H6Y  HAL3   0.090000        1.0080           0
    6305 MEMB 88   POPC H6Z  HAL3   0.090000        1.0080           0
    6306 MEMB 89   PSM  N    NTL   -0.600000       14.0070           0
    6307 MEMB 89   PSM  C15  CTL5  -0.350000       12.0110           0
    6308 MEMB 89   PSM  H15A HL     0.250000        1.0080           0
    6309 MEMB 89   PSM  H15B HL     0.250000        1.0080           0
    6310 MEMB 89   PSM  H15C HL     0.250000        1.0080           0
    6311 MEMB 89   PSM  C14  CTL5  -0.350000       12.0110           0
    6312 MEMB 89   PSM  H14A HL     0.250000        1.0080           0
    6313 MEMB 89   PSM  H14B HL     0.250000        1.0080           0
    6314 MEMB 89   PSM  H14C HL     0.250000        1.0080           0
    6315 MEMB 89   PSM  C13  CTL5  -0.350000       12.0110           0
    6316 MEMB 89   PSM  H13A HL     0.250000        1.0080           0
    6317 MEMB 89   PSM  H13B HL     0.250000        1.0080           0
    6318 MEMB 89   PSM  H13C HL     0.250000        1.0080           0
    6319 MEMB 89   PSM  C12  CTL2  -0.100000       12.0110           0
    6320 MEMB 89   PSM  H12A HL     0.250000        1.0080           0
    6321 MEMB 89   PSM  H12B HL     0.250000        1.0080           0
    6322 MEMB 89   PSM  C11  CTL2  -0.080000       12.0110           0
    6323 MEMB 89   PSM  H11A HAL2   0.090000        1.0080           0
    6324 MEMB 89   PSM  H11B HAL2   0.090000        1.0080           0
    6325 MEMB 89   PSM  P    PL     1.500000       30.9740           0
    6326 MEMB 89   PSM  O13  O2L   -0.780000       15.9994           0
    6327 MEMB 89   PSM  O14  O2L   -0.780000       15.9994           0
    6328 MEMB 89   PSM  O11  OSLP  -0.570000       15.9994           0
    6329 MEMB 89   PSM  O12  OSLP  -0.570000       15.9994           0
    6330 MEMB 89   PSM  C1S  CTL2  -0.080000       12.0110           0
    6331 MEMB 89   PSM  H1S  HAL2   0.090000        1.0080           0
    6332 MEMB 89   PSM  H1T  HAL2   0.090000        1.0080           0
    6333 MEMB 89   PSM  NF   NHL   -0.700000       14.0070           0
    6334 MEMB 89   PSM  HNF  H      0.350000        1.0080           0
    6335 MEMB 89   PSM  C2S  CTL1   0.300000       12.0110           0
    6336 MEMB 89   PSM  H2S  HAL1   0.050000        1.0080           0
    6337 MEMB 89   PSM  C3S  CTO1   0.500000       12.0110           0
    6338 MEMB 89   PSM  H3S  HAL1  -0.110000        1.0080           0
    6339 MEMB 89   PSM  O3   OHL   -0.690000       15.9994           0
    6340 MEMB 89   PSM  HO3  HOL    0.300000        1.0080           0
    6341 MEMB 89   PSM  C4S  CEL3  -0.150000       12.0110           0
    6342 MEMB 89   PSM  H4S  HEL1   0.150000        1.0080           0
    6343 MEMB 89   PSM  C5S  CEL3  -0.150000       12.0110           0
    6344 MEMB 89   PSM  H5S  HEL1   0.150000        1.0080           0
    6345 MEMB 89   PSM  C6S  CTL3  -0.270000       12.0110           0
    6346 MEMB 89   PSM  H6S  HAL3   0.090000        1.0080           0
    6347 MEMB 89   PSM  H6T  HAL3   0.090000        1.0080           0
    6348 MEMB 89   PSM  H6U  HAL3   0.090000        1.0080           0
    6349 MEMB 89   PSM  C1F  C      0.550000       12.0110           0
    6350 MEMB 89   PSM  OF   O     -0.600000       15.9994           0
    6351 MEMB 89   PSM  C2F  CTL2  -0.070000       12.0110           0
    6352 MEMB 89   PSM  H2F  HAL2   0.060000        1.0080           0
    6353 MEMB 89   PSM  H2G  HAL2   0.060000        1.0080           0
    6354 MEMB 89   PSM  C3F  CTL2  -0.180000       12.0110           0
    6355 MEMB 89   PSM  H3F  HAL2   0.090000        1.0080           0
    6356 MEMB 89   PSM  H3G  HAL2   0.090000        1.0080           0
    6357 MEMB 89   PSM  C4F  CTL2  -0.180000       12.0110           0
    6358 MEMB 89   PSM  H4F  HAL2   0.090000        1.0080           0
    6359 MEMB 89   PSM  H4G  HAL2   0.090000        1.0080           0
    6360 MEMB 89   PSM  C5F  CTL2  -0.180000       12.0110           0
    6361 MEMB 89   PSM  H5F  HAL2   0.090000        1.0080           0
    6362 MEMB 89   PSM  H5G  HAL2   0.090000        1.0080           0
    6363 MEMB 89   PSM  C6F  CTL3  -0.270000       12.0110           0
    6364 MEMB 89   PSM  H6F  HAL3   0.090000        1.0080           0
    6365 MEMB 89   PSM  H6G  HAL3   0.090000        1.0080           0
    6366 MEMB 89   PSM  H6H  HAL3   0.090000        1.0080           0
    6367 MEMB 90   POPE N    NH3L  -0.300000       14.0070           0
    6368 MEMB 90   POPE HN1  HCL    0.330000        1.0080           0
    6369 MEMB 90   POPE HN2  HCL    0.330000        1.0080           0
    6370 MEMB 90   POPE HN3  HCL    0.330000        1.0080           0
    6371 MEMB 90   POPE C12  CTL2   0.130000       12.0110           0
    6372 MEMB 90   POPE H12A HAL2   0.090000        1.0080           0
    6373 MEMB 90   POPE H12B HAL2   0.090000        1.0080           0
    6374 MEMB 90   POPE C11  CTL2  -0.080000       12.0110           0
    6375 MEMB 90   POPE H11A HAL2   0.090000        1.0080           0
    6376 MEMB 90   POPE H11B HAL2   0.090000        1.0080           0
    6377 MEMB 90   POPE P    PL     1.500000       30.9740           0
    6378 MEMB 90   POPE O13  O2L   -0.780000       15.9994           0
    6379 MEMB 90   POPE O14  O2L   -0.780000       15.9994           0
    6380 MEMB 90   POPE O11  OSLP  -0.570000       15.9994           0
    6381 MEMB 90   POPE O12  OSLP  -0.570000       15.9994           0
    6382 MEMB 90   POPE C1   CTL2  -0.080000       12.0110           0
    6383 MEMB 90   POPE HA   HAL2   0.090000        1.0080           0
    6384 MEMB 90   POPE HB   HAL2   0.090000        1.0080           0
    6385 MEMB 90   POPE C2   CTL1   0.170000       12.0110           0
    6386 MEMB 90   POPE HS   HAL1   0.090000        1.0080           0
    6387 MEMB 90   POPE O21  OSL   -0.490000       15.9994           0
    6388 MEMB 90   POPE C21  CL     0.900000       12.0110           0
    6389 MEMB 90   POPE O22  OBL   -0.630000       15.9994           0
    6390 MEMB 90   POPE C22  CTL2  -0.220000       12.0110           0
    6391 MEMB 90   POPE H2R  HAL2   0.090000        1.0080           0
    6392 MEMB 90   POPE H2S  HAL2   0.090000        1.0080           0
    6393 MEMB 90   POPE C3   CTL2   0.080000       12.0110           0
    6394 MEMB 90   POPE HX   HAL2   0.090000        1.0080           0
    6395 MEMB 90   POPE HY   HAL2   0.090000        1.0080           0
    6396 MEMB 90   POPE O31  OSL   -0.490000       15.9994           0
    6397 MEMB 90   POPE C31  CL     0.900000       12.0110           0
    6398 MEMB 90   POPE O32  OBL   -0.630000       15.9994           0
    6399 MEMB 90   POPE C32  CTL2  -0.220000       12.0110           0
    6400 MEMB 90   POPE H2X  HAL2   0.090000        1.0080           0
    6401 MEMB 90   POPE H2Y  HAL2   0.090000        1.0080           0
    6402 MEMB 90   POPE C23  CTL2  -0.180000       12.0110           0
    6403 MEMB 90   POPE H3R  HAL2   0.090000        1.0080           0
    6404 MEMB 90   POPE H3S  HAL2   0.090000        1.0080           0
    6405 MEMB 90   POPE C24  CTL2  -0.180000       12.0110           0
    6406 MEMB 90   POPE H4R  HAL2   0.090000        1.0080           0
    6407 MEMB 90   POPE H4S  HAL2   0.090000        1.0080           0
    6408 MEMB 90   POPE C25  CTL2  -0.180000       12.0110           0
    6409 MEMB 90   POPE H5R  HAL2   0.090000        1.0080           0
    6410 MEMB 90   POPE H5S  HAL2   0.090000        1.0080           0
    6411 MEMB 90   POPE C26  CTL3  -0.270000       12.0110           0
    6412 MEMB 90   POPE H6R  HAL3   0.090000        1.0080           0
    6413 MEMB 90   POPE H6S  HAL3   0.090000        1.0080           0
    6414 MEMB 90   POPE H6T  HAL3   0.090000        1.0080           0
    6415 MEMB 90   POPE C33  CTL2  -0.180000       12.0110           0
    6416 MEMB 90   POPE H3X  HAL2   0.090000        1.0080           0
    6417 MEMB 90   POPE H3Y  HAL2   0.090000        1.0080           0
    6418 MEMB 90   POPE C34  CTL2  -0.180000       12.0110           0
    6419 MEMB 90   POPE H4X  HAL2   0.090000        1.0080           0
    6420 MEMB 90   POPE H4Y  HAL2   0.090000        1.0080           0
    6421 MEMB 90   POPE C35  CTL2  -0.180000       12.0110           0
    6422 MEMB 90   POPE H5X  HAL2   0.090000        1.0080           0
    6423 MEMB 90   POPE H5Y  HAL2   0.090000        1.0080           0
    6424 MEMB 90   POPE C36  CTL3  -0.270000       12.0110           0
    6425 MEMB 90   POPE H6X  HAL3   0.090000        1.0080           0
    6426 MEMB 90   POPE H6Y  HAL3   0.090000        1.0080           0
    6427 MEMB 90   POPE H6Z  HAL3   0.090000        1.0080           0
    6428 MEMB 91   POPS N    NH3L  -0.300000       14.0070           0
    6429 MEMB 91   POPS HN1  HCL    0.330000        1.0080           0
    6430 MEMB 91   POPS HN2  HCL    0.330000        1.0080           0
    6431 MEMB 91   POPS HN3  HCL    0.330000        1.0080           0
    6432 MEMB 91   POPS C12  CTL1   0.210000       12.0110           0
    6433 MEMB 91   POPS H12A HBL    0.100000        1.0080           0
    6434 MEMB 91   POPS C13  CCL    0.340000       12.0110           0
    6435 MEMB 91   POPS O13A OCL   -0.670000       15.9994           0
    6436 MEMB 91   POPS O13B OCL   -0.670000       15.9994           0
    6437 MEMB 91   POPS C11  CTL2  -0.080000       12.0110           0
    6438 MEMB 91   POPS H11A HAL2   0.090000        1.0080           0
    6439 MEMB 91   POPS H11B HAL2   0.090000        1.0080           0
    6440 MEMB 91   POPS P    PL     1.500000       30.9740           0
    6441 MEMB 91   POPS O13  O2L   -0.780000       15.9994           0
    6442 MEMB 91   POPS O14  O2L   -0.780000       15.9994           0
    6443 MEMB 91   POPS O12  OSLP  -0.570000       15.9994           0
    6444 MEMB 91   POPS O11  OSLP  -0.570000       15.9994           0
    6445 MEMB 91   POPS C1   CTL2  -0.080000       12.0110           0
    6446 MEMB 91   POPS HA   HAL2   0.090000        1.0080           0
    6447 MEMB 91   POPS HB   HAL2   0.090000        1.0080           0
    6448 MEMB 91   POPS C2   CTL1   0.170000       12.0110           0
    6449 MEMB 91   POPS HS   HAL1   0.090000        1.0080           0
    6450 MEMB 91   POPS O21  OSL   -0.490000       15.9994           0
    6451 MEMB 91   POPS C21  CL     0.900000       12.0110           0
    6452 MEMB 91   POPS O22  OBL   -0.630000       15.9994           0
    6453 MEMB 91   POPS C22  CTL2  -0.220000       12.0110           0
    6454 MEMB 91   POPS H2R  HAL2   0.090000        1.0080           0
    6455 MEMB 91   POPS H2S  HAL2   0.090000        1.0080           0
    6456 MEMB 91   POPS C3   CTL2   0.080000       12.0110           0
    6457 MEMB 91   POPS HX   HAL2   0.090000        1.0080           0
    6458 MEMB 91   POPS HY   HAL2   0.090000        1.0080           0
    6459 MEMB 91   POPS O31  OSL   -0.490000       15.9994           0
    6460 MEMB 91   POPS C31  CL     0.900000       12.0110           0
    6461 MEMB 91   POPS O32  OBL   -0.630000       15.9994           0
    6462 MEMB 91   POPS C32  CTL2  -0.220000       12.0110           0
    6463 MEMB 91   POPS H2X  HAL2   0.090000        1.0080           0
    6464 MEMB 91   POPS H2Y  HAL2   0.090000        1.0080           0
    6465 MEMB 91   POPS C23  CTL2  -0.180000       12.0110           0
    6466 MEMB 91   POPS H3R  HAL2   0.090000        1.0080           0
    6467 MEMB 91   POPS H3S  HAL2   0.090000        1.0080           0
    6468 MEMB 91   POPS C24  CTL2  -0.180000       12.0110           0
    6469 MEMB 91   POPS H4R  HAL2   0.090000        1.0080           0
    6470 MEMB 91   POPS H4S  HAL2   0.090000        1.0080           0
    6471 MEMB 91   POPS C25  CTL2  -0.180000       12.0110           0
    6472 MEMB 91   POPS H5R  HAL2   0.090000        1.0080           0
    6473 MEMB 91   POPS H5S  HAL2   0.090000        1.0080           0
    6474 MEMB 91   POPS C26  CTL3  -0.270000       12.0110           0
    6475 MEMB 91   POPS H6R  HAL3   0.090000        1.0080           0
    6476 MEMB 91   POPS H6S  HAL3   0.090000        1.0080           0
    6477 MEMB 91   POPS H6T  HAL3   0.090000        1.0080           0
    6478 MEMB 91   POPS C33  CTL2  -0.180000       12.0110           0
    6479 MEMB 91   POPS H3X  HAL2   0.090000        1.0080           0
    6480 MEMB 91   POPS H3Y  HAL2   0.090000        1.0080           0
    6481 MEMB 91   POPS C34  CTL2  -0.180000       12.0110           0
    6482 MEMB 91   POPS H4X  HAL2   0.090000        1.0080           0
    6483 MEMB 91   POPS H4Y  HAL2   0.090000        1.0080           0
    6484 MEMB 91   POPS C35  CTL2  -0.180000       12.0110           0
    6485 MEMB 91   POPS H5X  HAL2   0.090000        1.0080           0
    6486 MEMB 91   POPS H5Y  HAL2   0.090000        1.0080           0
    6487 MEMB 91   POPS C36  CTL3  -0.270000       12.0110           0
    6488 MEMB 91   POPS H6X  HAL3   0.090000        1.0080           0
    6489 MEMB 91   POPS H6Y  HAL3   0.090000        1.0080           0
    6490 MEMB 91   POPS H6Z  HAL3   0.090000        1.0080           0
    6491 MEMB 92   POPC N    NTL   -0.600000       14.0070           0
    6492 MEMB 92   POPC C12  CTL2  -0.100000       12.0110           0
    6493 MEMB 92   POPC H12A HL     0.250000        1.0080           0
    6494 MEMB 92   POPC H12B HL     0.250000        1.0080           0
    6495 MEMB 92   POPC C13  CTL5  -0.350000       12.0110           0
    6496 MEMB 92   POPC H13A HL     0.250000        1.0080           0
    6497 MEMB 92   POPC H13B HL     0.250000        1.0080           0
    6498 MEMB 92   POPC H13C HL     0.250000        1.0080           0
    6499 MEMB 92   POPC C14  CTL5  -0.350000       12.0110           0
    6500 MEMB 92   POPC H14A HL     0.250000        1.0080           0
    6501 MEMB 92   POPC H14B HL     0.250000        1.0080           0
    6502 MEMB 92   POPC H14C HL     0.250000        1.0080           0
    6503 MEMB 92   POPC C15  CTL5  -0.350000       12.0110           0
    6504 MEMB 92   POPC H15A HL     0.250000        1.0080           0
    6505 MEMB 92   POPC H15B HL     0.250000        1.0080           0
    6506 MEMB 92   POPC H15C HL     0.250000        1.0080           0
    6507 MEMB 92   POPC C11  CTL2  -0.080000       12.0110           0
    6508 MEMB 92   POPC H11A HAL2   0.090000        1.0080           0
    6509 MEMB 92   POPC H11B HAL2   0.090000        1.0080           0
    6510 MEMB 92   POPC P    PL     1.500000       30.9740           0
    6511 MEMB 92   POPC O13  O2L   -0.780000       15.9994           0
    6512 MEMB 92   POPC O14  O2L   -0.780000       15.9994           0
    6513 MEMB 92   POPC O12  OSLP  -0.570000       15.9994           0
    6514 MEMB 92   POPC O11  OSLP  -0.570000       15.9994           0
    6515 MEMB 92   POPC C1   CTL2  -0.080000       12.0110           0
    6516 MEMB 92   POPC HA   HAL2   0.090000        1.0080           0
    6517 MEMB 92   POPC HB   HAL2   0.090000        1.0080           0
    6518 MEMB 92   POPC C2   CTL1   0.170000       12.0110           0
    6519 MEMB 92   POPC HS   HAL1   0.090000        1.0080           0
    6520 MEMB 92   POPC O21  OSL   -0.490000       15.9994           0
    6521 MEMB 92   POPC C21  CL     0.900000       12.0110           0
    6522 MEMB 92   POPC O22  OBL   -0.630000       15.9994           0
    6523 MEMB 92   POPC C22  CTL2  -0.220000       12.0110           0
    6524 MEMB 92   POPC H2R  HAL2   0.090000        1.0080           0
    6525 MEMB 92   POPC H2S  HAL2   0.090000        1.0080           0
    6526 MEMB 92   POPC C3   CTL2   0.080000       12.0110           0
    6527 MEMB 92   POPC HX   HAL2   0.090000        1.0080           0
    6528 MEMB 92   POPC HY   HAL2   0.090000        1.0080           0
    6529 MEMB 92   POPC O31  OSL   -0.490000       15.9994           0
    6530 MEMB 92   POPC C31  CL     0.900000       12.0110           0
    6531 MEMB 92   POPC O32  OBL   -0.630000       15.9994           0
    6532 MEMB 92   POPC C32  CTL2  -0.220000       12.0110           0
    6533 MEMB 92   POPC H2X  HAL2   0.090000        1.0080           0
    6534 MEMB 92   POPC H2Y  HAL2   0.090000        1.0080           0
    6535 MEMB 92   POPC C23  CTL2  -0.180000       12.0110           0
    6536 MEMB 92   POPC H3R  HAL2   0.090000        1.0080           0
    6537 MEMB 92   POPC H3S  HAL2   0.090000        1.0080           0
    6538 MEMB 92   POPC C24  CTL2  -0.180000       12.0110           0
    6539 MEMB 92   POPC H4R  HAL2   0.090000        1.0080           0
    6540 MEMB 92   POPC H4S  HAL2   0.090000        1.0080           0
    6541 MEMB 92   POPC C25  CTL2  -0.180000       12.0110           0
    6542 MEMB 92   POPC H5R  HAL2   0.090000        1.0080           0
    6543 MEMB 92   POPC H5S  HAL2   0.090000        1.0080           0
    6544 MEMB 92   POPC C26  CTL3  -0.270000       12.0110           0
    6545 MEMB 92   POPC H6R  HAL3   0.090000        1.0080           0
    6546 MEMB 92   POPC H6S  HAL3   0.090000        1.0080           0
    6547 MEMB 92   POPC H6T  HAL3   0.090000        1.0080           0
    6548 MEMB 92   POPC C33  CTL2  -0.180000       12.0110           0
    6549 MEMB 92   POPC H3X  HAL2   0.090000        1.0080           0
    6550 MEMB 92   POPC H3Y  HAL2   0.090000        1.0080           0
    6551 MEMB 92   POPC C34  CTL2  -0.180000       12.0110           0
    6552 MEMB 92   POPC H4X  HAL2   0.090000        1.0080           0
    6553 MEMB 92   POPC H4Y  HAL2   0.090000        1.0080           0
    6554 MEMB 92   POPC C35  CTL2  -0.180000       12.0110           0
    6555 MEMB 92   POPC H5X  HAL2   0.090000        1.0080           0
    6556 MEMB 92   POPC H5Y  HAL2   0.090000        1.0080           0
    6557 MEMB 92   POPC C36  CTL3  -0.270000       12.0110           0
    6558 MEMB 92   POPC H6X  HAL3   0.090000        1.0080           0
    6559 MEMB 92   POPC H6Y  HAL3   0.090000        1.0080           0
    6560 MEMB 92   POPC H6Z  HAL3   0.090000        1.0080           0
    6561 MEMB 93   POPE N    NH3L  -0.300000       14.0070           0
    6562 MEMB 93   POPE HN1  HCL    0.330000        1.0080           0
    6563 MEMB 93   POPE HN2  HCL    0.330000        1.0080           0
    6564 MEMB 93   POPE HN3  HCL    0.330000        1.0080           0
    6565 MEMB 93   POPE C12  CTL2   0.130000       12.0110           0
    6566 MEMB 93   POPE H12A HAL2   0.090000        1.0080           0
    6567 MEMB 93   POPE H12B HAL2   0.090000        1.0080           0
    6568 MEMB 93   POPE C11  CTL2  -0.080000       12.0110           0
    6569 MEMB 93   POPE H11A HAL2   0.090000        1.0080           0
    6570 MEMB 93   POPE H11B HAL2   0.090000        1.0080           0
    6571 MEMB 93   POPE P    PL     1.500000       30.9740           0
    6572 MEMB 93   POPE O13  O2L   -0.780000       15.9994           0
    6573 MEMB 93   POPE O14  O2L   -0.780000       15.9994           0
    6574 MEMB 93   POPE O11  OSLP  -0.570000       15.9994           0
    6575 MEMB 93   POPE O12  OSLP  -0.570000       15.9994           0
    6576 MEMB 93   POPE C1   CTL2  -0.080000       12.0110           0
    6577 MEMB 93   POPE HA   HAL2   0.090000        1.0080           0
    6578 MEMB 93   POPE HB   HAL2   0.090000        1.0080           0
    6579 MEMB 93   POPE C2   CTL1   0.170000       12.0110           0
    6580 MEMB 93   POPE HS   HAL1   0.090000        1.0080           0
    6581 MEMB 93   POPE O21  OSL   -0.490000       15.9994           0
    6582 MEMB 93   POPE C21  CL     0.900000       12.0110           0
    6583 MEMB 93   POPE O22  OBL   -0.630000       15.9994           0
    6584 MEMB 93   POPE C22  CTL2  -0.220000       12.0110           0
    6585 MEMB 93   POPE H2R  HAL2   0.090000        1.0080           0
    6586 MEMB 93   POPE H2S  HAL2   0.090000        1.0080           0
    6587 MEMB 93   POPE C3   CTL2   0.080000       12.0110           0
    6588 MEMB 93   POPE HX   HAL2   0.090000        1.0080           0
    6589 MEMB 93   POPE HY   HAL2   0.090000        1.0080           0
    6590 MEMB 93   POPE O31  OSL   -0.490000       15.9994           0
    6591 MEMB 93   POPE C31  CL     0.900000       12.0110           0
    6592 MEMB 93   POPE O32  OBL   -0.630000       15.9994           0
    6593 MEMB 93   POPE C32  CTL2  -0.220000       12.0110           0
    6594 MEMB 93   POPE H2X  HAL2   0.090000        1.0080           0
    6595 MEMB 93   POPE H2Y  HAL2   0.090000        1.0080           0
    6596 MEMB 93   POPE C23  CTL2  -0.180000       12.0110           0
    6597 MEMB 93   POPE H3R  HAL2   0.090000        1.0080           0
    6598 MEMB 93   POPE H3S  HAL2   0.090000        1.0080           0
    6599 MEMB 93   POPE C24  CTL2  -0.180000       12.0110           0
    6600 MEMB 93   POPE H4R  HAL2   0.090000        1.0080           0
    6601 MEMB 93   POPE H4S  HAL2   0.090000        1.0080           0
    6602 MEMB 93   POPE C25  CTL2  -0.180000       12.0110           0
    6603 MEMB 93   POPE H5R  HAL2   0.090000        1.0080           0
    6604 MEMB 93   POPE H5S  HAL2   0.090000        1.0080           0
    6605 MEMB 93   POPE C26  CTL3  -0.270000       12.0110           0
    6606 MEMB 93   POPE H6R  HAL3   0.090000        1.0080           0
    6607 MEMB 93   POPE H6S  HAL3   0.090000        1.0080           0
    6608 MEMB 93   POPE H6T  HAL3   0.090000        1.0080           0
    6609 MEMB 93   POPE C33  CTL2  -0.180000       12.0110           0
    6610 MEMB 93   POPE H3X  HAL2   0.090000        1.0080           0
    6611 MEMB 93   POPE H3Y  HAL2   0.090000        1.0080           0
    6612 MEMB 93   POPE C34  CTL2  -0.180000       12.0110           0
    6613 MEMB 93   POPE H4X  HAL2   0.090000        1.0080           0
    6614 MEMB 93   POPE H4Y  HAL2   0.090000        1.0080           0
    6615 MEMB 93   POPE C35  CTL2  -0.180000       12.0110           0
    6616 MEMB 93   POPE H5X  HAL2   0.090000        1.0080           0
    6617 MEMB 93   POPE H5Y  HAL2   0.090000        1.0080           0
    6618 MEMB 93   POPE C36  CTL3  -0.270000       12.0110           0
    6619 MEMB 93   POPE H6X  HAL3   0.090000        1.0080           0
    6620 MEMB 93   POPE H6Y  HAL3   0.090000        1.0080           0
    6621 MEMB 93   POPE H6Z  HAL3   0.090000        1.0080           0
    6622 MEMB 94   POPC N    NTL   -0.600000       14.0070           0
    6623 MEMB 94   POPC C12  CTL2  -0.100000       12.0110           0
    6624 MEMB 94   POPC H12A HL     0.250000        1.0080           0
    6625 MEMB 94   POPC H12B HL     0.250000        1.0080           0
    6626 MEMB 94   POPC C13  CTL5  -0.350000       12.0110           0
    6627 MEMB 94   POPC H13A HL     0.250000        1.0080           0
    6628 MEMB 94   POPC H13B HL     0.250000        1.0080           0
    6629 MEMB 94   POPC H13C HL     0.250000        1.0080           0
    6630 MEMB 94   POPC C14  CTL5  -0.350000       12.0110           0
    6631 MEMB 94   POPC H14A HL     0.250000        1.0080           0
    6632 MEMB 94   POPC H14B HL     0.250000        1.0080           0
    6633 MEMB 94   POPC H14C HL     0.250000        1.0080           0
    6634 MEMB 94   POPC C15  CTL5  -0.350000       12.0110           0
    6635 MEMB 94   POPC H15A HL     0.250000        1.0080           0
    6636 MEMB 94   POPC H15B HL     0.250000        1.0080           0
    6637 MEMB 94   POPC H15C HL     0.250000        1.0080           0
    6638 MEMB 94   POPC C11  CTL2  -0.080000       12.0110           0
    6639 MEMB 94   POPC H11A HAL2   0.090000        1.0080           0
    6640 MEMB 94   POPC H11B HAL2   0.090000        1.0080           0
    6641 MEMB 94   POPC P    PL     1.500000       30.9740           0
    6642 MEMB 94   POPC O13  O2L   -0.780000       15.9994           0
    6643 MEMB 94   POPC O14  O2L   -0.780000       15.9994           0
    6644 MEMB 94   POPC O12  OSLP  -0.570000       15.9994           0
    6645 MEMB 94   POPC O11  OSLP  -0.570000       15.9994           0
    6646 MEMB 94   POPC C1   CTL2  -0.080000       12.0110           0
    6647 MEMB 94   POPC HA   HAL2   0.090000        1.0080           0
    6648 MEMB 94   POPC HB   HAL2   0.090000        1.0080           0
    6649 MEMB 94   POPC C2   CTL1   0.170000       12.0110           0
    6650 MEMB 94   POPC HS   HAL1   0.090000        1.0080           0
    6651 MEMB 94   POPC O21  OSL   -0.490000       15.9994           0
    6652 MEMB 94   POPC C21  CL     0.900000       12.0110           0
    6653 MEMB 94   POPC O22  OBL   -0.630000       15.9994           0
    6654 MEMB 94   POPC C22  CTL2  -0.220000       12.0110           0
    6655 MEMB 94   POPC H2R  HAL2   0.090000        1.0080           0
    6656 MEMB 94   POPC H2S  HAL2   0.090000        1.0080           0
    6657 MEMB 94   POPC C3   CTL2   0.080000       12.0110           0
    6658 MEMB 94   POPC HX   HAL2   0.090000        1.0080           0
    6659 MEMB 94   POPC HY   HAL2   0.090000        1.0080           0
    6660 MEMB 94   POPC O31  OSL   -0.490000       15.9994           0
    6661 MEMB 94   POPC C31  CL     0.900000       12.0110           0
    6662 MEMB 94   POPC O32  OBL   -0.630000       15.9994           0
    6663 MEMB 94   POPC C32  CTL2  -0.220000       12.0110           0
    6664 MEMB 94   POPC H2X  HAL2   0.090000        1.0080           0
    6665 MEMB 94   POPC H2Y  HAL2   0.090000        1.0080           0
    6666 MEMB 94   POPC C23  CTL2  -0.180000       12.0110           0
    6667 MEMB 94   POPC H3R  HAL2   0.090000        1.0080           0
    6668 MEMB 94   POPC H3S  HAL2   0.090000        1.0080           0
    6669 MEMB 94   POPC C24  CTL2  -0.180000       12.0110           0
    6670 MEMB 94   POPC H4R  HAL2   0.090000        1.0080           0
    6671 MEMB 94   POPC H4S  HAL2   0.090000        1.0080           0
    6672 MEMB 94   POPC C25  CTL2  -0.180000       12.0110           0
    6673 MEMB 94   POPC H5R  HAL2   0.090000        1.0080           0
    6674 MEMB 94   POPC H5S  HAL2   0.090000        1.0080           0
    6675 MEMB 94   POPC C26  CTL3  -0.270000       12.0110           0
    6676 MEMB 94   POPC H6R  HAL3   0.090000        1.0080           0
    6677 MEMB 94   POPC H6S  HAL3   0.090000        1.0080           0
    6678 MEMB 94   POPC H6T  HAL3   0.090000        1.0080           0
    6679 MEMB 94   POPC C33  CTL2  -0.180000       12.0110           0
    6680 MEMB 94   POPC H3X  HAL2   0.090000        1.0080           0
    6681 MEMB 94   POPC H3Y  HAL2   0.090000        1.0080           0
    6682 MEMB 94   POPC C34  CTL2  -0.180000       12.0110           0
    6683 MEMB 94   POPC H4X  HAL2   0.090000        1.0080           0
    6684 MEMB 94   POPC H4Y  HAL2   0.090000        1.0080           0
    6685 MEMB 94   POPC C35  CTL2  -0.180000       12.0110           0
    6686 MEMB 94   POPC H5X  HAL2   0.090000        1.0080           0
    6687 MEMB 94   POPC H5Y  HAL2   0.090000        1.0080           0
    6688 MEMB 94   POPC C36  CTL3  -0.270000       12.0110           0
    6689 MEMB 94   POPC H6X  HAL3   0.090000        1.0080           0
    6690 MEMB 94   POPC H6Y  HAL3   0.090000        1.0080           0
    6691 MEMB 94   POPC H6Z  HAL3   0.090000        1.0080           0
    6692 MEMB 95   PSM  N    NTL   -0.600000       14.0070           0
    6693 MEMB 95   PSM  C15  CTL5  -0.350000       12.0110           0
    6694 MEMB 95   PSM  H15A HL     0.250000        1.0080           0
    6695 MEMB 95   PSM  H15B HL     0.250000        1.0080           0
    6696 MEMB 95   PSM  H15C HL     0.250000        1.0080           0
    6697 MEMB 95   PSM  C14  CTL5  -0.350000       12.0110           0
    6698 MEMB 95   PSM  H14A HL     0.250000        1.0080           0
    6699 MEMB 95   PSM  H14B HL     0.250000        1.0080           0
    6700 MEMB 95   PSM  H14C HL     0.250000        1.0080           0
    6701 MEMB 95   PSM  C13  CTL5  -0.350000       12.0110           0
    6702 MEMB 95   PSM  H13A HL     0.250000        1.0080           0
    6703 MEMB 95   PSM  H13B HL     0.250000        1.0080           0
    6704 MEMB 95   PSM  H13C HL     0.250000        1.0080           0
    6705 MEMB 95   PSM  C12  CTL2  -0.100000       12.0110           0
    6706 MEMB 95   PSM  H12A HL     0.250000        1.0080           0
    6707 MEMB 95   PSM  H12B HL     0.250000        1.0080           0
    6708 MEMB 95   PSM  C11  CTL2  -0.080000       12.0110           0
    6709 MEMB 95   PSM  H11A HAL2   0.090000        1.0080           0
    6710 MEMB 95   PSM  H11B HAL2   0.090000        1.0080           0
    6711 MEMB 95   PSM  P    PL     1.500000       30.9740           0
    6712 MEMB 95   PSM  O13  O2L   -0.780000       15.9994           0
    6713 MEMB 95   PSM  O14  O2L   -0.780000       15.9994           0
    6714 MEMB 95   PSM  O11  OSLP  -0.570000       15.9994           0
    6715 MEMB 95   PSM  O12  OSLP  -0.570000       15.9994           0
    6716 MEMB 95   PSM  C1S  CTL2  -0.080000       12.0110           0
    6717 MEMB 95   PSM  H1S  HAL2   0.090000        1.0080           0
    6718 MEMB 95   PSM  H1T  HAL2   0.090000        1.0080           0
    6719 MEMB 95   PSM  NF   NHL   -0.700000       14.0070           0
    6720 MEMB 95   PSM  HNF  H      0.350000        1.0080           0
    6721 MEMB 95   PSM  C2S  CTL1   0.300000       12.0110           0
    6722 MEMB 95   PSM  H2S  HAL1   0.050000        1.0080           0
    6723 MEMB 95   PSM  C3S  CTO1   0.500000       12.0110           0
    6724 MEMB 95   PSM  H3S  HAL1  -0.110000        1.0080           0
    6725 MEMB 95   PSM  O3   OHL   -0.690000       15.9994           0
    6726 MEMB 95   PSM  HO3  HOL    0.300000        1.0080           0
    6727 MEMB 95   PSM  C4S  CEL3  -0.150000       12.0110           0
    6728 MEMB 95   PSM  H4S  HEL1   0.150000        1.0080           0
    6729 MEMB 95   PSM  C5S  CEL3  -0.150000       12.0110           0
    6730 MEMB 95   PSM  H5S  HEL1   0.150000        1.0080           0
    6731 MEMB 95   PSM  C6S  CTL3  -0.270000       12.0110           0
    6732 MEMB 95   PSM  H6S  HAL3   0.090000        1.0080           0
    6733 MEMB 95   PSM  H6T  HAL3   0.090000        1.0080           0
    6734 MEMB 95   PSM  H6U  HAL3   0.090000        1.0080           0
    6735 MEMB 95   PSM  C1F  C      0.550000       12.0110           0
    6736 MEMB 95   PSM  OF   O     -0.600000       15.9994           0
    6737 MEMB 95   PSM  C2F  CTL2  -0.070000       12.0110           0
    6738 MEMB 95   PSM  H2F  HAL2   0.060000        1.0080           0
    6739 MEMB 95   PSM  H2G  HAL2   0.060000        1.0080           0
    6740 MEMB 95   PSM  C3F  CTL2  -0.180000       12.0110           0
    6741 MEMB 95   PSM  H3F  HAL2   0.090000        1.0080           0
    6742 MEMB 95   PSM  H3G  HAL2   0.090000        1.0080           0
    6743 MEMB 95   PSM  C4F  CTL2  -0.180000       12.0110           0
    6744 MEMB 95   PSM  H4F  HAL2   0.090000        1.0080           0
    6745 MEMB 95   PSM  H4G  HAL2   0.090000        1.0080           0
    6746 MEMB 95   PSM  C5F  CTL2  -0.180000       12.0110           0
    6747 MEMB 95   PSM  H5F  HAL2   0.090000        1.0080           0
    6748 MEMB 95   PSM  H5G  HAL2   0.090000        1.0080           0
    6749 MEMB 95   PSM  C6F  CTL3  -0.270000       12.0110           0
    6750 MEMB 95   PSM  H6F  HAL3   0.090000        1.0080           0
    6751 MEMB 95   PSM  H6G  HAL3   0.090000        1.0080           0
    6752 MEMB 95   PSM  H6H  HAL3   0.090000        1.0080           0
    6753 MEMB 96   POPC N    NTL   -0.600000       14.0070           0
    6754 MEMB 96   POPC C12  CTL2  -0.100000       12.0110           0
    6755 MEMB 96   POPC H12A HL     0.250000        1.0080           0
    6756 MEMB 96   POPC H12B HL     0.250000        1.0080           0
    6757 MEMB 96   POPC C13  CTL5  -0.350000       12.0110           0
    6758 MEMB 96   POPC H13A HL     0.250000        1.0080           0
    6759 MEMB 96   POPC H13B HL     0.250000        1.0080           0
    6760 MEMB 96   POPC H13C HL     0.250000        1.0080           0
    6761 MEMB 96   POPC C14  CTL5  -0.350000       12.0110           0
    6762 MEMB 96   POPC H14A HL     0.250000        1.0080           0
    6763 MEMB 96   POPC H14B HL     0.250000        1.0080           0
    6764 MEMB 96   POPC H14C HL     0.250000        1.0080           0
    6765 MEMB 96   POPC C15  CTL5  -0.350000       12.0110           0
    6766 MEMB 96   POPC H15A HL     0.250000        1.0080           0
    6767 MEMB 96   POPC H15B HL     0.250000        1.0080           0
    6768 MEMB 96   POPC H15C HL     0.250000        1.0080           0
    6769 MEMB 96   POPC C11  CTL2  -0.080000       12.0110           0
    6770 MEMB 96   POPC H11A HAL2   0.090000        1.0080           0
    6771 MEMB 96   POPC H11B HAL2   0.090000        1.0080           0
    6772 MEMB 96   POPC P    PL     1.500000       30.9740           0
    6773 MEMB 96   POPC O13  O2L   -0.780000       15.9994           0
    6774 MEMB 96   POPC O14  O2L   -0.780000       15.9994           0
    6775 MEMB 96   POPC O12  OSLP  -0.570000       15.9994           0
    6776 MEMB 96   POPC O11  OSLP  -0.570000       15.9994           0
    6777 MEMB 96   POPC C1   CTL2  -0.080000       12.0110           0
    6778 MEMB 96   POPC HA   HAL2   0.090000        1.0080           0
    6779 MEMB 96   POPC HB   HAL2   0.090000        1.0080           0
    6780 MEMB 96   POPC C2   CTL1   0.170000       12.0110           0
    6781 MEMB 96   POPC HS   HAL1   0.090000        1.0080           0
    6782 MEMB 96   POPC O21  OSL   -0.490000       15.9994           0
    6783 MEMB 96   POPC C21  CL     0.900000       12.0110           0
    6784 MEMB 96   POPC O22  OBL   -0.630000       15.9994           0
    6785 MEMB 96   POPC C22  CTL2  -0.220000       12.0110           0
    6786 MEMB 96   POPC H2R  HAL2   0.090000        1.0080           0
    6787 MEMB 96   POPC H2S  HAL2   0.090000        1.0080           0
    6788 MEMB 96   POPC C3   CTL2   0.080000       12.0110           0
    6789 MEMB 96   POPC HX   HAL2   0.090000        1.0080           0
    6790 MEMB 96   POPC HY   HAL2   0.090000        1.0080           0
    6791 MEMB 96   POPC O31  OSL   -0.490000       15.9994           0
    6792 MEMB 96   POPC C31  CL     0.900000       12.0110           0
    6793 MEMB 96   POPC O32  OBL   -0.630000       15.9994           0
    6794 MEMB 96   POPC C32  CTL2  -0.220000       12.0110           0
    6795 MEMB 96   POPC H2X  HAL2   0.090000        1.0080           0
    6796 MEMB 96   POPC H2Y  HAL2   0.090000        1.0080           0
    6797 MEMB 96   POPC C23  CTL2  -0.180000       12.0110           0
    6798 MEMB 96   POPC H3R  HAL2   0.090000        1.0080           0
    6799 MEMB 96   POPC H3S  HAL2   0.090000        1.0080           0
    6800 MEMB 96   POPC C24  CTL2  -0.180000       12.0110           0
    6801 MEMB 96   POPC H4R  HAL2   0.090000        1.0080           0
    6802 MEMB 96   POPC H4S  HAL2   0.090000        1.0080           0
    6803 MEMB 96   POPC C25  CTL2  -0.180000       12.0110           0
    6804 MEMB 96   POPC H5R  HAL2   0.090000        1.0080           0
    6805 MEMB 96   POPC H5S  HAL2   0.090000        1.0080           0
    6806 MEMB 96   POPC C26  CTL3  -0.270000       12.0110           0
    6807 MEMB 96   POPC H6R  HAL3   0.090000        1.0080           0
    6808 MEMB 96   POPC H6S  HAL3   0.090000        1.0080           0
    6809 MEMB 96   POPC H6T  HAL3   0.090000        1.0080           0
    6810 MEMB 96   POPC C33  CTL2  -0.180000       12.0110           0
    6811 MEMB 96   POPC H3X  HAL2   0.090000        1.0080           0
    6812 MEMB 96   POPC H3Y  HAL2   0.090000        1.0080           0
    6813 MEMB 96   POPC C34  CTL2  -0.180000       12.0110           0
    6814 MEMB 96   POPC H4X  HAL2   0.090000        1.0080           0
    6815 MEMB 96   POPC H4Y  HAL2   0.090000        1.0080           0
    6816 MEMB 96   POPC C35  CTL2  -0.180000       12.0110           0
    6817 MEMB 96   POPC H5X  HAL2   0.090000        1.0080           0
    6818 MEMB 96   POPC H5Y  HAL2   0.090000        1.0080           0
    6819 MEMB 96   POPC C36  CTL3  -0.270000       12.0110           0
    6820 MEMB 96   POPC H6X  HAL3   0.090000        1.0080           0
    6821 MEMB 96   POPC H6Y  HAL3   0.090000        1.0080           0
    6822 MEMB 96   POPC H6Z  HAL3   0.090000        1.0080           0
    6823 MEMB 97   POPE N    NH3L  -0.300000       14.0070           0
    6824 MEMB 97   POPE HN1  HCL    0.330000        1.0080           0
    6825 MEMB 97   POPE HN2  HCL    0.330000        1.0080           0
    6826 MEMB 97   POPE HN3  HCL    0.330000        1.0080           0
    6827 MEMB 97   POPE C12  CTL2   0.130000       12.0110           0
    6828 MEMB 97   POPE H12A HAL2   0.090000        1.0080           0
    6829 MEMB 97   POPE H12B HAL2   0.090000        1.0080           0
    6830 MEMB 97   POPE C11  CTL2  -0.080000       12.0110           0
    6831 MEMB 97   POPE H11A HAL2   0.090000        1.0080           0
    6832 MEMB 97   POPE H11B HAL2   0.090000        1.0080           0
    6833 MEMB 97   POPE P    PL     1.500000       30.9740           0
    6834 MEMB 97   POPE O13  O2L   -0.780000       15.9994           0
    6835 MEMB 97   POPE O14  O2L   -0.780000       15.9994           0
    6836 MEMB 97   POPE O11  OSLP  -0.570000       15.9994           0
    6837 MEMB 97   POPE O12  OSLP  -0.570000       15.9994           0
    6838 MEMB 97   POPE C1   CTL2  -0.080000       12.0110           0
    6839 MEMB 97   POPE HA   HAL2   0.090000        1.0080           0
    6840 MEMB 97   POPE HB   HAL2   0.090000        1.0080           0
    6841 MEMB 97   POPE C2   CTL1   0.170000       12.0110           0
    6842 MEMB 97   POPE HS   HAL1   0.090000        1.0080           0
    6843 MEMB 97   POPE O21  OSL   -0.490000       15.9994           0
    6844 MEMB 97   POPE C21  CL     0.900000       12.0110           0
    6845 MEMB 97   POPE O22  OBL   -0.630000       15.9994           0
    6846 MEMB 97   POPE C22  CTL2  -0.220000       12.0110           0
    6847 MEMB 97   POPE H2R  HAL2   0.090000        1.0080           0
    6848 MEMB 97   POPE H2S  HAL2   0.090000        1.0080           0
    6849 MEMB 97   POPE C3   CTL2   0.080000       12.0110           0
    6850 MEMB 97   POPE HX   HAL2   0.090000        1.0080           0
    6851 MEMB 97   POPE HY   HAL2   0.090000        1.0080           0
    6852 MEMB 97   POPE O31  OSL   -0.490000       15.9994           0
    6853 MEMB 97   POPE C31  CL     0.900000       12.0110           0
    6854 MEMB 97   POPE O32  OBL   -0.630000       15.9994           0
    6855 MEMB 97   POPE C32  CTL2  -0.220000       12.0110           0
    6856 MEMB 97   POPE H2X  HAL2   0.090000        1.0080           0
    6857 MEMB 97   POPE H2Y  HAL2   0.090000        1.0080           0
    6858 MEMB 97   POPE C23  CTL2  -0.180000       12.0110           0
    6859 MEMB 97   POPE H3R  HAL2   0.090000        1.0080           0
    6860 MEMB 97   POPE H3S  HAL2   0.090000        1.0080           0
    6861 MEMB 97   POPE C24  CTL2  -0.180000       12.0110           0
    6862 MEMB 97   POPE H4R  HAL2   0.090000        1.0080           0
    6863 MEMB 97   POPE H4S  HAL2   0.090000        1.0080           0
    6864 MEMB 97   POPE C25  CTL2  -0.180000       12.0110           0
    6865 MEMB 97   POPE H5R  HAL2   0.090000        1.0080           0
    6866 MEMB 97   POPE H5S  HAL2   0.090000        1.0080           0
    6867 MEMB 97   POPE C26  CTL3  -0.270000       12.0110           0
    6868 MEMB 97   POPE H6R  HAL3   0.090000        1.0080           0
    6869 MEMB 97   POPE H6S  HAL3   0.090000        1.0080           0
    6870 MEMB 97   POPE H6T  HAL3   0.090000        1.0080           0
    6871 MEMB 97   POPE C33  CTL2  -0.180000       12.0110           0
    6872 MEMB 97   POPE H3X  HAL2   0.090000        1.0080           0
    6873 MEMB 97   POPE H3Y  HAL2   0.090000        1.0080           0
    6874 MEMB 97   POPE C34  CTL2  -0.180000       12.0110           0
    6875 MEMB 97   POPE H4X  HAL2   0.090000        1.0080           0
    6876 MEMB 97   POPE H4Y  HAL2   0.090000        1.0080           0
    6877 MEMB 97   POPE C35  CTL2  -0.180000       12.0110           0
    6878 MEMB 97   POPE H5X  HAL2   0.090000        1.0080           0
    6879 MEMB 97   POPE H5Y  HAL2   0.090000        1.0080           0
    6880 MEMB 97   POPE C36  CTL3  -0.270000       12.0110           0
    6881 MEMB 97   POPE H6X  HAL3   0.090000        1.0080           0
    6882 MEMB 97   POPE H6Y  HAL3   0.090000        1.0080           0
    6883 MEMB 97   POPE H6Z  HAL3   0.090000        1.0080           0
    6884 MEMB 98   POPE N    NH3L  -0.300000       14.0070           0
    6885 MEMB 98   POPE HN1  HCL    0.330000        1.0080           0
    6886 MEMB 98   POPE HN2  HCL    0.330000        1.0080           0
    6887 MEMB 98   POPE HN3  HCL    0.330000        1.0080           0
    6888 MEMB 98   POPE C12  CTL2   0.130000       12.0110           0
    6889 MEMB 98   POPE H12A HAL2   0.090000        1.0080           0
    6890 MEMB 98   POPE H12B HAL2   0.090000        1.0080           0
    6891 MEMB 98   POPE C11  CTL2  -0.080000       12.0110           0
    6892 MEMB 98   POPE H11A HAL2   0.090000        1.0080           0
    6893 MEMB 98   POPE H11B HAL2   0.090000        1.0080           0
    6894 MEMB 98   POPE P    PL     1.500000       30.9740           0
    6895 MEMB 98   POPE O13  O2L   -0.780000       15.9994           0
    6896 MEMB 98   POPE O14  O2L   -0.780000       15.9994           0
    6897 MEMB 98   POPE O11  OSLP  -0.570000       15.9994           0
    6898 MEMB 98   POPE O12  OSLP  -0.570000       15.9994           0
    6899 MEMB 98   POPE C1   CTL2  -0.080000       12.0110           0
    6900 MEMB 98   POPE HA   HAL2   0.090000        1.0080           0
    6901 MEMB 98   POPE HB   HAL2   0.090000        1.0080           0
    6902 MEMB 98   POPE C2   CTL1   0.170000       12.0110           0
    6903 MEMB 98   POPE HS   HAL1   0.090000        1.0080           0
    6904 MEMB 98   POPE O21  OSL   -0.490000       15.9994           0
    6905 MEMB 98   POPE C21  CL     0.900000       12.0110           0
    6906 MEMB 98   POPE O22  OBL   -0.630000       15.9994           0
    6907 MEMB 98   POPE C22  CTL2  -0.220000       12.0110           0
    6908 MEMB 98   POPE H2R  HAL2   0.090000        1.0080           0
    6909 MEMB 98   POPE H2S  HAL2   0.090000        1.0080           0
    6910 MEMB 98   POPE C3   CTL2   0.080000       12.0110           0
    6911 MEMB 98   POPE HX   HAL2   0.090000        1.0080           0
    6912 MEMB 98   POPE HY   HAL2   0.090000        1.0080           0
    6913 MEMB 98   POPE O31  OSL   -0.490000       15.9994           0
    6914 MEMB 98   POPE C31  CL     0.900000       12.0110           0
    6915 MEMB 98   POPE O32  OBL   -0.630000       15.9994           0
    6916 MEMB 98   POPE C32  CTL2  -0.220000       12.0110           0
    6917 MEMB 98   POPE H2X  HAL2   0.090000        1.0080           0
    6918 MEMB 98   POPE H2Y  HAL2   0.090000        1.0080           0
    6919 MEMB 98   POPE C23  CTL2  -0.180000       12.0110           0
    6920 MEMB 98   POPE H3R  HAL2   0.090000        1.0080           0
    6921 MEMB 98   POPE H3S  HAL2   0.090000        1.0080           0
    6922 MEMB 98   POPE C24  CTL2  -0.180000       12.0110           0
    6923 MEMB 98   POPE H4R  HAL2   0.090000        1.0080           0
    6924 MEMB 98   POPE H4S  HAL2   0.090000        1.0080           0
    6925 MEMB 98   POPE C25  CTL2  -0.180000       12.0110           0
    6926 MEMB 98   POPE H5R  HAL2   0.090000        1.0080           0
    6927 MEMB 98   POPE H5S  HAL2   0.090000        1.0080           0
    6928 MEMB 98   POPE C26  CTL3  -0.270000       12.0110           0
    6929 MEMB 98   POPE H6R  HAL3   0.090000        1.0080           0
    6930 MEMB 98   POPE H6S  HAL3   0.090000        1.0080           0
    6931 MEMB 98   POPE H6T  HAL3   0.090000        1.0080           0
    6932 MEMB 98   POPE C33  CTL2  -0.180000       12.0110           0
    6933 MEMB 98   POPE H3X  HAL2   0.090000        1.0080           0
    6934 MEMB 98   POPE H3Y  HAL2   0.090000        1.0080           0
    6935 MEMB 98   POPE C34  CTL2  -0.180000       12.0110           0
    6936 MEMB 98   POPE H4X  HAL2   0.090000        1.0080           0
    6937 MEMB 98   POPE H4Y  HAL2   0.090000        1.0080           0
    6938 MEMB 98   POPE C35  CTL2  -0.180000       12.0110           0
    6939 MEMB 98   POPE H5X  HAL2   0.090000        1.0080           0
    6940 MEMB 98   POPE H5Y  HAL2   0.090000        1.0080           0
    6941 MEMB 98   POPE C36  CTL3  -0.270000       12.0110           0
    6942 MEMB 98   POPE H6X  HAL3   0.090000        1.0080           0
    6943 MEMB 98   POPE H6Y  HAL3   0.090000        1.0080           0
    6944 MEMB 98   POPE H6Z  HAL3   0.090000        1.0080           0
    6945 MEMB 99   POPE N    NH3L  -0.300000       14.0070           0
    6946 MEMB 99   POPE HN1  HCL    0.330000        1.0080           0
    6947 MEMB 99   POPE HN2  HCL    0.330000        1.0080           0
    6948 MEMB 99   POPE HN3  HCL    0.330000        1.0080           0
    6949 MEMB 99   POPE C12  CTL2   0.130000       12.0110           0
    6950 MEMB 99   POPE H12A HAL2   0.090000        1.0080           0
    6951 MEMB 99   POPE H12B HAL2   0.090000        1.0080           0
    6952 MEMB 99   POPE C11  CTL2  -0.080000       12.0110           0
    6953 MEMB 99   POPE H11A HAL2   0.090000        1.0080           0
    6954 MEMB 99   POPE H11B HAL2   0.090000        1.0080           0
    6955 MEMB 99   POPE P    PL     1.500000       30.9740           0
    6956 MEMB 99   POPE O13  O2L   -0.780000       15.9994           0
    6957 MEMB 99   POPE O14  O2L   -0.780000       15.9994           0
    6958 MEMB 99   POPE O11  OSLP  -0.570000       15.9994           0
    6959 MEMB 99   POPE O12  OSLP  -0.570000       15.9994           0
    6960 MEMB 99   POPE C1   CTL2  -0.080000       12.0110           0
    6961 MEMB 99   POPE HA   HAL2   0.090000        1.0080           0
    6962 MEMB 99   POPE HB   HAL2   0.090000        1.0080           0
    6963 MEMB 99   POPE C2   CTL1   0.170000       12.0110           0
    6964 MEMB 99   POPE HS   HAL1   0.090000        1.0080           0
    6965 MEMB 99   POPE O21  OSL   -0.490000       15.9994           0
    6966 MEMB 99   POPE C21  CL     0.900000       12.0110           0
    6967 MEMB 99   POPE O22  OBL   -0.630000       15.9994           0
    6968 MEMB 99   POPE C22  CTL2  -0.220000       12.0110           0
    6969 MEMB 99   POPE H2R  HAL2   0.090000        1.0080           0
    6970 MEMB 99   POPE H2S  HAL2   0.090000        1.0080           0
    6971 MEMB 99   POPE C3   CTL2   0.080000       12.0110           0
    6972 MEMB 99   POPE HX   HAL2   0.090000        1.0080           0
    6973 MEMB 99   POPE HY   HAL2   0.090000        1.0080           0
    6974 MEMB 99   POPE O31  OSL   -0.490000       15.9994           0
    6975 MEMB 99   POPE C31  CL     0.900000       12.0110           0
    6976 MEMB 99   POPE O32  OBL   -0.630000       15.9994           0
    6977 MEMB 99   POPE C32  CTL2  -0.220000       12.0110           0
    6978 MEMB 99   POPE H2X  HAL2   0.090000        1.0080           0
    6979 MEMB 99   POPE H2Y  HAL2   0.090000        1.0080           0
    6980 MEMB 99   POPE C23  CTL2  -0.180000       12.0110           0
    6981 MEMB 99   POPE H3R  HAL2   0.090000        1.0080           0
    6982 MEMB 99   POPE H3S  HAL2   0.090000        1.0080           0
    6983 MEMB 99   POPE C24  CTL2  -0.180000       12.0110           0
    6984 MEMB 99   POPE H4R  HAL2   0.090000        1.0080           0
    6985 MEMB 99   POPE H4S  HAL2   0.090000        1.0080           0
    6986 MEMB 99   POPE C25  CTL2  -0.180000       12.0110           0
    6987 MEMB 99   POPE H5R  HAL2   0.090000        1.0080           0
    6988 MEMB 99   POPE H5S  HAL2   0.090000        1.0080           0
    6989 MEMB 99   POPE C26  CTL3  -0.270000       12.0110           0
    6990 MEMB 99   POPE H6R  HAL3   0.090000        1.0080           0
    6991 MEMB 99   POPE H6S  HAL3   0.090000        1.0080           0
    6992 MEMB 99   POPE H6T  HAL3   0.090000        1.0080           0
    6993 MEMB 99   POPE C33  CTL2  -0.180000       12.0110           0
    6994 MEMB 99   POPE H3X  HAL2   0.090000        1.0080           0
    6995 MEMB 99   POPE H3Y  HAL2   0.090000        1.0080           0
    6996 MEMB 99   POPE C34  CTL2  -0.180000       12.0110           0
    6997 MEMB 99   POPE H4X  HAL2   0.090000        1.0080           0
    6998 MEMB 99   POPE H4Y  HAL2   0.090000        1.0080           0
    6999 MEMB 99   POPE C35  CTL2  -0.180000       12.0110           0
    7000 MEMB 99   POPE H5X  HAL2   0.090000        1.0080           0
    7001 MEMB 99   POPE H5Y  HAL2   0.090000        1.0080           0
    7002 MEMB 99   POPE C36  CTL3  -0.270000       12.0110           0
    7003 MEMB 99   POPE H6X  HAL3   0.090000        1.0080           0
    7004 MEMB 99   POPE H6Y  HAL3   0.090000        1.0080           0
    7005 MEMB 99   POPE H6Z  HAL3   0.090000        1.0080           0
    7006 MEMB 100  POPE N    NH3L  -0.300000       14.0070           0
    7007 MEMB 100  POPE HN1  HCL    0.330000        1.0080           0
    7008 MEMB 100  POPE HN2  HCL    0.330000        1.0080           0
    7009 MEMB 100  POPE HN3  HCL    0.330000        1.0080           0
    7010 MEMB 100  POPE C12  CTL2   0.130000       12.0110           0
    7011 MEMB 100  POPE H12A HAL2   0.090000        1.0080           0
    7012 MEMB 100  POPE H12B HAL2   0.090000        1.0080           0
    7013 MEMB 100  POPE C11  CTL2  -0.080000       12.0110           0
    7014 MEMB 100  POPE H11A HAL2   0.090000        1.0080           0
    7015 MEMB 100  POPE H11B HAL2   0.090000        1.0080           0
    7016 MEMB 100  POPE P    PL     1.500000       30.9740           0
    7017 MEMB 100  POPE O13  O2L   -0.780000       15.9994           0
    7018 MEMB 100  POPE O14  O2L   -0.780000       15.9994           0
    7019 MEMB 100  POPE O11  OSLP  -0.570000       15.9994           0
    7020 MEMB 100  POPE O12  OSLP  -0.570000       15.9994           0
    7021 MEMB 100  POPE C1   CTL2  -0.080000       12.0110           0
    7022 MEMB 100  POPE HA   HAL2   0.090000        1.0080           0
    7023 MEMB 100  POPE HB   HAL2   0.090000        1.0080           0
    7024 MEMB 100  POPE C2   CTL1   0.170000       12.0110           0
    7025 MEMB 100  POPE HS   HAL1   0.090000        1.0080           0
    7026 MEMB 100  POPE O21  OSL   -0.490000       15.9994           0
    7027 MEMB 100  POPE C21  CL     0.900000       12.0110           0
    7028 MEMB 100  POPE O22  OBL   -0.630000       15.9994           0
    7029 MEMB 100  POPE C22  CTL2  -0.220000       12.0110           0
    7030 MEMB 100  POPE H2R  HAL2   0.090000        1.0080           0
    7031 MEMB 100  POPE H2S  HAL2   0.090000        1.0080           0
    7032 MEMB 100  POPE C3   CTL2   0.080000       12.0110           0
    7033 MEMB 100  POPE HX   HAL2   0.090000        1.0080           0
    7034 MEMB 100  POPE HY   HAL2   0.090000        1.0080           0
    7035 MEMB 100  POPE O31  OSL   -0.490000       15.9994           0
    7036 MEMB 100  POPE C31  CL     0.900000       12.0110           0
    7037 MEMB 100  POPE O32  OBL   -0.630000       15.9994           0
    7038 MEMB 100  POPE C32  CTL2  -0.220000       12.0110           0
    7039 MEMB 100  POPE H2X  HAL2   0.090000        1.0080           0
    7040 MEMB 100  POPE H2Y  HAL2   0.090000        1.0080           0
    7041 MEMB 100  POPE C23  CTL2  -0.180000       12.0110           0
    7042 MEMB 100  POPE H3R  HAL2   0.090000        1.0080           0
    7043 MEMB 100  POPE H3S  HAL2   0.090000        1.0080           0
    7044 MEMB 100  POPE C24  CTL2  -0.180000       12.0110           0
    7045 MEMB 100  POPE H4R  HAL2   0.090000        1.0080           0
    7046 MEMB 100  POPE H4S  HAL2   0.090000        1.0080           0
    7047 MEMB 100  POPE C25  CTL2  -0.180000       12.0110           0
    7048 MEMB 100  POPE H5R  HAL2   0.090000        1.0080           0
    7049 MEMB 100  POPE H5S  HAL2   0.090000        1.0080           0
    7050 MEMB 100  POPE C26  CTL3  -0.270000       12.0110           0
    7051 MEMB 100  POPE H6R  HAL3   0.090000        1.0080           0
    7052 MEMB 100  POPE H6S  HAL3   0.090000        1.0080           0
    7053 MEMB 100  POPE H6T  HAL3   0.090000        1.0080           0
    7054 MEMB 100  POPE C33  CTL2  -0.180000       12.0110           0
    7055 MEMB 100  POPE H3X  HAL2   0.090000        1.0080           0
    7056 MEMB 100  POPE H3Y  HAL2   0.090000        1.0080           0
    7057 MEMB 100  POPE C34  CTL2  -0.180000       12.0110           0
    7058 MEMB 100  POPE H4X  HAL2   0.090000        1.0080           0
    7059 MEMB 100  POPE H4Y  HAL2   0.090000        1.0080           0
    7060 MEMB 100  POPE C35  CTL2  -0.180000       12.0110           0
    7061 MEMB 100  POPE H5X  HAL2   0.090000        1.0080           0
    7062 MEMB 100  POPE H5Y  HAL2   0.090000        1.0080           0
    7063 MEMB 100  POPE C36  CTL3  -0.270000       12.0110           0
    7064 MEMB 100  POPE H6X  HAL3   0.090000        1.0080           0
    7065 MEMB 100  POPE H6Y  HAL3   0.090000        1.0080           0
    7066 MEMB 100  POPE H6Z  HAL3   0.090000        1.0080           0
    7067 MEMB 101  PSM  N    NTL   -0.600000       14.0070           0
    7068 MEMB 101  PSM  C15  CTL5  -0.350000       12.0110           0
    7069 MEMB 101  PSM  H15A HL     0.250000        1.0080           0
    7070 MEMB 101  PSM  H15B HL     0.250000        1.0080           0
    7071 MEMB 101  PSM  H15C HL     0.250000        1.0080           0
    7072 MEMB 101  PSM  C14  CTL5  -0.350000       12.0110           0
    7073 MEMB 101  PSM  H14A HL     0.250000        1.0080           0
    7074 MEMB 101  PSM  H14B HL     0.250000        1.0080           0
    7075 MEMB 101  PSM  H14C HL     0.250000        1.0080           0
    7076 MEMB 101  PSM  C13  CTL5  -0.350000       12.0110           0
    7077 MEMB 101  PSM  H13A HL     0.250000        1.0080           0
    7078 MEMB 101  PSM  H13B HL     0.250000        1.0080           0
    7079 MEMB 101  PSM  H13C HL     0.250000        1.0080           0
    7080 MEMB 101  PSM  C12  CTL2  -0.100000       12.0110           0
    7081 MEMB 101  PSM  H12A HL     0.250000        1.0080           0
    7082 MEMB 101  PSM  H12B HL     0.250000        1.0080           0
    7083 MEMB 101  PSM  C11  CTL2  -0.080000       12.0110           0
    7084 MEMB 101  PSM  H11A HAL2   0.090000        1.0080           0
    7085 MEMB 101  PSM  H11B HAL2   0.090000        1.0080           0
    7086 MEMB 101  PSM  P    PL     1.500000       30.9740           0
    7087 MEMB 101  PSM  O13  O2L   -0.780000       15.9994           0
    7088 MEMB 101  PSM  O14  O2L   -0.780000       15.9994           0
    7089 MEMB 101  PSM  O11  OSLP  -0.570000       15.9994           0
    7090 MEMB 101  PSM  O12  OSLP  -0.570000       15.9994           0
    7091 MEMB 101  PSM  C1S  CTL2  -0.080000       12.0110           0
    7092 MEMB 101  PSM  H1S  HAL2   0.090000        1.0080           0
    7093 MEMB 101  PSM  H1T  HAL2   0.090000        1.0080           0
    7094 MEMB 101  PSM  NF   NHL   -0.700000       14.0070           0
    7095 MEMB 101  PSM  HNF  H      0.350000        1.0080           0
    7096 MEMB 101  PSM  C2S  CTL1   0.300000       12.0110           0
    7097 MEMB 101  PSM  H2S  HAL1   0.050000        1.0080           0
    7098 MEMB 101  PSM  C3S  CTO1   0.500000       12.0110           0
    7099 MEMB 101  PSM  H3S  HAL1  -0.110000        1.0080           0
    7100 MEMB 101  PSM  O3   OHL   -0.690000       15.9994           0
    7101 MEMB 101  PSM  HO3  HOL    0.300000        1.0080           0
    7102 MEMB 101  PSM  C4S  CEL3  -0.150000       12.0110           0
    7103 MEMB 101  PSM  H4S  HEL1   0.150000        1.0080           0
    7104 MEMB 101  PSM  C5S  CEL3  -0.150000       12.0110           0
    7105 MEMB 101  PSM  H5S  HEL1   0.150000        1.0080           0
    7106 MEMB 101  PSM  C6S  CTL3  -0.270000       12.0110           0
    7107 MEMB 101  PSM  H6S  HAL3   0.090000        1.0080           0
    7108 MEMB 101  PSM  H6T  HAL3   0.090000        1.0080           0
    7109 MEMB 101  PSM  H6U  HAL3   0.090000        1.0080           0
    7110 MEMB 101  PSM  C1F  C      0.550000       12.0110           0
    7111 MEMB 101  PSM  OF   O     -0.600000       15.9994           0
    7112 MEMB 101  PSM  C2F  CTL2  -0.070000       12.0110           0
    7113 MEMB 101  PSM  H2F  HAL2   0.060000        1.0080           0
    7114 MEMB 101  PSM  H2G  HAL2   0.060000        1.0080           0
    7115 MEMB 101  PSM  C3F  CTL2  -0.180000       12.0110           0
    7116 MEMB 101  PSM  H3F  HAL2   0.090000        1.0080           0
    7117 MEMB 101  PSM  H3G  HAL2   0.090000        1.0080           0
    7118 MEMB 101  PSM  C4F  CTL2  -0.180000       12.0110           0
    7119 MEMB 101  PSM  H4F  HAL2   0.090000        1.0080           0
    7120 MEMB 101  PSM  H4G  HAL2   0.090000        1.0080           0
    7121 MEMB 101  PSM  C5F  CTL2  -0.180000       12.0110           0
    7122 MEMB 101  PSM  H5F  HAL2   0.090000        1.0080           0
    7123 MEMB 101  PSM  H5G  HAL2   0.090000        1.0080           0
    7124 MEMB 101  PSM  C6F  CTL3  -0.270000       12.0110           0
    7125 MEMB 101  PSM  H6F  HAL3   0.090000        1.0080           0
    7126 MEMB 101  PSM  H6G  HAL3   0.090000        1.0080           0
    7127 MEMB 101  PSM  H6H  HAL3   0.090000        1.0080           0
    7128 MEMB 102  POPC N    NTL   -0.600000       14.0070           0
    7129 MEMB 102  POPC C12  CTL2  -0.100000       12.0110           0
    7130 MEMB 102  POPC H12A HL     0.250000        1.0080           0
    7131 MEMB 102  POPC H12B HL     0.250000        1.0080           0
    7132 MEMB 102  POPC C13  CTL5  -0.350000       12.0110           0
    7133 MEMB 102  POPC H13A HL     0.250000        1.0080           0
    7134 MEMB 102  POPC H13B HL     0.250000        1.0080           0
    7135 MEMB 102  POPC H13C HL     0.250000        1.0080           0
    7136 MEMB 102  POPC C14  CTL5  -0.350000       12.0110           0
    7137 MEMB 102  POPC H14A HL     0.250000        1.0080           0
    7138 MEMB 102  POPC H14B HL     0.250000        1.0080           0
    7139 MEMB 102  POPC H14C HL     0.250000        1.0080           0
    7140 MEMB 102  POPC C15  CTL5  -0.350000       12.0110           0
    7141 MEMB 102  POPC H15A HL     0.250000        1.0080           0
    7142 MEMB 102  POPC H15B HL     0.250000        1.0080           0
    7143 MEMB 102  POPC H15C HL     0.250000        1.0080           0
    7144 MEMB 102  POPC C11  CTL2  -0.080000       12.0110           0
    7145 MEMB 102  POPC H11A HAL2   0.090000        1.0080           0
    7146 MEMB 102  POPC H11B HAL2   0.090000        1.0080           0
    7147 MEMB 102  POPC P    PL     1.500000       30.9740           0
    7148 MEMB 102  POPC O13  O2L   -0.780000       15.9994           0
    7149 MEMB 102  POPC O14  O2L   -0.780000       15.9994           0
    7150 MEMB 102  POPC O12  OSLP  -0.570000       15.9994           0
    7151 MEMB 102  POPC O11  OSLP  -0.570000       15.9994           0
    7152 MEMB 102  POPC C1   CTL2  -0.080000       12.0110           0
    7153 MEMB 102  POPC HA   HAL2   0.090000        1.0080           0
    7154 MEMB 102  POPC HB   HAL2   0.090000        1.0080           0
    7155 MEMB 102  POPC C2   CTL1   0.170000       12.0110           0
    7156 MEMB 102  POPC HS   HAL1   0.090000        1.0080           0
    7157 MEMB 102  POPC O21  OSL   -0.490000       15.9994           0
    7158 MEMB 102  POPC C21  CL     0.900000       12.0110           0
    7159 MEMB 102  POPC O22  OBL   -0.630000       15.9994           0
    7160 MEMB 102  POPC C22  CTL2  -0.220000       12.0110           0
    7161 MEMB 102  POPC H2R  HAL2   0.090000        1.0080           0
    7162 MEMB 102  POPC H2S  HAL2   0.090000        1.0080           0
    7163 MEMB 102  POPC C3   CTL2   0.080000       12.0110           0
    7164 MEMB 102  POPC HX   HAL2   0.090000        1.0080           0
    7165 MEMB 102  POPC HY   HAL2   0.090000        1.0080           0
    7166 MEMB 102  POPC O31  OSL   -0.490000       15.9994           0
    7167 MEMB 102  POPC C31  CL     0.900000       12.0110           0
    7168 MEMB 102  POPC O32  OBL   -0.630000       15.9994           0
    7169 MEMB 102  POPC C32  CTL2  -0.220000       12.0110           0
    7170 MEMB 102  POPC H2X  HAL2   0.090000        1.0080           0
    7171 MEMB 102  POPC H2Y  HAL2   0.090000        1.0080           0
    7172 MEMB 102  POPC C23  CTL2  -0.180000       12.0110           0
    7173 MEMB 102  POPC H3R  HAL2   0.090000        1.0080           0
    7174 MEMB 102  POPC H3S  HAL2   0.090000        1.0080           0
    7175 MEMB 102  POPC C24  CTL2  -0.180000       12.0110           0
    7176 MEMB 102  POPC H4R  HAL2   0.090000        1.0080           0
    7177 MEMB 102  POPC H4S  HAL2   0.090000        1.0080           0
    7178 MEMB 102  POPC C25  CTL2  -0.180000       12.0110           0
    7179 MEMB 102  POPC H5R  HAL2   0.090000        1.0080           0
    7180 MEMB 102  POPC H5S  HAL2   0.090000        1.0080           0
    7181 MEMB 102  POPC C26  CTL3  -0.270000       12.0110           0
    7182 MEMB 102  POPC H6R  HAL3   0.090000        1.0080           0
    7183 MEMB 102  POPC H6S  HAL3   0.090000        1.0080           0
    7184 MEMB 102  POPC H6T  HAL3   0.090000        1.0080           0
    7185 MEMB 102  POPC C33  CTL2  -0.180000       12.0110           0
    7186 MEMB 102  POPC H3X  HAL2   0.090000        1.0080           0
    7187 MEMB 102  POPC H3Y  HAL2   0.090000        1.0080           0
    7188 MEMB 102  POPC C34  CTL2  -0.180000       12.0110           0
    7189 MEMB 102  POPC H4X  HAL2   0.090000        1.0080           0
    7190 MEMB 102  POPC H4Y  HAL2   0.090000        1.0080           0
    7191 MEMB 102  POPC C35  CTL2  -0.180000       12.0110           0
    7192 MEMB 102  POPC H5X  HAL2   0.090000        1.0080           0
    7193 MEMB 102  POPC H5Y  HAL2   0.090000        1.0080           0
    7194 MEMB 102  POPC C36  CTL3  -0.270000       12.0110           0
    7195 MEMB 102  POPC H6X  HAL3   0.090000        1.0080           0
    7196 MEMB 102  POPC H6Y  HAL3   0.090000        1.0080           0
    7197 MEMB 102  POPC H6Z  HAL3   0.090000        1.0080           0
    7198 MEMB 103  POPE N    NH3L  -0.300000       14.0070           0
    7199 MEMB 103  POPE HN1  HCL    0.330000        1.0080           0
    7200 MEMB 103  POPE HN2  HCL    0.330000        1.0080           0
    7201 MEMB 103  POPE HN3  HCL    0.330000        1.0080           0
    7202 MEMB 103  POPE C12  CTL2   0.130000       12.0110           0
    7203 MEMB 103  POPE H12A HAL2   0.090000        1.0080           0
    7204 MEMB 103  POPE H12B HAL2   0.090000        1.0080           0
    7205 MEMB 103  POPE C11  CTL2  -0.080000       12.0110           0
    7206 MEMB 103  POPE H11A HAL2   0.090000        1.0080           0
    7207 MEMB 103  POPE H11B HAL2   0.090000        1.0080           0
    7208 MEMB 103  POPE P    PL     1.500000       30.9740           0
    7209 MEMB 103  POPE O13  O2L   -0.780000       15.9994           0
    7210 MEMB 103  POPE O14  O2L   -0.780000       15.9994           0
    7211 MEMB 103  POPE O11  OSLP  -0.570000       15.9994           0
    7212 MEMB 103  POPE O12  OSLP  -0.570000       15.9994           0
    7213 MEMB 103  POPE C1   CTL2  -0.080000       12.0110           0
    7214 MEMB 103  POPE HA   HAL2   0.090000        1.0080           0
    7215 MEMB 103  POPE HB   HAL2   0.090000        1.0080           0
    7216 MEMB 103  POPE C2   CTL1   0.170000       12.0110           0
    7217 MEMB 103  POPE HS   HAL1   0.090000        1.0080           0
    7218 MEMB 103  POPE O21  OSL   -0.490000       15.9994           0
    7219 MEMB 103  POPE C21  CL     0.900000       12.0110           0
    7220 MEMB 103  POPE O22  OBL   -0.630000       15.9994           0
    7221 MEMB 103  POPE C22  CTL2  -0.220000       12.0110           0
    7222 MEMB 103  POPE H2R  HAL2   0.090000        1.0080           0
    7223 MEMB 103  POPE H2S  HAL2   0.090000        1.0080           0
    7224 MEMB 103  POPE C3   CTL2   0.080000       12.0110           0
    7225 MEMB 103  POPE HX   HAL2   0.090000        1.0080           0
    7226 MEMB 103  POPE HY   HAL2   0.090000        1.0080           0
    7227 MEMB 103  POPE O31  OSL   -0.490000       15.9994           0
    7228 MEMB 103  POPE C31  CL     0.900000       12.0110           0
    7229 MEMB 103  POPE O32  OBL   -0.630000       15.9994           0
    7230 MEMB 103  POPE C32  CTL2  -0.220000       12.0110           0
    7231 MEMB 103  POPE H2X  HAL2   0.090000        1.0080           0
    7232 MEMB 103  POPE H2Y  HAL2   0.090000        1.0080           0
    7233 MEMB 103  POPE C23  CTL2  -0.180000       12.0110           0
    7234 MEMB 103  POPE H3R  HAL2   0.090000        1.0080           0
    7235 MEMB 103  POPE H3S  HAL2   0.090000        1.0080           0
    7236 MEMB 103  POPE C24  CTL2  -0.180000       12.0110           0
    7237 MEMB 103  POPE H4R  HAL2   0.090000        1.0080           0
    7238 MEMB 103  POPE H4S  HAL2   0.090000        1.0080           0
    7239 MEMB 103  POPE C25  CTL2  -0.180000       12.0110           0
    7240 MEMB 103  POPE H5R  HAL2   0.090000        1.0080           0
    7241 MEMB 103  POPE H5S  HAL2   0.090000        1.0080           0
    7242 MEMB 103  POPE C26  CTL3  -0.270000       12.0110           0
    7243 MEMB 103  POPE H6R  HAL3   0.090000        1.0080           0
    7244 MEMB 103  POPE H6S  HAL3   0.090000        1.0080           0
    7245 MEMB 103  POPE H6T  HAL3   0.090000        1.0080           0
    7246 MEMB 103  POPE C33  CTL2  -0.180000       12.0110           0
    7247 MEMB 103  POPE H3X  HAL2   0.090000        1.0080           0
    7248 MEMB 103  POPE H3Y  HAL2   0.090000        1.0080           0
    7249 MEMB 103  POPE C34  CTL2  -0.180000       12.0110           0
    7250 MEMB 103  POPE H4X  HAL2   0.090000        1.0080           0
    7251 MEMB 103  POPE H4Y  HAL2   0.090000        1.0080           0
    7252 MEMB 103  POPE C35  CTL2  -0.180000       12.0110           0
    7253 MEMB 103  POPE H5X  HAL2   0.090000        1.0080           0
    7254 MEMB 103  POPE H5Y  HAL2   0.090000        1.0080           0
    7255 MEMB 103  POPE C36  CTL3  -0.270000       12.0110           0
    7256 MEMB 103  POPE H6X  HAL3   0.090000        1.0080           0
    7257 MEMB 103  POPE H6Y  HAL3   0.090000        1.0080           0
    7258 MEMB 103  POPE H6Z  HAL3   0.090000        1.0080           0
    7259 MEMB 104  POPC N    NTL   -0.600000       14.0070           0
    7260 MEMB 104  POPC C12  CTL2  -0.100000       12.0110           0
    7261 MEMB 104  POPC H12A HL     0.250000        1.0080           0
    7262 MEMB 104  POPC H12B HL     0.250000        1.0080           0
    7263 MEMB 104  POPC C13  CTL5  -0.350000       12.0110           0
    7264 MEMB 104  POPC H13A HL     0.250000        1.0080           0
    7265 MEMB 104  POPC H13B HL     0.250000        1.0080           0
    7266 MEMB 104  POPC H13C HL     0.250000        1.0080           0
    7267 MEMB 104  POPC C14  CTL5  -0.350000       12.0110           0
    7268 MEMB 104  POPC H14A HL     0.250000        1.0080           0
    7269 MEMB 104  POPC H14B HL     0.250000        1.0080           0
    7270 MEMB 104  POPC H14C HL     0.250000        1.0080           0
    7271 MEMB 104  POPC C15  CTL5  -0.350000       12.0110           0
    7272 MEMB 104  POPC H15A HL     0.250000        1.0080           0
    7273 MEMB 104  POPC H15B HL     0.250000        1.0080           0
    7274 MEMB 104  POPC H15C HL     0.250000        1.0080           0
    7275 MEMB 104  POPC C11  CTL2  -0.080000       12.0110           0
    7276 MEMB 104  POPC H11A HAL2   0.090000        1.0080           0
    7277 MEMB 104  POPC H11B HAL2   0.090000        1.0080           0
    7278 MEMB 104  POPC P    PL     1.500000       30.9740           0
    7279 MEMB 104  POPC O13  O2L   -0.780000       15.9994           0
    7280 MEMB 104  POPC O14  O2L   -0.780000       15.9994           0
    7281 MEMB 104  POPC O12  OSLP  -0.570000       15.9994           0
    7282 MEMB 104  POPC O11  OSLP  -0.570000       15.9994           0
    7283 MEMB 104  POPC C1   CTL2  -0.080000       12.0110           0
    7284 MEMB 104  POPC HA   HAL2   0.090000        1.0080           0
    7285 MEMB 104  POPC HB   HAL2   0.090000        1.0080           0
    7286 MEMB 104  POPC C2   CTL1   0.170000       12.0110           0
    7287 MEMB 104  POPC HS   HAL1   0.090000        1.0080           0
    7288 MEMB 104  POPC O21  OSL   -0.490000       15.9994           0
    7289 MEMB 104  POPC C21  CL     0.900000       12.0110           0
    7290 MEMB 104  POPC O22  OBL   -0.630000       15.9994           0
    7291 MEMB 104  POPC C22  CTL2  -0.220000       12.0110           0
    7292 MEMB 104  POPC H2R  HAL2   0.090000        1.0080           0
    7293 MEMB 104  POPC H2S  HAL2   0.090000        1.0080           0
    7294 MEMB 104  POPC C3   CTL2   0.080000       12.0110           0
    7295 MEMB 104  POPC HX   HAL2   0.090000        1.0080           0
    7296 MEMB 104  POPC HY   HAL2   0.090000        1.0080           0
    7297 MEMB 104  POPC O31  OSL   -0.490000       15.9994           0
    7298 MEMB 104  POPC C31  CL     0.900000       12.0110           0
    7299 MEMB 104  POPC O32  OBL   -0.630000       15.9994           0
    7300 MEMB 104  POPC C32  CTL2  -0.220000       12.0110           0
    7301 MEMB 104  POPC H2X  HAL2   0.090000        1.0080           0
    7302 MEMB 104  POPC H2Y  HAL2   0.090000        1.0080           0
    7303 MEMB 104  POPC C23  CTL2  -0.180000       12.0110           0
    7304 MEMB 104  POPC H3R  HAL2   0.090000        1.0080           0
    7305 MEMB 104  POPC H3S  HAL2   0.090000        1.0080           0
    7306 MEMB 104  POPC C24  CTL2  -0.180000       12.0110           0
    7307 MEMB 104  POPC H4R  HAL2   0.090000        1.0080           0
    7308 MEMB 104  POPC H4S  HAL2   0.090000        1.0080           0
    7309 MEMB 104  POPC C25  CTL2  -0.180000       12.0110           0
    7310 MEMB 104  POPC H5R  HAL2   0.090000        1.0080           0
    7311 MEMB 104  POPC H5S  HAL2   0.090000        1.0080           0
    7312 MEMB 104  POPC C26  CTL3  -0.270000       12.0110           0
    7313 MEMB 104  POPC H6R  HAL3   0.090000        1.0080           0
    7314 MEMB 104  POPC H6S  HAL3   0.090000        1.0080           0
    7315 MEMB 104  POPC H6T  HAL3   0.090000        1.0080           0
    7316 MEMB 104  POPC C33  CTL2  -0.180000       12.0110           0
    7317 MEMB 104  POPC H3X  HAL2   0.090000        1.0080           0
    7318 MEMB 104  POPC H3Y  HAL2   0.090000        1.0080           0
    7319 MEMB 104  POPC C34  CTL2  -0.180000       12.0110           0
    7320 MEMB 104  POPC H4X  HAL2   0.090000        1.0080           0
    7321 MEMB 104  POPC H4Y  HAL2   0.090000        1.0080           0
    7322 MEMB 104  POPC C35  CTL2  -0.180000       12.0110           0
    7323 MEMB 104  POPC H5X  HAL2   0.090000        1.0080           0
    7324 MEMB 104  POPC H5Y  HAL2   0.090000        1.0080           0
    7325 MEMB 104  POPC C36  CTL3  -0.270000       12.0110           0
    7326 MEMB 104  POPC H6X  HAL3   0.090000        1.0080           0
    7327 MEMB 104  POPC H6Y  HAL3   0.090000        1.0080           0
    7328 MEMB 104  POPC H6Z  HAL3   0.090000        1.0080           0
    7329 MEMB 105  POPE N    NH3L  -0.300000       14.0070           0
    7330 MEMB 105  POPE HN1  HCL    0.330000        1.0080           0
    7331 MEMB 105  POPE HN2  HCL    0.330000        1.0080           0
    7332 MEMB 105  POPE HN3  HCL    0.330000        1.0080           0
    7333 MEMB 105  POPE C12  CTL2   0.130000       12.0110           0
    7334 MEMB 105  POPE H12A HAL2   0.090000        1.0080           0
    7335 MEMB 105  POPE H12B HAL2   0.090000        1.0080           0
    7336 MEMB 105  POPE C11  CTL2  -0.080000       12.0110           0
    7337 MEMB 105  POPE H11A HAL2   0.090000        1.0080           0
    7338 MEMB 105  POPE H11B HAL2   0.090000        1.0080           0
    7339 MEMB 105  POPE P    PL     1.500000       30.9740           0
    7340 MEMB 105  POPE O13  O2L   -0.780000       15.9994           0
    7341 MEMB 105  POPE O14  O2L   -0.780000       15.9994           0
    7342 MEMB 105  POPE O11  OSLP  -0.570000       15.9994           0
    7343 MEMB 105  POPE O12  OSLP  -0.570000       15.9994           0
    7344 MEMB 105  POPE C1   CTL2  -0.080000       12.0110           0
    7345 MEMB 105  POPE HA   HAL2   0.090000        1.0080           0
    7346 MEMB 105  POPE HB   HAL2   0.090000        1.0080           0
    7347 MEMB 105  POPE C2   CTL1   0.170000       12.0110           0
    7348 MEMB 105  POPE HS   HAL1   0.090000        1.0080           0
    7349 MEMB 105  POPE O21  OSL   -0.490000       15.9994           0
    7350 MEMB 105  POPE C21  CL     0.900000       12.0110           0
    7351 MEMB 105  POPE O22  OBL   -0.630000       15.9994           0
    7352 MEMB 105  POPE C22  CTL2  -0.220000       12.0110           0
    7353 MEMB 105  POPE H2R  HAL2   0.090000        1.0080           0
    7354 MEMB 105  POPE H2S  HAL2   0.090000        1.0080           0
    7355 MEMB 105  POPE C3   CTL2   0.080000       12.0110           0
    7356 MEMB 105  POPE HX   HAL2   0.090000        1.0080           0
    7357 MEMB 105  POPE HY   HAL2   0.090000        1.0080           0
    7358 MEMB 105  POPE O31  OSL   -0.490000       15.9994           0
    7359 MEMB 105  POPE C31  CL     0.900000       12.0110           0
    7360 MEMB 105  POPE O32  OBL   -0.630000       15.9994           0
    7361 MEMB 105  POPE C32  CTL2  -0.220000       12.0110           0
    7362 MEMB 105  POPE H2X  HAL2   0.090000        1.0080           0
    7363 MEMB 105  POPE H2Y  HAL2   0.090000        1.0080           0
    7364 MEMB 105  POPE C23  CTL2  -0.180000       12.0110           0
    7365 MEMB 105  POPE H3R  HAL2   0.090000        1.0080           0
    7366 MEMB 105  POPE H3S  HAL2   0.090000        1.0080           0
    7367 MEMB 105  POPE C24  CTL2  -0.180000       12.0110           0
    7368 MEMB 105  POPE H4R  HAL2   0.090000        1.0080           0
    7369 MEMB 105  POPE H4S  HAL2   0.090000        1.0080           0
    7370 MEMB 105  POPE C25  CTL2  -0.180000       12.0110           0
    7371 MEMB 105  POPE H5R  HAL2   0.090000        1.0080           0
    7372 MEMB 105  POPE H5S  HAL2   0.090000        1.0080           0
    7373 MEMB 105  POPE C26  CTL3  -0.270000       12.0110           0
    7374 MEMB 105  POPE H6R  HAL3   0.090000        1.0080           0
    7375 MEMB 105  POPE H6S  HAL3   0.090000        1.0080           0
    7376 MEMB 105  POPE H6T  HAL3   0.090000        1.0080           0
    7377 MEMB 105  POPE C33  CTL2  -0.180000       12.0110           0
    7378 MEMB 105  POPE H3X  HAL2   0.090000        1.0080           0
    7379 MEMB 105  POPE H3Y  HAL2   0.090000        1.0080           0
    7380 MEMB 105  POPE C34  CTL2  -0.180000       12.0110           0
    7381 MEMB 105  POPE H4X  HAL2   0.090000        1.0080           0
    7382 MEMB 105  POPE H4Y  HAL2   0.090000        1.0080           0
    7383 MEMB 105  POPE C35  CTL2  -0.180000       12.0110           0
    7384 MEMB 105  POPE H5X  HAL2   0.090000        1.0080           0
    7385 MEMB 105  POPE H5Y  HAL2   0.090000        1.0080           0
    7386 MEMB 105  POPE C36  CTL3  -0.270000       12.0110           0
    7387 MEMB 105  POPE H6X  HAL3   0.090000        1.0080           0
    7388 MEMB 105  POPE H6Y  HAL3   0.090000        1.0080           0
    7389 MEMB 105  POPE H6Z  HAL3   0.090000        1.0080           0
    7390 MEMB 106  POPE N    NH3L  -0.300000       14.0070           0
    7391 MEMB 106  POPE HN1  HCL    0.330000        1.0080           0
    7392 MEMB 106  POPE HN2  HCL    0.330000        1.0080           0
    7393 MEMB 106  POPE HN3  HCL    0.330000        1.0080           0
    7394 MEMB 106  POPE C12  CTL2   0.130000       12.0110           0
    7395 MEMB 106  POPE H12A HAL2   0.090000        1.0080           0
    7396 MEMB 106  POPE H12B HAL2   0.090000        1.0080           0
    7397 MEMB 106  POPE C11  CTL2  -0.080000       12.0110           0
    7398 MEMB 106  POPE H11A HAL2   0.090000        1.0080           0
    7399 MEMB 106  POPE H11B HAL2   0.090000        1.0080           0
    7400 MEMB 106  POPE P    PL     1.500000       30.9740           0
    7401 MEMB 106  POPE O13  O2L   -0.780000       15.9994           0
    7402 MEMB 106  POPE O14  O2L   -0.780000       15.9994           0
    7403 MEMB 106  POPE O11  OSLP  -0.570000       15.9994           0
    7404 MEMB 106  POPE O12  OSLP  -0.570000       15.9994           0
    7405 MEMB 106  POPE C1   CTL2  -0.080000       12.0110           0
    7406 MEMB 106  POPE HA   HAL2   0.090000        1.0080           0
    7407 MEMB 106  POPE HB   HAL2   0.090000        1.0080           0
    7408 MEMB 106  POPE C2   CTL1   0.170000       12.0110           0
    7409 MEMB 106  POPE HS   HAL1   0.090000        1.0080           0
    7410 MEMB 106  POPE O21  OSL   -0.490000       15.9994           0
    7411 MEMB 106  POPE C21  CL     0.900000       12.0110           0
    7412 MEMB 106  POPE O22  OBL   -0.630000       15.9994           0
    7413 MEMB 106  POPE C22  CTL2  -0.220000       12.0110           0
    7414 MEMB 106  POPE H2R  HAL2   0.090000        1.0080           0
    7415 MEMB 106  POPE H2S  HAL2   0.090000        1.0080           0
    7416 MEMB 106  POPE C3   CTL2   0.080000       12.0110           0
    7417 MEMB 106  POPE HX   HAL2   0.090000        1.0080           0
    7418 MEMB 106  POPE HY   HAL2   0.090000        1.0080           0
    7419 MEMB 106  POPE O31  OSL   -0.490000       15.9994           0
    7420 MEMB 106  POPE C31  CL     0.900000       12.0110           0
    7421 MEMB 106  POPE O32  OBL   -0.630000       15.9994           0
    7422 MEMB 106  POPE C32  CTL2  -0.220000       12.0110           0
    7423 MEMB 106  POPE H2X  HAL2   0.090000        1.0080           0
    7424 MEMB 106  POPE H2Y  HAL2   0.090000        1.0080           0
    7425 MEMB 106  POPE C23  CTL2  -0.180000       12.0110           0
    7426 MEMB 106  POPE H3R  HAL2   0.090000        1.0080           0
    7427 MEMB 106  POPE H3S  HAL2   0.090000        1.0080           0
    7428 MEMB 106  POPE C24  CTL2  -0.180000       12.0110           0
    7429 MEMB 106  POPE H4R  HAL2   0.090000        1.0080           0
    7430 MEMB 106  POPE H4S  HAL2   0.090000        1.0080           0
    7431 MEMB 106  POPE C25  CTL2  -0.180000       12.0110           0
    7432 MEMB 106  POPE H5R  HAL2   0.090000        1.0080           0
    7433 MEMB 106  POPE H5S  HAL2   0.090000        1.0080           0
    7434 MEMB 106  POPE C26  CTL3  -0.270000       12.0110           0
    7435 MEMB 106  POPE H6R  HAL3   0.090000        1.0080           0
    7436 MEMB 106  POPE H6S  HAL3   0.090000        1.0080           0
    7437 MEMB 106  POPE H6T  HAL3   0.090000        1.0080           0
    7438 MEMB 106  POPE C33  CTL2  -0.180000       12.0110           0
    7439 MEMB 106  POPE H3X  HAL2   0.090000        1.0080           0
    7440 MEMB 106  POPE H3Y  HAL2   0.090000        1.0080           0
    7441 MEMB 106  POPE C34  CTL2  -0.180000       12.0110           0
    7442 MEMB 106  POPE H4X  HAL2   0.090000        1.0080           0
    7443 MEMB 106  POPE H4Y  HAL2   0.090000        1.0080           0
    7444 MEMB 106  POPE C35  CTL2  -0.180000       12.0110           0
    7445 MEMB 106  POPE H5X  HAL2   0.090000        1.0080           0
    7446 MEMB 106  POPE H5Y  HAL2   0.090000        1.0080           0
    7447 MEMB 106  POPE C36  CTL3  -0.270000       12.0110           0
    7448 MEMB 106  POPE H6X  HAL3   0.090000        1.0080           0
    7449 MEMB 106  POPE H6Y  HAL3   0.090000        1.0080           0
    7450 MEMB 106  POPE H6Z  HAL3   0.090000        1.0080           0
    7451 MEMB 107  PSM  N    NTL   -0.600000       14.0070           0
    7452 MEMB 107  PSM  C15  CTL5  -0.350000       12.0110           0
    7453 MEMB 107  PSM  H15A HL     0.250000        1.0080           0
    7454 MEMB 107  PSM  H15B HL     0.250000        1.0080           0
    7455 MEMB 107  PSM  H15C HL     0.250000        1.0080           0
    7456 MEMB 107  PSM  C14  CTL5  -0.350000       12.0110           0
    7457 MEMB 107  PSM  H14A HL     0.250000        1.0080           0
    7458 MEMB 107  PSM  H14B HL     0.250000        1.0080           0
    7459 MEMB 107  PSM  H14C HL     0.250000        1.0080           0
    7460 MEMB 107  PSM  C13  CTL5  -0.350000       12.0110           0
    7461 MEMB 107  PSM  H13A HL     0.250000        1.0080           0
    7462 MEMB 107  PSM  H13B HL     0.250000        1.0080           0
    7463 MEMB 107  PSM  H13C HL     0.250000        1.0080           0
    7464 MEMB 107  PSM  C12  CTL2  -0.100000       12.0110           0
    7465 MEMB 107  PSM  H12A HL     0.250000        1.0080           0
    7466 MEMB 107  PSM  H12B HL     0.250000        1.0080           0
    7467 MEMB 107  PSM  C11  CTL2  -0.080000       12.0110           0
    7468 MEMB 107  PSM  H11A HAL2   0.090000        1.0080           0
    7469 MEMB 107  PSM  H11B HAL2   0.090000        1.0080           0
    7470 MEMB 107  PSM  P    PL     1.500000       30.9740           0
    7471 MEMB 107  PSM  O13  O2L   -0.780000       15.9994           0
    7472 MEMB 107  PSM  O14  O2L   -0.780000       15.9994           0
    7473 MEMB 107  PSM  O11  OSLP  -0.570000       15.9994           0
    7474 MEMB 107  PSM  O12  OSLP  -0.570000       15.9994           0
    7475 MEMB 107  PSM  C1S  CTL2  -0.080000       12.0110           0
    7476 MEMB 107  PSM  H1S  HAL2   0.090000        1.0080           0
    7477 MEMB 107  PSM  H1T  HAL2   0.090000        1.0080           0
    7478 MEMB 107  PSM  NF   NHL   -0.700000       14.0070           0
    7479 MEMB 107  PSM  HNF  H      0.350000        1.0080           0
    7480 MEMB 107  PSM  C2S  CTL1   0.300000       12.0110           0
    7481 MEMB 107  PSM  H2S  HAL1   0.050000        1.0080           0
    7482 MEMB 107  PSM  C3S  CTO1   0.500000       12.0110           0
    7483 MEMB 107  PSM  H3S  HAL1  -0.110000        1.0080           0
    7484 MEMB 107  PSM  O3   OHL   -0.690000       15.9994           0
    7485 MEMB 107  PSM  HO3  HOL    0.300000        1.0080           0
    7486 MEMB 107  PSM  C4S  CEL3  -0.150000       12.0110           0
    7487 MEMB 107  PSM  H4S  HEL1   0.150000        1.0080           0
    7488 MEMB 107  PSM  C5S  CEL3  -0.150000       12.0110           0
    7489 MEMB 107  PSM  H5S  HEL1   0.150000        1.0080           0
    7490 MEMB 107  PSM  C6S  CTL3  -0.270000       12.0110           0
    7491 MEMB 107  PSM  H6S  HAL3   0.090000        1.0080           0
    7492 MEMB 107  PSM  H6T  HAL3   0.090000        1.0080           0
    7493 MEMB 107  PSM  H6U  HAL3   0.090000        1.0080           0
    7494 MEMB 107  PSM  C1F  C      0.550000       12.0110           0
    7495 MEMB 107  PSM  OF   O     -0.600000       15.9994           0
    7496 MEMB 107  PSM  C2F  CTL2  -0.070000       12.0110           0
    7497 MEMB 107  PSM  H2F  HAL2   0.060000        1.0080           0
    7498 MEMB 107  PSM  H2G  HAL2   0.060000        1.0080           0
    7499 MEMB 107  PSM  C3F  CTL2  -0.180000       12.0110           0
    7500 MEMB 107  PSM  H3F  HAL2   0.090000        1.0080           0
    7501 MEMB 107  PSM  H3G  HAL2   0.090000        1.0080           0
    7502 MEMB 107  PSM  C4F  CTL2  -0.180000       12.0110           0
    7503 MEMB 107  PSM  H4F  HAL2   0.090000        1.0080           0
    7504 MEMB 107  PSM  H4G  HAL2   0.090000        1.0080           0
    7505 MEMB 107  PSM  C5F  CTL2  -0.180000       12.0110           0
    7506 MEMB 107  PSM  H5F  HAL2   0.090000        1.0080           0
    7507 MEMB 107  PSM  H5G  HAL2   0.090000        1.0080           0
    7508 MEMB 107  PSM  C6F  CTL3  -0.270000       12.0110           0
    7509 MEMB 107  PSM  H6F  HAL3   0.090000        1.0080           0
    7510 MEMB 107  PSM  H6G  HAL3   0.090000        1.0080           0
    7511 MEMB 107  PSM  H6H  HAL3   0.090000        1.0080           0
    7512 MEMB 108  POPC N    NTL   -0.600000       14.0070           0
    7513 MEMB 108  POPC C12  CTL2  -0.100000       12.0110           0
    7514 MEMB 108  POPC H12A HL     0.250000        1.0080           0
    7515 MEMB 108  POPC H12B HL     0.250000        1.0080           0
    7516 MEMB 108  POPC C13  CTL5  -0.350000       12.0110           0
    7517 MEMB 108  POPC H13A HL     0.250000        1.0080           0
    7518 MEMB 108  POPC H13B HL     0.250000        1.0080           0
    7519 MEMB 108  POPC H13C HL     0.250000        1.0080           0
    7520 MEMB 108  POPC C14  CTL5  -0.350000       12.0110           0
    7521 MEMB 108  POPC H14A HL     0.250000        1.0080           0
    7522 MEMB 108  POPC H14B HL     0.250000        1.0080           0
    7523 MEMB 108  POPC H14C HL     0.250000        1.0080           0
    7524 MEMB 108  POPC C15  CTL5  -0.350000       12.0110           0
    7525 MEMB 108  POPC H15A HL     0.250000        1.0080           0
    7526 MEMB 108  POPC H15B HL     0.250000        1.0080           0
    7527 MEMB 108  POPC H15C HL     0.250000        1.0080           0
    7528 MEMB 108  POPC C11  CTL2  -0.080000       12.0110           0
    7529 MEMB 108  POPC H11A HAL2   0.090000        1.0080           0
    7530 MEMB 108  POPC H11B HAL2   0.090000        1.0080           0
    7531 MEMB 108  POPC P    PL     1.500000       30.9740           0
    7532 MEMB 108  POPC O13  O2L   -0.780000       15.9994           0
    7533 MEMB 108  POPC O14  O2L   -0.780000       15.9994           0
    7534 MEMB 108  POPC O12  OSLP  -0.570000       15.9994           0
    7535 MEMB 108  POPC O11  OSLP  -0.570000       15.9994           0
    7536 MEMB 108  POPC C1   CTL2  -0.080000       12.0110           0
    7537 MEMB 108  POPC HA   HAL2   0.090000        1.0080           0
    7538 MEMB 108  POPC HB   HAL2   0.090000        1.0080           0
    7539 MEMB 108  POPC C2   CTL1   0.170000       12.0110           0
    7540 MEMB 108  POPC HS   HAL1   0.090000        1.0080           0
    7541 MEMB 108  POPC O21  OSL   -0.490000       15.9994           0
    7542 MEMB 108  POPC C21  CL     0.900000       12.0110           0
    7543 MEMB 108  POPC O22  OBL   -0.630000       15.9994           0
    7544 MEMB 108  POPC C22  CTL2  -0.220000       12.0110           0
    7545 MEMB 108  POPC H2R  HAL2   0.090000        1.0080           0
    7546 MEMB 108  POPC H2S  HAL2   0.090000        1.0080           0
    7547 MEMB 108  POPC C3   CTL2   0.080000       12.0110           0
    7548 MEMB 108  POPC HX   HAL2   0.090000        1.0080           0
    7549 MEMB 108  POPC HY   HAL2   0.090000        1.0080           0
    7550 MEMB 108  POPC O31  OSL   -0.490000       15.9994           0
    7551 MEMB 108  POPC C31  CL     0.900000       12.0110           0
    7552 MEMB 108  POPC O32  OBL   -0.630000       15.9994           0
    7553 MEMB 108  POPC C32  CTL2  -0.220000       12.0110           0
    7554 MEMB 108  POPC H2X  HAL2   0.090000        1.0080           0
    7555 MEMB 108  POPC H2Y  HAL2   0.090000        1.0080           0
    7556 MEMB 108  POPC C23  CTL2  -0.180000       12.0110           0
    7557 MEMB 108  POPC H3R  HAL2   0.090000        1.0080           0
    7558 MEMB 108  POPC H3S  HAL2   0.090000        1.0080           0
    7559 MEMB 108  POPC C24  CTL2  -0.180000       12.0110           0
    7560 MEMB 108  POPC H4R  HAL2   0.090000        1.0080           0
    7561 MEMB 108  POPC H4S  HAL2   0.090000        1.0080           0
    7562 MEMB 108  POPC C25  CTL2  -0.180000       12.0110           0
    7563 MEMB 108  POPC H5R  HAL2   0.090000        1.0080           0
    7564 MEMB 108  POPC H5S  HAL2   0.090000        1.0080           0
    7565 MEMB 108  POPC C26  CTL3  -0.270000       12.0110           0
    7566 MEMB 108  POPC H6R  HAL3   0.090000        1.0080           0
    7567 MEMB 108  POPC H6S  HAL3   0.090000        1.0080           0
    7568 MEMB 108  POPC H6T  HAL3   0.090000        1.0080           0
    7569 MEMB 108  POPC C33  CTL2  -0.180000       12.0110           0
    7570 MEMB 108  POPC H3X  HAL2   0.090000        1.0080           0
    7571 MEMB 108  POPC H3Y  HAL2   0.090000        1.0080           0
    7572 MEMB 108  POPC C34  CTL2  -0.180000       12.0110           0
    7573 MEMB 108  POPC H4X  HAL2   0.090000        1.0080           0
    7574 MEMB 108  POPC H4Y  HAL2   0.090000        1.0080           0
    7575 MEMB 108  POPC C35  CTL2  -0.180000       12.0110           0
    7576 MEMB 108  POPC H5X  HAL2   0.090000        1.0080           0
    7577 MEMB 108  POPC H5Y  HAL2   0.090000        1.0080           0
    7578 MEMB 108  POPC C36  CTL3  -0.270000       12.0110           0
    7579 MEMB 108  POPC H6X  HAL3   0.090000        1.0080           0
    7580 MEMB 108  POPC H6Y  HAL3   0.090000        1.0080           0
    7581 MEMB 108  POPC H6Z  HAL3   0.090000        1.0080           0
    7582 MEMB 109  POPE N    NH3L  -0.300000       14.0070           0
    7583 MEMB 109  POPE HN1  HCL    0.330000        1.0080           0
    7584 MEMB 109  POPE HN2  HCL    0.330000        1.0080           0
    7585 MEMB 109  POPE HN3  HCL    0.330000        1.0080           0
    7586 MEMB 109  POPE C12  CTL2   0.130000       12.0110           0
    7587 MEMB 109  POPE H12A HAL2   0.090000        1.0080           0
    7588 MEMB 109  POPE H12B HAL2   0.090000        1.0080           0
    7589 MEMB 109  POPE C11  CTL2  -0.080000       12.0110           0
    7590 MEMB 109  POPE H11A HAL2   0.090000        1.0080           0
    7591 MEMB 109  POPE H11B HAL2   0.090000        1.0080           0
    7592 MEMB 109  POPE P    PL     1.500000       30.9740           0
    7593 MEMB 109  POPE O13  O2L   -0.780000       15.9994           0
    7594 MEMB 109  POPE O14  O2L   -0.780000       15.9994           0
    7595 MEMB 109  POPE O11  OSLP  -0.570000       15.9994           0
    7596 MEMB 109  POPE O12  OSLP  -0.570000       15.9994           0
    7597 MEMB 109  POPE C1   CTL2  -0.080000       12.0110           0
    7598 MEMB 109  POPE HA   HAL2   0.090000        1.0080           0
    7599 MEMB 109  POPE HB   HAL2   0.090000        1.0080           0
    7600 MEMB 109  POPE C2   CTL1   0.170000       12.0110           0
    7601 MEMB 109  POPE HS   HAL1   0.090000        1.0080           0
    7602 MEMB 109  POPE O21  OSL   -0.490000       15.9994           0
    7603 MEMB 109  POPE C21  CL     0.900000       12.0110           0
    7604 MEMB 109  POPE O22  OBL   -0.630000       15.9994           0
    7605 MEMB 109  POPE C22  CTL2  -0.220000       12.0110           0
    7606 MEMB 109  POPE H2R  HAL2   0.090000        1.0080           0
    7607 MEMB 109  POPE H2S  HAL2   0.090000        1.0080           0
    7608 MEMB 109  POPE C3   CTL2   0.080000       12.0110           0
    7609 MEMB 109  POPE HX   HAL2   0.090000        1.0080           0
    7610 MEMB 109  POPE HY   HAL2   0.090000        1.0080           0
    7611 MEMB 109  POPE O31  OSL   -0.490000       15.9994           0
    7612 MEMB 109  POPE C31  CL     0.900000       12.0110           0
    7613 MEMB 109  POPE O32  OBL   -0.630000       15.9994           0
    7614 MEMB 109  POPE C32  CTL2  -0.220000       12.0110           0
    7615 MEMB 109  POPE H2X  HAL2   0.090000        1.0080           0
    7616 MEMB 109  POPE H2Y  HAL2   0.090000        1.0080           0
    7617 MEMB 109  POPE C23  CTL2  -0.180000       12.0110           0
    7618 MEMB 109  POPE H3R  HAL2   0.090000        1.0080           0
    7619 MEMB 109  POPE H3S  HAL2   0.090000        1.0080           0
    7620 MEMB 109  POPE C24  CTL2  -0.180000       12.0110           0
    7621 MEMB 109  POPE H4R  HAL2   0.090000        1.0080           0
    7622 MEMB 109  POPE H4S  HAL2   0.090000        1.0080           0
    7623 MEMB 109  POPE C25  CTL2  -0.180000       12.0110           0
    7624 MEMB 109  POPE H5R  HAL2   0.090000        1.0080           0
    7625 MEMB 109  POPE H5S  HAL2   0.090000        1.0080           0
    7626 MEMB 109  POPE C26  CTL3  -0.270000       12.0110           0
    7627 MEMB 109  POPE H6R  HAL3   0.090000        1.0080           0
    7628 MEMB 109  POPE H6S  HAL3   0.090000        1.0080           0
    7629 MEMB 109  POPE H6T  HAL3   0.090000        1.0080           0
    7630 MEMB 109  POPE C33  CTL2  -0.180000       12.0110           0
    7631 MEMB 109  POPE H3X  HAL2   0.090000        1.0080           0
    7632 MEMB 109  POPE H3Y  HAL2   0.090000        1.0080           0
    7633 MEMB 109  POPE C34  CTL2  -0.180000       12.0110           0
    7634 MEMB 109  POPE H4X  HAL2   0.090000        1.0080           0
    7635 MEMB 109  POPE H4Y  HAL2   0.090000        1.0080           0
    7636 MEMB 109  POPE C35  CTL2  -0.180000       12.0110           0
    7637 MEMB 109  POPE H5X  HAL2   0.090000        1.0080           0
    7638 MEMB 109  POPE H5Y  HAL2   0.090000        1.0080           0
    7639 MEMB 109  POPE C36  CTL3  -0.270000       12.0110           0
    7640 MEMB 109  POPE H6X  HAL3   0.090000        1.0080           0
    7641 MEMB 109  POPE H6Y  HAL3   0.090000        1.0080           0
    7642 MEMB 109  POPE H6Z  HAL3   0.090000        1.0080           0
    7643 MEMB 110  POPC N    NTL   -0.600000       14.0070           0
    7644 MEMB 110  POPC C12  CTL2  -0.100000       12.0110           0
    7645 MEMB 110  POPC H12A HL     0.250000        1.0080           0
    7646 MEMB 110  POPC H12B HL     0.250000        1.0080           0
    7647 MEMB 110  POPC C13  CTL5  -0.350000       12.0110           0
    7648 MEMB 110  POPC H13A HL     0.250000        1.0080           0
    7649 MEMB 110  POPC H13B HL     0.250000        1.0080           0
    7650 MEMB 110  POPC H13C HL     0.250000        1.0080           0
    7651 MEMB 110  POPC C14  CTL5  -0.350000       12.0110           0
    7652 MEMB 110  POPC H14A HL     0.250000        1.0080           0
    7653 MEMB 110  POPC H14B HL     0.250000        1.0080           0
    7654 MEMB 110  POPC H14C HL     0.250000        1.0080           0
    7655 MEMB 110  POPC C15  CTL5  -0.350000       12.0110           0
    7656 MEMB 110  POPC H15A HL     0.250000        1.0080           0
    7657 MEMB 110  POPC H15B HL     0.250000        1.0080           0
    7658 MEMB 110  POPC H15C HL     0.250000        1.0080           0
    7659 MEMB 110  POPC C11  CTL2  -0.080000       12.0110           0
    7660 MEMB 110  POPC H11A HAL2   0.090000        1.0080           0
    7661 MEMB 110  POPC H11B HAL2   0.090000        1.0080           0
    7662 MEMB 110  POPC P    PL     1.500000       30.9740           0
    7663 MEMB 110  POPC O13  O2L   -0.780000       15.9994           0
    7664 MEMB 110  POPC O14  O2L   -0.780000       15.9994           0
    7665 MEMB 110  POPC O12  OSLP  -0.570000       15.9994           0
    7666 MEMB 110  POPC O11  OSLP  -0.570000       15.9994           0
    7667 MEMB 110  POPC C1   CTL2  -0.080000       12.0110           0
    7668 MEMB 110  POPC HA   HAL2   0.090000        1.0080           0
    7669 MEMB 110  POPC HB   HAL2   0.090000        1.0080           0
    7670 MEMB 110  POPC C2   CTL1   0.170000       12.0110           0
    7671 MEMB 110  POPC HS   HAL1   0.090000        1.0080           0
    7672 MEMB 110  POPC O21  OSL   -0.490000       15.9994           0
    7673 MEMB 110  POPC C21  CL     0.900000       12.0110           0
    7674 MEMB 110  POPC O22  OBL   -0.630000       15.9994           0
    7675 MEMB 110  POPC C22  CTL2  -0.220000       12.0110           0
    7676 MEMB 110  POPC H2R  HAL2   0.090000        1.0080           0
    7677 MEMB 110  POPC H2S  HAL2   0.090000        1.0080           0
    7678 MEMB 110  POPC C3   CTL2   0.080000       12.0110           0
    7679 MEMB 110  POPC HX   HAL2   0.090000        1.0080           0
    7680 MEMB 110  POPC HY   HAL2   0.090000        1.0080           0
    7681 MEMB 110  POPC O31  OSL   -0.490000       15.9994           0
    7682 MEMB 110  POPC C31  CL     0.900000       12.0110           0
    7683 MEMB 110  POPC O32  OBL   -0.630000       15.9994           0
    7684 MEMB 110  POPC C32  CTL2  -0.220000       12.0110           0
    7685 MEMB 110  POPC H2X  HAL2   0.090000        1.0080           0
    7686 MEMB 110  POPC H2Y  HAL2   0.090000        1.0080           0
    7687 MEMB 110  POPC C23  CTL2  -0.180000       12.0110           0
    7688 MEMB 110  POPC H3R  HAL2   0.090000        1.0080           0
    7689 MEMB 110  POPC H3S  HAL2   0.090000        1.0080           0
    7690 MEMB 110  POPC C24  CTL2  -0.180000       12.0110           0
    7691 MEMB 110  POPC H4R  HAL2   0.090000        1.0080           0
    7692 MEMB 110  POPC H4S  HAL2   0.090000        1.0080           0
    7693 MEMB 110  POPC C25  CTL2  -0.180000       12.0110           0
    7694 MEMB 110  POPC H5R  HAL2   0.090000        1.0080           0
    7695 MEMB 110  POPC H5S  HAL2   0.090000        1.0080           0
    7696 MEMB 110  POPC C26  CTL3  -0.270000       12.0110           0
    7697 MEMB 110  POPC H6R  HAL3   0.090000        1.0080           0
    7698 MEMB 110  POPC H6S  HAL3   0.090000        1.0080           0
    7699 MEMB 110  POPC H6T  HAL3   0.090000        1.0080           0
    7700 MEMB 110  POPC C33  CTL2  -0.180000       12.0110           0
    7701 MEMB 110  POPC H3X  HAL2   0.090000        1.0080           0
    7702 MEMB 110  POPC H3Y  HAL2   0.090000        1.0080           0
    7703 MEMB 110  POPC C34  CTL2  -0.180000       12.0110           0
    7704 MEMB 110  POPC H4X  HAL2   0.090000        1.0080           0
    7705 MEMB 110  POPC H4Y  HAL2   0.090000        1.0080           0
    7706 MEMB 110  POPC C35  CTL2  -0.180000       12.0110           0
    7707 MEMB 110  POPC H5X  HAL2   0.090000        1.0080           0
    7708 MEMB 110  POPC H5Y  HAL2   0.090000        1.0080           0
    7709 MEMB 110  POPC C36  CTL3  -0.270000       12.0110           0
    7710 MEMB 110  POPC H6X  HAL3   0.090000        1.0080           0
    7711 MEMB 110  POPC H6Y  HAL3   0.090000        1.0080           0
    7712 MEMB 110  POPC H6Z  HAL3   0.090000        1.0080           0
    7713 MEMB 111  PSM  N    NTL   -0.600000       14.0070           0
    7714 MEMB 111  PSM  C15  CTL5  -0.350000       12.0110           0
    7715 MEMB 111  PSM  H15A HL     0.250000        1.0080           0
    7716 MEMB 111  PSM  H15B HL     0.250000        1.0080           0
    7717 MEMB 111  PSM  H15C HL     0.250000        1.0080           0
    7718 MEMB 111  PSM  C14  CTL5  -0.350000       12.0110           0
    7719 MEMB 111  PSM  H14A HL     0.250000        1.0080           0
    7720 MEMB 111  PSM  H14B HL     0.250000        1.0080           0
    7721 MEMB 111  PSM  H14C HL     0.250000        1.0080           0
    7722 MEMB 111  PSM  C13  CTL5  -0.350000       12.0110           0
    7723 MEMB 111  PSM  H13A HL     0.250000        1.0080           0
    7724 MEMB 111  PSM  H13B HL     0.250000        1.0080           0
    7725 MEMB 111  PSM  H13C HL     0.250000        1.0080           0
    7726 MEMB 111  PSM  C12  CTL2  -0.100000       12.0110           0
    7727 MEMB 111  PSM  H12A HL     0.250000        1.0080           0
    7728 MEMB 111  PSM  H12B HL     0.250000        1.0080           0
    7729 MEMB 111  PSM  C11  CTL2  -0.080000       12.0110           0
    7730 MEMB 111  PSM  H11A HAL2   0.090000        1.0080           0
    7731 MEMB 111  PSM  H11B HAL2   0.090000        1.0080           0
    7732 MEMB 111  PSM  P    PL     1.500000       30.9740           0
    7733 MEMB 111  PSM  O13  O2L   -0.780000       15.9994           0
    7734 MEMB 111  PSM  O14  O2L   -0.780000       15.9994           0
    7735 MEMB 111  PSM  O11  OSLP  -0.570000       15.9994           0
    7736 MEMB 111  PSM  O12  OSLP  -0.570000       15.9994           0
    7737 MEMB 111  PSM  C1S  CTL2  -0.080000       12.0110           0
    7738 MEMB 111  PSM  H1S  HAL2   0.090000        1.0080           0
    7739 MEMB 111  PSM  H1T  HAL2   0.090000        1.0080           0
    7740 MEMB 111  PSM  NF   NHL   -0.700000       14.0070           0
    7741 MEMB 111  PSM  HNF  H      0.350000        1.0080           0
    7742 MEMB 111  PSM  C2S  CTL1   0.300000       12.0110           0
    7743 MEMB 111  PSM  H2S  HAL1   0.050000        1.0080           0
    7744 MEMB 111  PSM  C3S  CTO1   0.500000       12.0110           0
    7745 MEMB 111  PSM  H3S  HAL1  -0.110000        1.0080           0
    7746 MEMB 111  PSM  O3   OHL   -0.690000       15.9994           0
    7747 MEMB 111  PSM  HO3  HOL    0.300000        1.0080           0
    7748 MEMB 111  PSM  C4S  CEL3  -0.150000       12.0110           0
    7749 MEMB 111  PSM  H4S  HEL1   0.150000        1.0080           0
    7750 MEMB 111  PSM  C5S  CEL3  -0.150000       12.0110           0
    7751 MEMB 111  PSM  H5S  HEL1   0.150000        1.0080           0
    7752 MEMB 111  PSM  C6S  CTL3  -0.270000       12.0110           0
    7753 MEMB 111  PSM  H6S  HAL3   0.090000        1.0080           0
    7754 MEMB 111  PSM  H6T  HAL3   0.090000        1.0080           0
    7755 MEMB 111  PSM  H6U  HAL3   0.090000        1.0080           0
    7756 MEMB 111  PSM  C1F  C      0.550000       12.0110           0
    7757 MEMB 111  PSM  OF   O     -0.600000       15.9994           0
    7758 MEMB 111  PSM  C2F  CTL2  -0.070000       12.0110           0
    7759 MEMB 111  PSM  H2F  HAL2   0.060000        1.0080           0
    7760 MEMB 111  PSM  H2G  HAL2   0.060000        1.0080           0
    7761 MEMB 111  PSM  C3F  CTL2  -0.180000       12.0110           0
    7762 MEMB 111  PSM  H3F  HAL2   0.090000        1.0080           0
    7763 MEMB 111  PSM  H3G  HAL2   0.090000        1.0080           0
    7764 MEMB 111  PSM  C4F  CTL2  -0.180000       12.0110           0
    7765 MEMB 111  PSM  H4F  HAL2   0.090000        1.0080           0
    7766 MEMB 111  PSM  H4G  HAL2   0.090000        1.0080           0
    7767 MEMB 111  PSM  C5F  CTL2  -0.180000       12.0110           0
    7768 MEMB 111  PSM  H5F  HAL2   0.090000        1.0080           0
    7769 MEMB 111  PSM  H5G  HAL2   0.090000        1.0080           0
    7770 MEMB 111  PSM  C6F  CTL3  -0.270000       12.0110           0
    7771 MEMB 111  PSM  H6F  HAL3   0.090000        1.0080           0
    7772 MEMB 111  PSM  H6G  HAL3   0.090000        1.0080           0
    7773 MEMB 111  PSM  H6H  HAL3   0.090000        1.0080           0
    7774 MEMB 112  POPC N    NTL   -0.600000       14.0070           0
    7775 MEMB 112  POPC C12  CTL2  -0.100000       12.0110           0
    7776 MEMB 112  POPC H12A HL     0.250000        1.0080           0
    7777 MEMB 112  POPC H12B HL     0.250000        1.0080           0
    7778 MEMB 112  POPC C13  CTL5  -0.350000       12.0110           0
    7779 MEMB 112  POPC H13A HL     0.250000        1.0080           0
    7780 MEMB 112  POPC H13B HL     0.250000        1.0080           0
    7781 MEMB 112  POPC H13C HL     0.250000        1.0080           0
    7782 MEMB 112  POPC C14  CTL5  -0.350000       12.0110           0
    7783 MEMB 112  POPC H14A HL     0.250000        1.0080           0
    7784 MEMB 112  POPC H14B HL     0.250000        1.0080           0
    7785 MEMB 112  POPC H14C HL     0.250000        1.0080           0
    7786 MEMB 112  POPC C15  CTL5  -0.350000       12.0110           0
    7787 MEMB 112  POPC H15A HL     0.250000        1.0080           0
    7788 MEMB 112  POPC H15B HL     0.250000        1.0080           0
    7789 MEMB 112  POPC H15C HL     0.250000        1.0080           0
    7790 MEMB 112  POPC C11  CTL2  -0.080000       12.0110           0
    7791 MEMB 112  POPC H11A HAL2   0.090000        1.0080           0
    7792 MEMB 112  POPC H11B HAL2   0.090000        1.0080           0
    7793 MEMB 112  POPC P    PL     1.500000       30.9740           0
    7794 MEMB 112  POPC O13  O2L   -0.780000       15.9994           0
    7795 MEMB 112  POPC O14  O2L   -0.780000       15.9994           0
    7796 MEMB 112  POPC O12  OSLP  -0.570000       15.9994           0
    7797 MEMB 112  POPC O11  OSLP  -0.570000       15.9994           0
    7798 MEMB 112  POPC C1   CTL2  -0.080000       12.0110           0
    7799 MEMB 112  POPC HA   HAL2   0.090000        1.0080           0
    7800 MEMB 112  POPC HB   HAL2   0.090000        1.0080           0
    7801 MEMB 112  POPC C2   CTL1   0.170000       12.0110           0
    7802 MEMB 112  POPC HS   HAL1   0.090000        1.0080           0
    7803 MEMB 112  POPC O21  OSL   -0.490000       15.9994           0
    7804 MEMB 112  POPC C21  CL     0.900000       12.0110           0
    7805 MEMB 112  POPC O22  OBL   -0.630000       15.9994           0
    7806 MEMB 112  POPC C22  CTL2  -0.220000       12.0110           0
    7807 MEMB 112  POPC H2R  HAL2   0.090000        1.0080           0
    7808 MEMB 112  POPC H2S  HAL2   0.090000        1.0080           0
    7809 MEMB 112  POPC C3   CTL2   0.080000       12.0110           0
    7810 MEMB 112  POPC HX   HAL2   0.090000        1.0080           0
    7811 MEMB 112  POPC HY   HAL2   0.090000        1.0080           0
    7812 MEMB 112  POPC O31  OSL   -0.490000       15.9994           0
    7813 MEMB 112  POPC C31  CL     0.900000       12.0110           0
    7814 MEMB 112  POPC O32  OBL   -0.630000       15.9994           0
    7815 MEMB 112  POPC C32  CTL2  -0.220000       12.0110           0
    7816 MEMB 112  POPC H2X  HAL2   0.090000        1.0080           0
    7817 MEMB 112  POPC H2Y  HAL2   0.090000        1.0080           0
    7818 MEMB 112  POPC C23  CTL2  -0.180000       12.0110           0
    7819 MEMB 112  POPC H3R  HAL2   0.090000        1.0080           0
    7820 MEMB 112  POPC H3S  HAL2   0.090000        1.0080           0
    7821 MEMB 112  POPC C24  CTL2  -0.180000       12.0110           0
    7822 MEMB 112  POPC H4R  HAL2   0.090000        1.0080           0
    7823 MEMB 112  POPC H4S  HAL2   0.090000        1.0080           0
    7824 MEMB 112  POPC C25  CTL2  -0.180000       12.0110           0
    7825 MEMB 112  POPC H5R  HAL2   0.090000        1.0080           0
    7826 MEMB 112  POPC H5S  HAL2   0.090000        1.0080           0
    7827 MEMB 112  POPC C26  CTL3  -0.270000       12.0110           0
    7828 MEMB 112  POPC H6R  HAL3   0.090000        1.0080           0
    7829 MEMB 112  POPC H6S  HAL3   0.090000        1.0080           0
    7830 MEMB 112  POPC H6T  HAL3   0.090000        1.0080           0
    7831 MEMB 112  POPC C33  CTL2  -0.180000       12.0110           0
    7832 MEMB 112  POPC H3X  HAL2   0.090000        1.0080           0
    7833 MEMB 112  POPC H3Y  HAL2   0.090000        1.0080           0
    7834 MEMB 112  POPC C34  CTL2  -0.180000       12.0110           0
    7835 MEMB 112  POPC H4X  HAL2   0.090000        1.0080           0
    7836 MEMB 112  POPC H4Y  HAL2   0.090000        1.0080           0
    7837 MEMB 112  POPC C35  CTL2  -0.180000       12.0110           0
    7838 MEMB 112  POPC H5X  HAL2   0.090000        1.0080           0
    7839 MEMB 112  POPC H5Y  HAL2   0.090000        1.0080           0
    7840 MEMB 112  POPC C36  CTL3  -0.270000       12.0110           0
    7841 MEMB 112  POPC H6X  HAL3   0.090000        1.0080           0
    7842 MEMB 112  POPC H6Y  HAL3   0.090000        1.0080           0
    7843 MEMB 112  POPC H6Z  HAL3   0.090000        1.0080           0
    7844 MEMB 113  POPS N    NH3L  -0.300000       14.0070           0
    7845 MEMB 113  POPS HN1  HCL    0.330000        1.0080           0
    7846 MEMB 113  POPS HN2  HCL    0.330000        1.0080           0
    7847 MEMB 113  POPS HN3  HCL    0.330000        1.0080           0
    7848 MEMB 113  POPS C12  CTL1   0.210000       12.0110           0
    7849 MEMB 113  POPS H12A HBL    0.100000        1.0080           0
    7850 MEMB 113  POPS C13  CCL    0.340000       12.0110           0
    7851 MEMB 113  POPS O13A OCL   -0.670000       15.9994           0
    7852 MEMB 113  POPS O13B OCL   -0.670000       15.9994           0
    7853 MEMB 113  POPS C11  CTL2  -0.080000       12.0110           0
    7854 MEMB 113  POPS H11A HAL2   0.090000        1.0080           0
    7855 MEMB 113  POPS H11B HAL2   0.090000        1.0080           0
    7856 MEMB 113  POPS P    PL     1.500000       30.9740           0
    7857 MEMB 113  POPS O13  O2L   -0.780000       15.9994           0
    7858 MEMB 113  POPS O14  O2L   -0.780000       15.9994           0
    7859 MEMB 113  POPS O12  OSLP  -0.570000       15.9994           0
    7860 MEMB 113  POPS O11  OSLP  -0.570000       15.9994           0
    7861 MEMB 113  POPS C1   CTL2  -0.080000       12.0110           0
    7862 MEMB 113  POPS HA   HAL2   0.090000        1.0080           0
    7863 MEMB 113  POPS HB   HAL2   0.090000        1.0080           0
    7864 MEMB 113  POPS C2   CTL1   0.170000       12.0110           0
    7865 MEMB 113  POPS HS   HAL1   0.090000        1.0080           0
    7866 MEMB 113  POPS O21  OSL   -0.490000       15.9994           0
    7867 MEMB 113  POPS C21  CL     0.900000       12.0110           0
    7868 MEMB 113  POPS O22  OBL   -0.630000       15.9994           0
    7869 MEMB 113  POPS C22  CTL2  -0.220000       12.0110           0
    7870 MEMB 113  POPS H2R  HAL2   0.090000        1.0080           0
    7871 MEMB 113  POPS H2S  HAL2   0.090000        1.0080           0
    7872 MEMB 113  POPS C3   CTL2   0.080000       12.0110           0
    7873 MEMB 113  POPS HX   HAL2   0.090000        1.0080           0
    7874 MEMB 113  POPS HY   HAL2   0.090000        1.0080           0
    7875 MEMB 113  POPS O31  OSL   -0.490000       15.9994           0
    7876 MEMB 113  POPS C31  CL     0.900000       12.0110           0
    7877 MEMB 113  POPS O32  OBL   -0.630000       15.9994           0
    7878 MEMB 113  POPS C32  CTL2  -0.220000       12.0110           0
    7879 MEMB 113  POPS H2X  HAL2   0.090000        1.0080           0
    7880 MEMB 113  POPS H2Y  HAL2   0.090000        1.0080           0
    7881 MEMB 113  POPS C23  CTL2  -0.180000       12.0110           0
    7882 MEMB 113  POPS H3R  HAL2   0.090000        1.0080           0
    7883 MEMB 113  POPS H3S  HAL2   0.090000        1.0080           0
    7884 MEMB 113  POPS C24  CTL2  -0.180000       12.0110           0
    7885 MEMB 113  POPS H4R  HAL2   0.090000        1.0080           0
    7886 MEMB 113  POPS H4S  HAL2   0.090000        1.0080           0
    7887 MEMB 113  POPS C25  CTL2  -0.180000       12.0110           0
    7888 MEMB 113  POPS H5R  HAL2   0.090000        1.0080           0
    7889 MEMB 113  POPS H5S  HAL2   0.090000        1.0080           0
    7890 MEMB 113  POPS C26  CTL3  -0.270000       12.0110           0
    7891 MEMB 113  POPS H6R  HAL3   0.090000        1.0080           0
    7892 MEMB 113  POPS H6S  HAL3   0.090000        1.0080           0
    7893 MEMB 113  POPS H6T  HAL3   0.090000        1.0080           0
    7894 MEMB 113  POPS C33  CTL2  -0.180000       12.0110           0
    7895 MEMB 113  POPS H3X  HAL2   0.090000        1.0080           0
    7896 MEMB 113  POPS H3Y  HAL2   0.090000        1.0080           0
    7897 MEMB 113  POPS C34  CTL2  -0.180000       12.0110           0
    7898 MEMB 113  POPS H4X  HAL2   0.090000        1.0080           0
    7899 MEMB 113  POPS H4Y  HAL2   0.090000        1.0080           0
    7900 MEMB 113  POPS C35  CTL2  -0.180000       12.0110           0
    7901 MEMB 113  POPS H5X  HAL2   0.090000        1.0080           0
    7902 MEMB 113  POPS H5Y  HAL2   0.090000        1.0080           0
    7903 MEMB 113  POPS C36  CTL3  -0.270000       12.0110           0
    7904 MEMB 113  POPS H6X  HAL3   0.090000        1.0080           0
    7905 MEMB 113  POPS H6Y  HAL3   0.090000        1.0080           0
    7906 MEMB 113  POPS H6Z  HAL3   0.090000        1.0080           0
    7907 TIP3 1    TIP3 OH2  OT    -0.834000       15.9994           0
    7908 TIP3 1    TIP3 H1   HT     0.417000        1.0080           0
    7909 TIP3 1    TIP3 H2   HT     0.417000        1.0080           0
    7910 TIP3 2    TIP3 OH2  OT    -0.834000       15.9994           0
    7911 TIP3 2    TIP3 H1   HT     0.417000        1.0080           0
    7912 TIP3 2    TIP3 H2   HT     0.417000        1.0080           0
    7913 TIP3 3    TIP3 OH2  OT    -0.834000       15.9994           0
    7914 TIP3 3    TIP3 H1   HT     0.417000        1.0080           0
    7915 TIP3 3    TIP3 H2   HT     0.417000        1.0080           0
    7916 TIP3 4    TIP3 OH2  OT    -0.834000       15.9994           0
    7917 TIP3 4    TIP3 H1   HT     0.417000        1.0080           0
    7918 TIP3 4    TIP3 H2   HT     0.417000        1.0080           0
    7919 TIP3 5    TIP3 OH2  OT    -0.834000       15.9994           0
    7920 TIP3 5    TIP3 H1   HT     0.417000        1.0080           0
    7921 TIP3 5    TIP3 H2   HT     0.417000        1.0080           0
    7922 TIP3 6    TIP3 OH2  OT    -0.834000       15.9994           0
    7923 TIP3 6    TIP3 H1   HT     0.417000        1.0080           0
    7924 TIP3 6    TIP3 H2   HT     0.417000        1.0080           0
    7925 TIP3 7    TIP3 OH2  OT    -0.834000       15.9994           0
    7926 TIP3 7    TIP3 H1   HT     0.417000        1.0080           0
    7927 TIP3 7    TIP3 H2   HT     0.417000        1.0080           0
    7928 TIP3 8    TIP3 OH2  OT    -0.834000       15.9994           0
    7929 TIP3 8    TIP3 H1   HT     0.417000        1.0080           0
    7930 TIP3 8    TIP3 H2   HT     0.417000        1.0080           0
    7931 TIP3 9    TIP3 OH2  OT    -0.834000       15.9994           0
    7932 TIP3 9    TIP3 H1   HT     0.417000        1.0080           0
    7933 TIP3 9    TIP3 H2   HT     0.417000        1.0080           0
    7934 TIP3 10   TIP3 OH2  OT    -0.834000       15.9994           0
    7935 TIP3 10   TIP3 H1   HT     0.417000        1.0080           0
    7936 TIP3 10   TIP3 H2   HT     0.417000        1.0080           0
    7937 TIP3 11   TIP3 OH2  OT    -0.834000       15.9994           0
    7938 TIP3 11   TIP3 H1   HT     0.417000        1.0080           0
    7939 TIP3 11   TIP3 H2   HT     0.417000        1.0080           0
    7940 TIP3 12   TIP3 OH2  OT    -0.834000       15.9994           0
    7941 TIP3 12   TIP3 H1   HT     0.417000        1.0080           0
    7942 TIP3 12   TIP3 H2   HT     0.417000        1.0080           0
    7943 TIP3 13   TIP3 OH2  OT    -0.834000       15.9994           0
    7944 TIP3 13   TIP3 H1   HT     0.417000        1.0080           0
    7945 TIP3 13   TIP3 H2   HT     0.417000        1.0080           0
    7946 TIP3 14   TIP3 OH2  OT    -0.834000       15.9994           0
    7947 TIP3 14   TIP3 H1   HT     0.417000        1.0080           0
    7948 TIP3 14   TIP3 H2   HT     0.417000        1.0080           0
    7949 TIP3 15   TIP3 OH2  OT    -0.834000       15.9994           0
    7950 TIP3 15   TIP3 H1   HT     0.417000        1.0080           0
    7951 TIP3 15   TIP3 H2   HT     0.417000        1.0080           0
    7952 TIP3 16   TIP3 OH2  OT    -0.834000       15.9994           0
    7953 TIP3 16   TIP3 H1   HT     0.417000        1.0080           0
    7954 TIP3 16   TIP3 H2   HT     0.417000        1.0080           0
    7955 TIP3 17   TIP3 OH2  OT    -0.834000       15.9994           0
    7956 TIP3 17   TIP3 H1   HT     0.417000        1.0080           0
    7957 TIP3 17   TIP3 H2   HT     0.417000        1.0080           0
    7958 TIP3 18   TIP3 OH2  OT    -0.834000       15.9994           0
    7959 TIP3 18   TIP3 H1   HT     0.417000        1.0080           0
    7960 TIP3 18   TIP3 H2   HT     0.417000        1.0080           0
    7961 TIP3 19   TIP3 OH2  OT    -0.834000       15.9994           0
    7962 TIP3 19   TIP3 H1   HT     0.417000        1.0080           0
    7963 TIP3 19   TIP3 H2   HT     0.417000        1.0080           0
    7964 TIP3 20   TIP3 OH2  OT    -0.834000       15.9994           0
    7965 TIP3 20   TIP3 H1   HT     0.417000        1.0080           0
    7966 TIP3 20   TIP3 H2   HT     0.417000        1.0080           0
    7967 TIP3 21   TIP3 OH2  OT    -0.834000       15.9994           0
    7968 TIP3 21   TIP3 H1   HT     0.417000        1.0080           0
    7969 TIP3 21   TIP3 H2   HT     0.417000        1.0080           0
    7970 TIP3 22   TIP3 OH2  OT    -0.834000       15.9994           0
    7971 TIP3 22   TIP3 H1   HT     0.417000        1.0080           0
    7972 TIP3 22   TIP3 H2   HT     0.417000        1.0080           0
    7973 TIP3 23   TIP3 OH2  OT    -0.834000       15.9994           0
    7974 TIP3 23   TIP3 H1   HT     0.417000        1.0080           0
    7975 TIP3 23   TIP3 H2   HT     0.417000        1.0080           0
    7976 TIP3 24   TIP3 OH2  OT    -0.834000       15.9994           0
    7977 TIP3 24   TIP3 H1   HT     0.417000        1.0080           0
    7978 TIP3 24   TIP3 H2   HT     0.417000        1.0080           0
    7979 TIP3 25   TIP3 OH2  OT    -0.834000       15.9994           0
    7980 TIP3 25   TIP3 H1   HT     0.417000        1.0080           0
    7981 TIP3 25   TIP3 H2   HT     0.417000        1.0080           0
    7982 TIP3 26   TIP3 OH2  OT    -0.834000       15.9994           0
    7983 TIP3 26   TIP3 H1   HT     0.417000        1.0080           0
    7984 TIP3 26   TIP3 H2   HT     0.417000        1.0080           0
    7985 TIP3 27   TIP3 OH2  OT    -0.834000       15.9994           0
    7986 TIP3 27   TIP3 H1   HT     0.417000        1.0080           0
    7987 TIP3 27   TIP3 H2   HT     0.417000        1.0080           0
    7988 TIP3 28   TIP3 OH2  OT    -0.834000       15.9994           0
    7989 TIP3 28   TIP3 H1   HT     0.417000        1.0080           0
    7990 TIP3 28   TIP3 H2   HT     0.417000        1.0080           0
    7991 TIP3 29   TIP3 OH2  OT    -0.834000       15.9994           0
    7992 TIP3 29   TIP3 H1   HT     0.417000        1.0080           0
    7993 TIP3 29   TIP3 H2   HT     0.417000        1.0080           0
    7994 TIP3 30   TIP3 OH2  OT    -0.834000       15.9994           0
    7995 TIP3 30   TIP3 H1   HT     0.417000        1.0080           0
    7996 TIP3 30   TIP3 H2   HT     0.417000        1.0080           0
    7997 TIP3 31   TIP3 OH2  OT    -0.834000       15.9994           0
    7998 TIP3 31   TIP3 H1   HT     0.417000        1.0080           0
    7999 TIP3 31   TIP3 H2   HT     0.417000        1.0080           0
    8000 TIP3 32   TIP3 OH2  OT    -0.834000       15.9994           0
    8001 TIP3 32   TIP3 H1   HT     0.417000        1.0080           0
    8002 TIP3 32   TIP3 H2   HT     0.417000        1.0080           0
    8003 TIP3 33   TIP3 OH2  OT    -0.834000       15.9994           0
    8004 TIP3 33   TIP3 H1   HT     0.417000        1.0080           0
    8005 TIP3 33   TIP3 H2   HT     0.417000        1.0080           0
    8006 TIP3 34   TIP3 OH2  OT    -0.834000       15.9994           0
    8007 TIP3 34   TIP3 H1   HT     0.417000        1.0080           0
    8008 TIP3 34   TIP3 H2   HT     0.417000        1.0080           0
    8009 TIP3 35   TIP3 OH2  OT    -0.834000       15.9994           0
    8010 TIP3 35   TIP3 H1   HT     0.417000        1.0080           0
    8011 TIP3 35   TIP3 H2   HT     0.417000        1.0080           0
    8012 TIP3 36   TIP3 OH2  OT    -0.834000       15.9994           0
    8013 TIP3 36   TIP3 H1   HT     0.417000        1.0080           0
    8014 TIP3 36   TIP3 H2   HT     0.417000        1.0080           0
    8015 TIP3 37   TIP3 OH2  OT    -0.834000       15.9994           0
    8016 TIP3 37   TIP3 H1   HT     0.417000        1.0080           0
    8017 TIP3 37   TIP3 H2   HT     0.417000        1.0080           0
    8018 TIP3 38   TIP3 OH2  OT    -0.834000       15.9994           0
    8019 TIP3 38   TIP3 H1   HT     0.417000        1.0080           0
    8020 TIP3 38   TIP3 H2   HT     0.417000        1.0080           0
    8021 TIP3 39   TIP3 OH2  OT    -0.834000       15.9994           0
    8022 TIP3 39   TIP3 H1   HT     0.417000        1.0080           0
    8023 TIP3 39   TIP3 H2   HT     0.417000        1.0080           0
    8024 TIP3 40   TIP3 OH2  OT    -0.834000       15.9994           0
    8025 TIP3 40   TIP3 H1   HT     0.417000        1.0080           0
    8026 TIP3 40   TIP3 H2   HT     0.417000        1.0080           0
    8027 TIP3 41   TIP3 OH2  OT    -0.834000       15.9994           0
    8028 TIP3 41   TIP3 H1   HT     0.417000        1.0080           0
    8029 TIP3 41   TIP3 H2   HT     0.417000        1.0080           0
    8030 TIP3 42   TIP3 OH2  OT    -0.834000       15.9994           0
    8031 TIP3 42   TIP3 H1   HT     0.417000        1.0080           0
    8032 TIP3 42   TIP3 H2   HT     0.417000        1.0080           0
    8033 TIP3 43   TIP3 OH2  OT    -0.834000       15.9994           0
    8034 TIP3 43   TIP3 H1   HT     0.417000        1.0080           0
    8035 TIP3 43   TIP3 H2   HT     0.417000        1.0080           0
    8036 TIP3 44   TIP3 OH2  OT    -0.834000       15.9994           0
    8037 TIP3 44   TIP3 H1   HT     0.417000        1.0080           0
    8038 TIP3 44   TIP3 H2   HT     0.417000        1.0080           0
    8039 TIP3 45   TIP3 OH2  OT    -0.834000       15.9994           0
    8040 TIP3 45   TIP3 H1   HT     0.417000        1.0080           0
    8041 TIP3 45   TIP3 H2   HT     0.417000        1.0080           0
    8042 TIP3 46   TIP3 OH2  OT    -0.834000       15.9994           0
    8043 TIP3 46   TIP3 H1   HT     0.417000        1.0080           0
    8044 TIP3 46   TIP3 H2   HT     0.417000        1.0080           0
    8045 TIP3 47   TIP3 OH2  OT    -0.834000       15.9994           0
    8046 TIP3 47   TIP3 H1   HT     0.417000        1.0080           0
    8047 TIP3 47   TIP3 H2   HT     0.417000        1.0080           0
    8048 TIP3 48   TIP3 OH2  OT    -0.834000       15.9994           0
    8049 TIP3 48   TIP3 H1   HT     0.417000        1.0080           0
    8050 TIP3 48   TIP3 H2   HT     0.417000        1.0080           0
    8051 TIP3 49   TIP3 OH2  OT    -0.834000       15.9994           0
    8052 TIP3 49   TIP3 H1   HT     0.417000        1.0080           0
    8053 TIP3 49   TIP3 H2   HT     0.417000        1.0080           0
    8054 TIP3 50   TIP3 OH2  OT    -0.834000       15.9994           0
    8055 TIP3 50   TIP3 H1   HT     0.417000        1.0080           0
    8056 TIP3 50   TIP3 H2   HT     0.417000        1.0080           0
    8057 TIP3 51   TIP3 OH2  OT    -0.834000       15.9994           0
    8058 TIP3 51   TIP3 H1   HT     0.417000        1.0080           0
    8059 TIP3 51   TIP3 H2   HT     0.417000        1.0080           0
    8060 TIP3 52   TIP3 OH2  OT    -0.834000       15.9994           0
    8061 TIP3 52   TIP3 H1   HT     0.417000        1.0080           0
    8062 TIP3 52   TIP3 H2   HT     0.417000        1.0080           0
    8063 TIP3 53   TIP3 OH2  OT    -0.834000       15.9994           0
    8064 TIP3 53   TIP3 H1   HT     0.417000        1.0080           0
    8065 TIP3 53   TIP3 H2   HT     0.417000        1.0080           0
    8066 TIP3 54   TIP3 OH2  OT    -0.834000       15.9994           0
    8067 TIP3 54   TIP3 H1   HT     0.417000        1.0080           0
    8068 TIP3 54   TIP3 H2   HT     0.417000        1.0080           0
    8069 TIP3 55   TIP3 OH2  OT    -0.834000       15.9994           0
    8070 TIP3 55   TIP3 H1   HT     0.417000        1.0080           0
    8071 TIP3 55   TIP3 H2   HT     0.417000        1.0080           0
    8072 TIP3 56   TIP3 OH2  OT    -0.834000       15.9994           0
    8073 TIP3 56   TIP3 H1   HT     0.417000        1.0080           0
    8074 TIP3 56   TIP3 H2   HT     0.417000        1.0080           0
    8075 TIP3 57   TIP3 OH2  OT    -0.834000       15.9994           0
    8076 TIP3 57   TIP3 H1   HT     0.417000        1.0080           0
    8077 TIP3 57   TIP3 H2   HT     0.417000        1.0080           0
    8078 TIP3 58   TIP3 OH2  OT    -0.834000       15.9994           0
    8079 TIP3 58   TIP3 H1   HT     0.417000        1.0080           0
    8080 TIP3 58   TIP3 H2   HT     0.417000        1.0080           0
    8081 TIP3 59   TIP3 OH2  OT    -0.834000       15.9994           0
    8082 TIP3 59   TIP3 H1   HT     0.417000        1.0080           0
    8083 TIP3 59   TIP3 H2   HT     0.417000        1.0080           0
    8084 TIP3 60   TIP3 OH2  OT    -0.834000       15.9994           0
    8085 TIP3 60   TIP3 H1   HT     0.417000        1.0080           0
    8086 TIP3 60   TIP3 H2   HT     0.417000        1.0080           0
    8087 TIP3 61   TIP3 OH2  OT    -0.834000       15.9994           0
    8088 TIP3 61   TIP3 H1   HT     0.417000        1.0080           0
    8089 TIP3 61   TIP3 H2   HT     0.417000        1.0080           0
    8090 TIP3 62   TIP3 OH2  OT    -0.834000       15.9994           0
    8091 TIP3 62   TIP3 H1   HT     0.417000        1.0080           0
    8092 TIP3 62   TIP3 H2   HT     0.417000        1.0080           0
    8093 TIP3 63   TIP3 OH2  OT    -0.834000       15.9994           0
    8094 TIP3 63   TIP3 H1   HT     0.417000        1.0080           0
    8095 TIP3 63   TIP3 H2   HT     0.417000        1.0080           0
    8096 TIP3 64   TIP3 OH2  OT    -0.834000       15.9994           0
    8097 TIP3 64   TIP3 H1   HT     0.417000        1.0080           0
    8098 TIP3 64   TIP3 H2   HT     0.417000        1.0080           0
    8099 TIP3 65   TIP3 OH2  OT    -0.834000       15.9994           0
    8100 TIP3 65   TIP3 H1   HT     0.417000        1.0080           0
    8101 TIP3 65   TIP3 H2   HT     0.417000        1.0080           0
    8102 TIP3 66   TIP3 OH2  OT    -0.834000       15.9994           0
    8103 TIP3 66   TIP3 H1   HT     0.417000        1.0080           0
    8104 TIP3 66   TIP3 H2   HT     0.417000        1.0080           0
    8105 TIP3 67   TIP3 OH2  OT    -0.834000       15.9994           0
    8106 TIP3 67   TIP3 H1   HT     0.417000        1.0080           0
    8107 TIP3 67   TIP3 H2   HT     0.417000        1.0080           0
    8108 TIP3 68   TIP3 OH2  OT    -0.834000       15.9994           0
    8109 TIP3 68   TIP3 H1   HT     0.417000        1.0080           0
    8110 TIP3 68   TIP3 H2   HT     0.417000        1.0080           0
    8111 TIP3 69   TIP3 OH2  OT    -0.834000       15.9994           0
    8112 TIP3 69   TIP3 H1   HT     0.417000        1.0080           0
    8113 TIP3 69   TIP3 H2   HT     0.417000        1.0080           0
    8114 TIP3 70   TIP3 OH2  OT    -0.834000       15.9994           0
    8115 TIP3 70   TIP3 H1   HT     0.417000        1.0080           0
    8116 TIP3 70   TIP3 H2   HT     0.417000        1.0080           0
    8117 TIP3 71   TIP3 OH2  OT    -0.834000       15.9994           0
    8118 TIP3 71   TIP3 H1   HT     0.417000        1.0080           0
    8119 TIP3 71   TIP3 H2   HT     0.417000        1.0080           0
    8120 TIP3 72   TIP3 OH2  OT    -0.834000       15.9994           0
    8121 TIP3 72   TIP3 H1   HT     0.417000        1.0080           0
    8122 TIP3 72   TIP3 H2   HT     0.417000        1.0080           0
    8123 TIP3 73   TIP3 OH2  OT    -0.834000       15.9994           0
    8124 TIP3 73   TIP3 H1   HT     0.417000        1.0080           0
    8125 TIP3 73   TIP3 H2   HT     0.417000        1.0080           0
    8126 TIP3 74   TIP3 OH2  OT    -0.834000       15.9994           0
    8127 TIP3 74   TIP3 H1   HT     0.417000        1.0080           0
    8128 TIP3 74   TIP3 H2   HT     0.417000        1.0080           0
    8129 TIP3 75   TIP3 OH2  OT    -0.834000       15.9994           0
    8130 TIP3 75   TIP3 H1   HT     0.417000        1.0080           0
    8131 TIP3 75   TIP3 H2   HT     0.417000        1.0080           0
    8132 TIP3 76   TIP3 OH2  OT    -0.834000       15.9994           0
    8133 TIP3 76   TIP3 H1   HT     0.417000        1.0080           0
    8134 TIP3 76   TIP3 H2   HT     0.417000        1.0080           0
    8135 TIP3 77   TIP3 OH2  OT    -0.834000       15.9994           0
    8136 TIP3 77   TIP3 H1   HT     0.417000        1.0080           0
    8137 TIP3 77   TIP3 H2   HT     0.417000        1.0080           0
    8138 TIP3 78   TIP3 OH2  OT    -0.834000       15.9994           0
    8139 TIP3 78   TIP3 H1   HT     0.417000        1.0080           0
    8140 TIP3 78   TIP3 H2   HT     0.417000        1.0080           0
    8141 TIP3 79   TIP3 OH2  OT    -0.834000       15.9994           0
    8142 TIP3 79   TIP3 H1   HT     0.417000        1.0080           0
    8143 TIP3 79   TIP3 H2   HT     0.417000        1.0080           0
    8144 TIP3 80   TIP3 OH2  OT    -0.834000       15.9994           0
    8145 TIP3 80   TIP3 H1   HT     0.417000        1.0080           0
    8146 TIP3 80   TIP3 H2   HT     0.417000        1.0080           0
    8147 TIP3 81   TIP3 OH2  OT    -0.834000       15.9994           0
    8148 TIP3 81   TIP3 H1   HT     0.417000        1.0080           0
    8149 TIP3 81   TIP3 H2   HT     0.417000        1.0080           0
    8150 TIP3 82   TIP3 OH2  OT    -0.834000       15.9994           0
    8151 TIP3 82   TIP3 H1   HT     0.417000        1.0080           0
    8152 TIP3 82   TIP3 H2   HT     0.417000        1.0080           0
    8153 TIP3 83   TIP3 OH2  OT    -0.834000       15.9994           0
    8154 TIP3 83   TIP3 H1   HT     0.417000        1.0080           0
    8155 TIP3 83   TIP3 H2   HT     0.417000        1.0080           0
    8156 TIP3 84   TIP3 OH2  OT    -0.834000       15.9994           0
    8157 TIP3 84   TIP3 H1   HT     0.417000        1.0080           0
    8158 TIP3 84   TIP3 H2   HT     0.417000        1.0080           0
    8159 TIP3 85   TIP3 OH2  OT    -0.834000       15.9994           0
    8160 TIP3 85   TIP3 H1   HT     0.417000        1.0080           0
    8161 TIP3 85   TIP3 H2   HT     0.417000        1.0080           0
    8162 TIP3 86   TIP3 OH2  OT    -0.834000       15.9994           0
    8163 TIP3 86   TIP3 H1   HT     0.417000        1.0080           0
    8164 TIP3 86   TIP3 H2   HT     0.417000        1.0080           0
    8165 TIP3 87   TIP3 OH2  OT    -0.834000       15.9994           0
    8166 TIP3 87   TIP3 H1   HT     0.417000        1.0080           0
    8167 TIP3 87   TIP3 H2   HT     0.417000        1.0080           0
    8168 TIP3 88   TIP3 OH2  OT    -0.834000       15.9994           0
    8169 TIP3 88   TIP3 H1   HT     0.417000        1.0080           0
    8170 TIP3 88   TIP3 H2   HT     0.417000        1.0080           0
    8171 TIP3 89   TIP3 OH2  OT    -0.834000       15.9994           0
    8172 TIP3 89   TIP3 H1   HT     0.417000        1.0080           0
    8173 TIP3 89   TIP3 H2   HT     0.417000        1.0080           0
    8174 TIP3 90   TIP3 OH2  OT    -0.834000       15.9994           0
    8175 TIP3 90   TIP3 H1   HT     0.417000        1.0080           0
    8176 TIP3 90   TIP3 H2   HT     0.417000        1.0080           0
    8177 TIP3 91   TIP3 OH2  OT    -0.834000       15.9994           0
    8178 TIP3 91   TIP3 H1   HT     0.417000        1.0080           0
    8179 TIP3 91   TIP3 H2   HT     0.417000        1.0080           0
    8180 TIP3 92   TIP3 OH2  OT    -0.834000       15.9994           0
    8181 TIP3 92   TIP3 H1   HT     0.417000        1.0080           0
    8182 TIP3 92   TIP3 H2   HT     0.417000        1.0080           0
    8183 TIP3 93   TIP3 OH2  OT    -0.834000       15.9994           0
    8184 TIP3 93   TIP3 H1   HT     0.417000        1.0080           0
    8185 TIP3 93   TIP3 H2   HT     0.417000        1.0080           0
    8186 TIP3 94   TIP3 OH2  OT    -0.834000       15.9994           0
    8187 TIP3 94   TIP3 H1   HT     0.417000        1.0080           0
    8188 TIP3 94   TIP3 H2   HT     0.417000        1.0080           0
    8189 TIP3 95   TIP3 OH2  OT    -0.834000       15.9994           0
    8190 TIP3 95   TIP3 H1   HT     0.417000        1.0080           0
    8191 TIP3 95   TIP3 H2   HT     0.417000        1.0080           0
    8192 TIP3 96   TIP3 OH2  OT    -0.834000       15.9994           0
    8193 TIP3 96   TIP3 H1   HT     0.417000        1.0080           0
    8194 TIP3 96   TIP3 H2   HT     0.417000        1.0080           0
    8195 TIP3 97   TIP3 OH2  OT    -0.834000       15.9994           0
    8196 TIP3 97   TIP3 H1   HT     0.417000        1.0080           0
    8197 TIP3 97   TIP3 H2   HT     0.417000        1.0080           0
    8198 TIP3 98   TIP3 OH2  OT    -0.834000       15.9994           0
    8199 TIP3 98   TIP3 H1   HT     0.417000        1.0080           0
    8200 TIP3 98   TIP3 H2   HT     0.417000        1.0080           0
    8201 TIP3 99   TIP3 OH2  OT    -0.834000       15.9994           0
    8202 TIP3 99   TIP3 H1   HT     0.417000        1.0080           0
    8203 TIP3 99   TIP3 H2   HT     0.417000        1.0080           0
    8204 TIP3 100  TIP3 OH2  OT    -0.834000       15.9994           0
    8205 TIP3 100  TIP3 H1   HT     0.417000        1.0080           0
    8206 TIP3 100  TIP3 H2   HT     0.417000        1.0080           0
    8207 TIP3 101  TIP3 OH2  OT    -0.834000       15.9994           0
    8208 TIP3 101  TIP3 H1   HT     0.417000        1.0080           0
    8209 TIP3 101  TIP3 H2   HT     0.417000        1.0080           0
    8210 TIP3 102  TIP3 OH2  OT    -0.834000       15.9994           0
    8211 TIP3 102  TIP3 H1   HT     0.417000        1.0080           0
    8212 TIP3 102  TIP3 H2   HT     0.417000        1.0080           0
    8213 TIP3 103  TIP3 OH2  OT    -0.834000       15.9994           0
    8214 TIP3 103  TIP3 H1   HT     0.417000        1.0080           0
    8215 TIP3 103  TIP3 H2   HT     0.417000        1.0080           0
    8216 TIP3 104  TIP3 OH2  OT    -0.834000       15.9994           0
    8217 TIP3 104  TIP3 H1   HT     0.417000        1.0080           0
    8218 TIP3 104  TIP3 H2   HT     0.417000        1.0080           0
    8219 TIP3 105  TIP3 OH2  OT    -0.834000       15.9994           0
    8220 TIP3 105  TIP3 H1   HT     0.417000        1.0080           0
    8221 TIP3 105  TIP3 H2   HT     0.417000        1.0080           0
    8222 TIP3 106  TIP3 OH2  OT    -0.834000       15.9994           0
    8223 TIP3 106  TIP3 H1   HT     0.417000        1.0080           0
    8224 TIP3 106  TIP3 H2   HT     0.417000        1.0080           0
    8225 TIP3 107  TIP3 OH2  OT    -0.834000       15.9994           0
    8226 TIP3 107  TIP3 H1   HT     0.417000        1.0080           0
    8227 TIP3 107  TIP3 H2   HT     0.417000        1.0080           0
    8228 TIP3 108  TIP3 OH2  OT    -0.834000       15.9994           0
    8229 TIP3 108  TIP3 H1   HT     0.417000        1.0080           0
    8230 TIP3 108  TIP3 H2   HT     0.417000        1.0080           0
    8231 TIP3 109  TIP3 OH2  OT    -0.834000       15.9994           0
    8232 TIP3 109  TIP3 H1   HT     0.417000        1.0080           0
    8233 TIP3 109  TIP3 H2   HT     0.417000        1.0080           0
    8234 TIP3 110  TIP3 OH2  OT    -0.834000       15.9994           0
    8235 TIP3 110  TIP3 H1   HT     0.417000        1.0080           0
    8236 TIP3 110  TIP3 H2   HT     0.417000        1.0080           0
    8237 TIP3 111  TIP3 OH2  OT    -0.834000       15.9994           0
    8238 TIP3 111  TIP3 H1   HT     0.417000        1.0080           0
    8239 TIP3 111  TIP3 H2   HT     0.417000        1.0080           0
    8240 TIP3 112  TIP3 OH2  OT    -0.834000       15.9994           0
    8241 TIP3 112  TIP3 H1   HT     0.417000        1.0080           0
    8242 TIP3 112  TIP3 H2   HT     0.417000        1.0080           0
    8243 TIP3 113  TIP3 OH2  OT    -0.834000       15.9994           0
    8244 TIP3 113  TIP3 H1   HT     0.417000        1.0080           0
    8245 TIP3 113  TIP3 H2   HT     0.417000        1.0080           0
    8246 TIP3 114  TIP3 OH2  OT    -0.834000       15.9994           0
    8247 TIP3 114  TIP3 H1   HT     0.417000        1.0080           0
    8248 TIP3 114  TIP3 H2   HT     0.417000        1.0080           0
    8249 TIP3 115  TIP3 OH2  OT    -0.834000       15.9994           0
    8250 TIP3 115  TIP3 H1   HT     0.417000        1.0080           0
    8251 TIP3 115  TIP3 H2   HT     0.417000        1.0080           0
    8252 TIP3 116  TIP3 OH2  OT    -0.834000       15.9994           0
    8253 TIP3 116  TIP3 H1   HT     0.417000        1.0080           0
    8254 TIP3 116  TIP3 H2   HT     0.417000        1.0080           0
    8255 TIP3 117  TIP3 OH2  OT    -0.834000       15.9994           0
    8256 TIP3 117  TIP3 H1   HT     0.417000        1.0080           0
    8257 TIP3 117  TIP3 H2   HT     0.417000        1.0080           0
    8258 TIP3 118  TIP3 OH2  OT    -0.834000       15.9994           0
    8259 TIP3 118  TIP3 H1   HT     0.417000        1.0080           0
    8260 TIP3 118  TIP3 H2   HT     0.417000        1.0080           0
    8261 TIP3 119  TIP3 OH2  OT    -0.834000       15.9994           0
    8262 TIP3 119  TIP3 H1   HT     0.417000        1.0080           0
    8263 TIP3 119  TIP3 H2   HT     0.417000        1.0080           0
    8264 TIP3 120  TIP3 OH2  OT    -0.834000       15.9994           0
    8265 TIP3 120  TIP3 H1   HT     0.417000        1.0080           0
    8266 TIP3 120  TIP3 H2   HT     0.417000        1.0080           0
    8267 TIP3 121  TIP3 OH2  OT    -0.834000       15.9994           0
    8268 TIP3 121  TIP3 H1   HT     0.417000        1.0080           0
    8269 TIP3 121  TIP3 H2   HT     0.417000        1.0080           0
    8270 TIP3 122  TIP3 OH2  OT    -0.834000       15.9994           0
    8271 TIP3 122  TIP3 H1   HT     0.417000        1.0080           0
    8272 TIP3 122  TIP3 H2   HT     0.417000        1.0080           0
    8273 TIP3 123  TIP3 OH2  OT    -0.834000       15.9994           0
    8274 TIP3 123  TIP3 H1   HT     0.417000        1.0080           0
    8275 TIP3 123  TIP3 H2   HT     0.417000        1.0080           0
    8276 TIP3 124  TIP3 OH2  OT    -0.834000       15.9994           0
    8277 TIP3 124  TIP3 H1   HT     0.417000        1.0080           0
    8278 TIP3 124  TIP3 H2   HT     0.417000        1.0080           0
    8279 TIP3 125  TIP3 OH2  OT    -0.834000       15.9994           0
    8280 TIP3 125  TIP3 H1   HT     0.417000        1.0080           0
    8281 TIP3 125  TIP3 H2   HT     0.417000        1.0080           0
    8282 TIP3 126  TIP3 OH2  OT    -0.834000       15.9994           0
    8283 TIP3 126  TIP3 H1   HT     0.417000        1.0080           0
    8284 TIP3 126  TIP3 H2   HT     0.417000        1.0080           0
    8285 TIP3 127  TIP3 OH2  OT    -0.834000       15.9994           0
    8286 TIP3 127  TIP3 H1   HT     0.417000        1.0080           0
    8287 TIP3 127  TIP3 H2   HT     0.417000        1.0080           0
    8288 TIP3 128  TIP3 OH2  OT    -0.834000       15.9994           0
    8289 TIP3 128  TIP3 H1   HT     0.417000        1.0080           0
    8290 TIP3 128  TIP3 H2   HT     0.417000        1.0080           0
    8291 TIP3 129  TIP3 OH2  OT    -0.834000       15.9994           0
    8292 TIP3 129  TIP3 H1   HT     0.417000        1.0080           0
    8293 TIP3 129  TIP3 H2   HT     0.417000        1.0080           0
    8294 TIP3 130  TIP3 OH2  OT    -0.834000       15.9994           0
    8295 TIP3 130  TIP3 H1   HT     0.417000        1.0080           0
    8296 TIP3 130  TIP3 H2   HT     0.417000        1.0080           0
    8297 TIP3 131  TIP3 OH2  OT    -0.834000       15.9994           0
    8298 TIP3 131  TIP3 H1   HT     0.417000        1.0080           0
    8299 TIP3 131  TIP3 H2   HT     0.417000        1.0080           0
    8300 TIP3 132  TIP3 OH2  OT    -0.834000       15.9994           0
    8301 TIP3 132  TIP3 H1   HT     0.417000        1.0080           0
    8302 TIP3 132  TIP3 H2   HT     0.417000        1.0080           0
    8303 TIP3 133  TIP3 OH2  OT    -0.834000       15.9994           0
    8304 TIP3 133  TIP3 H1   HT     0.417000        1.0080           0
    8305 TIP3 133  TIP3 H2   HT     0.417000        1.0080           0
    8306 TIP3 134  TIP3 OH2  OT    -0.834000       15.9994           0
    8307 TIP3 134  TIP3 H1   HT     0.417000        1.0080           0
    8308 TIP3 134  TIP3 H2   HT     0.417000        1.0080           0
    8309 TIP3 135  TIP3 OH2  OT    -0.834000       15.9994           0
    8310 TIP3 135  TIP3 H1   HT     0.417000        1.0080           0
    8311 TIP3 135  TIP3 H2   HT     0.417000        1.0080           0
    8312 TIP3 136  TIP3 OH2  OT    -0.834000       15.9994           0
    8313 TIP3 136  TIP3 H1   HT     0.417000        1.0080           0
    8314 TIP3 136  TIP3 H2   HT     0.417000        1.0080           0
    8315 TIP3 137  TIP3 OH2  OT    -0.834000       15.9994           0
    8316 TIP3 137  TIP3 H1   HT     0.417000        1.0080           0
    8317 TIP3 137  TIP3 H2   HT     0.417000        1.0080           0
    8318 TIP3 138  TIP3 OH2  OT    -0.834000       15.9994           0
    8319 TIP3 138  TIP3 H1   HT     0.417000        1.0080           0
    8320 TIP3 138  TIP3 H2   HT     0.417000        1.0080           0
    8321 TIP3 139  TIP3 OH2  OT    -0.834000       15.9994           0
    8322 TIP3 139  TIP3 H1   HT     0.417000        1.0080           0
    8323 TIP3 139  TIP3 H2   HT     0.417000        1.0080           0
    8324 TIP3 140  TIP3 OH2  OT    -0.834000       15.9994           0
    8325 TIP3 140  TIP3 H1   HT     0.417000        1.0080           0
    8326 TIP3 140  TIP3 H2   HT     0.417000        1.0080           0
    8327 TIP3 141  TIP3 OH2  OT    -0.834000       15.9994           0
    8328 TIP3 141  TIP3 H1   HT     0.417000        1.0080           0
    8329 TIP3 141  TIP3 H2   HT     0.417000        1.0080           0
    8330 TIP3 142  TIP3 OH2  OT    -0.834000       15.9994           0
    8331 TIP3 142  TIP3 H1   HT     0.417000        1.0080           0
    8332 TIP3 142  TIP3 H2   HT     0.417000        1.0080           0
    8333 TIP3 143  TIP3 OH2  OT    -0.834000       15.9994           0
    8334 TIP3 143  TIP3 H1   HT     0.417000        1.0080           0
    8335 TIP3 143  TIP3 H2   HT     0.417000        1.0080           0
    8336 TIP3 144  TIP3 OH2  OT    -0.834000       15.9994           0
    8337 TIP3 144  TIP3 H1   HT     0.417000        1.0080           0
    8338 TIP3 144  TIP3 H2   HT     0.417000        1.0080           0
    8339 TIP3 145  TIP3 OH2  OT    -0.834000       15.9994           0
    8340 TIP3 145  TIP3 H1   HT     0.417000        1.0080           0
    8341 TIP3 145  TIP3 H2   HT     0.417000        1.0080           0
    8342 TIP3 146  TIP3 OH2  OT    -0.834000       15.9994           0
    8343 TIP3 146  TIP3 H1   HT     0.417000        1.0080           0
    8344 TIP3 146  TIP3 H2   HT     0.417000        1.0080           0
    8345 TIP3 147  TIP3 OH2  OT    -0.834000       15.9994           0
    8346 TIP3 147  TIP3 H1   HT     0.417000        1.0080           0
    8347 TIP3 147  TIP3 H2   HT     0.417000        1.0080           0
    8348 TIP3 148  TIP3 OH2  OT    -0.834000       15.9994           0
    8349 TIP3 148  TIP3 H1   HT     0.417000        1.0080           0
    8350 TIP3 148  TIP3 H2   HT     0.417000        1.0080           0
    8351 TIP3 149  TIP3 OH2  OT    -0.834000       15.9994           0
    8352 TIP3 149  TIP3 H1   HT     0.417000        1.0080           0
    8353 TIP3 149  TIP3 H2   HT     0.417000        1.0080           0
    8354 TIP3 150  TIP3 OH2  OT    -0.834000       15.9994           0
    8355 TIP3 150  TIP3 H1   HT     0.417000        1.0080           0
    8356 TIP3 150  TIP3 H2   HT     0.417000        1.0080           0
    8357 TIP3 151  TIP3 OH2  OT    -0.834000       15.9994           0
    8358 TIP3 151  TIP3 H1   HT     0.417000        1.0080           0
    8359 TIP3 151  TIP3 H2   HT     0.417000        1.0080           0
    8360 TIP3 152  TIP3 OH2  OT    -0.834000       15.9994           0
    8361 TIP3 152  TIP3 H1   HT     0.417000        1.0080           0
    8362 TIP3 152  TIP3 H2   HT     0.417000        1.0080           0
    8363 TIP3 153  TIP3 OH2  OT    -0.834000       15.9994           0
    8364 TIP3 153  TIP3 H1   HT     0.417000        1.0080           0
    8365 TIP3 153  TIP3 H2   HT     0.417000        1.0080           0
    8366 TIP3 154  TIP3 OH2  OT    -0.834000       15.9994           0
    8367 TIP3 154  TIP3 H1   HT     0.417000        1.0080           0
    8368 TIP3 154  TIP3 H2   HT     0.417000        1.0080           0
    8369 TIP3 155  TIP3 OH2  OT    -0.834000       15.9994           0
    8370 TIP3 155  TIP3 H1   HT     0.417000        1.0080           0
    8371 TIP3 155  TIP3 H2   HT     0.417000        1.0080           0
    8372 TIP3 156  TIP3 OH2  OT    -0.834000       15.9994           0
    8373 TIP3 156  TIP3 H1   HT     0.417000        1.0080           0
    8374 TIP3 156  TIP3 H2   HT     0.417000        1.0080           0
    8375 TIP3 157  TIP3 OH2  OT    -0.834000       15.9994           0
    8376 TIP3 157  TIP3 H1   HT     0.417000        1.0080           0
    8377 TIP3 157  TIP3 H2   HT     0.417000        1.0080           0
    8378 TIP3 158  TIP3 OH2  OT    -0.834000       15.9994           0
    8379 TIP3 158  TIP3 H1   HT     0.417000        1.0080           0
    8380 TIP3 158  TIP3 H2   HT     0.417000        1.0080           0
    8381 TIP3 159  TIP3 OH2  OT    -0.834000       15.9994           0
    8382 TIP3 159  TIP3 H1   HT     0.417000        1.0080           0
    8383 TIP3 159  TIP3 H2   HT     0.417000        1.0080           0
    8384 TIP3 160  TIP3 OH2  OT    -0.834000       15.9994           0
    8385 TIP3 160  TIP3 H1   HT     0.417000        1.0080           0
    8386 TIP3 160  TIP3 H2   HT     0.417000        1.0080           0
    8387 TIP3 161  TIP3 OH2  OT    -0.834000       15.9994           0
    8388 TIP3 161  TIP3 H1   HT     0.417000        1.0080           0
    8389 TIP3 161  TIP3 H2   HT     0.417000        1.0080           0
    8390 TIP3 162  TIP3 OH2  OT    -0.834000       15.9994           0
    8391 TIP3 162  TIP3 H1   HT     0.417000        1.0080           0
    8392 TIP3 162  TIP3 H2   HT     0.417000        1.0080           0
    8393 TIP3 163  TIP3 OH2  OT    -0.834000       15.9994           0
    8394 TIP3 163  TIP3 H1   HT     0.417000        1.0080           0
    8395 TIP3 163  TIP3 H2   HT     0.417000        1.0080           0
    8396 TIP3 164  TIP3 OH2  OT    -0.834000       15.9994           0
    8397 TIP3 164  TIP3 H1   HT     0.417000        1.0080           0
    8398 TIP3 164  TIP3 H2   HT     0.417000        1.0080           0
    8399 TIP3 165  TIP3 OH2  OT    -0.834000       15.9994           0
    8400 TIP3 165  TIP3 H1   HT     0.417000        1.0080           0
    8401 TIP3 165  TIP3 H2   HT     0.417000        1.0080           0
    8402 TIP3 166  TIP3 OH2  OT    -0.834000       15.9994           0
    8403 TIP3 166  TIP3 H1   HT     0.417000        1.0080           0
    8404 TIP3 166  TIP3 H2   HT     0.417000        1.0080           0
    8405 TIP3 167  TIP3 OH2  OT    -0.834000       15.9994           0
    8406 TIP3 167  TIP3 H1   HT     0.417000        1.0080           0
    8407 TIP3 167  TIP3 H2   HT     0.417000        1.0080           0
    8408 TIP3 168  TIP3 OH2  OT    -0.834000       15.9994           0
    8409 TIP3 168  TIP3 H1   HT     0.417000        1.0080           0
    8410 TIP3 168  TIP3 H2   HT     0.417000        1.0080           0
    8411 TIP3 169  TIP3 OH2  OT    -0.834000       15.9994           0
    8412 TIP3 169  TIP3 H1   HT     0.417000        1.0080           0
    8413 TIP3 169  TIP3 H2   HT     0.417000        1.0080           0
    8414 TIP3 170  TIP3 OH2  OT    -0.834000       15.9994           0
    8415 TIP3 170  TIP3 H1   HT     0.417000        1.0080           0
    8416 TIP3 170  TIP3 H2   HT     0.417000        1.0080           0
    8417 TIP3 171  TIP3 OH2  OT    -0.834000       15.9994           0
    8418 TIP3 171  TIP3 H1   HT     0.417000        1.0080           0
    8419 TIP3 171  TIP3 H2   HT     0.417000        1.0080           0
    8420 TIP3 172  TIP3 OH2  OT    -0.834000       15.9994           0
    8421 TIP3 172  TIP3 H1   HT     0.417000        1.0080           0
    8422 TIP3 172  TIP3 H2   HT     0.417000        1.0080           0
    8423 TIP3 173  TIP3 OH2  OT    -0.834000       15.9994           0
    8424 TIP3 173  TIP3 H1   HT     0.417000        1.0080           0
    8425 TIP3 173  TIP3 H2   HT     0.417000        1.0080           0
    8426 TIP3 174  TIP3 OH2  OT    -0.834000       15.9994           0
    8427 TIP3 174  TIP3 H1   HT     0.417000        1.0080           0
    8428 TIP3 174  TIP3 H2   HT     0.417000        1.0080           0
    8429 TIP3 175  TIP3 OH2  OT    -0.834000       15.9994           0
    8430 TIP3 175  TIP3 H1   HT     0.417000        1.0080           0
    8431 TIP3 175  TIP3 H2   HT     0.417000        1.0080           0
    8432 TIP3 176  TIP3 OH2  OT    -0.834000       15.9994           0
    8433 TIP3 176  TIP3 H1   HT     0.417000        1.0080           0
    8434 TIP3 176  TIP3 H2   HT     0.417000        1.0080           0
    8435 TIP3 177  TIP3 OH2  OT    -0.834000       15.9994           0
    8436 TIP3 177  TIP3 H1   HT     0.417000        1.0080           0
    8437 TIP3 177  TIP3 H2   HT     0.417000        1.0080           0
    8438 TIP3 178  TIP3 OH2  OT    -0.834000       15.9994           0
    8439 TIP3 178  TIP3 H1   HT     0.417000        1.0080           0
    8440 TIP3 178  TIP3 H2   HT     0.417000        1.0080           0
    8441 TIP3 179  TIP3 OH2  OT    -0.834000       15.9994           0
    8442 TIP3 179  TIP3 H1   HT     0.417000        1.0080           0
    8443 TIP3 179  TIP3 H2   HT     0.417000        1.0080           0
    8444 TIP3 180  TIP3 OH2  OT    -0.834000       15.9994           0
    8445 TIP3 180  TIP3 H1   HT     0.417000        1.0080           0
    8446 TIP3 180  TIP3 H2   HT     0.417000        1.0080           0
    8447 TIP3 181  TIP3 OH2  OT    -0.834000       15.9994           0
    8448 TIP3 181  TIP3 H1   HT     0.417000        1.0080           0
    8449 TIP3 181  TIP3 H2   HT     0.417000        1.0080           0
    8450 TIP3 182  TIP3 OH2  OT    -0.834000       15.9994           0
    8451 TIP3 182  TIP3 H1   HT     0.417000        1.0080           0
    8452 TIP3 182  TIP3 H2   HT     0.417000        1.0080           0
    8453 TIP3 183  TIP3 OH2  OT    -0.834000       15.9994           0
    8454 TIP3 183  TIP3 H1   HT     0.417000        1.0080           0
    8455 TIP3 183  TIP3 H2   HT     0.417000        1.0080           0
    8456 TIP3 184  TIP3 OH2  OT    -0.834000       15.9994           0
    8457 TIP3 184  TIP3 H1   HT     0.417000        1.0080           0
    8458 TIP3 184  TIP3 H2   HT     0.417000        1.0080           0
    8459 TIP3 185  TIP3 OH2  OT    -0.834000       15.9994           0
    8460 TIP3 185  TIP3 H1   HT     0.417000        1.0080           0
    8461 TIP3 185  TIP3 H2   HT     0.417000        1.0080           0
    8462 TIP3 186  TIP3 OH2  OT    -0.834000       15.9994           0
    8463 TIP3 186  TIP3 H1   HT     0.417000        1.0080           0
    8464 TIP3 186  TIP3 H2   HT     0.417000        1.0080           0
    8465 TIP3 187  TIP3 OH2  OT    -0.834000       15.9994           0
    8466 TIP3 187  TIP3 H1   HT     0.417000        1.0080           0
    8467 TIP3 187  TIP3 H2   HT     0.417000        1.0080           0
    8468 TIP3 188  TIP3 OH2  OT    -0.834000       15.9994           0
    8469 TIP3 188  TIP3 H1   HT     0.417000        1.0080           0
    8470 TIP3 188  TIP3 H2   HT     0.417000        1.0080           0
    8471 TIP3 189  TIP3 OH2  OT    -0.834000       15.9994           0
    8472 TIP3 189  TIP3 H1   HT     0.417000        1.0080           0
    8473 TIP3 189  TIP3 H2   HT     0.417000        1.0080           0
    8474 TIP3 190  TIP3 OH2  OT    -0.834000       15.9994           0
    8475 TIP3 190  TIP3 H1   HT     0.417000        1.0080           0
    8476 TIP3 190  TIP3 H2   HT     0.417000        1.0080           0
    8477 TIP3 191  TIP3 OH2  OT    -0.834000       15.9994           0
    8478 TIP3 191  TIP3 H1   HT     0.417000        1.0080           0
    8479 TIP3 191  TIP3 H2   HT     0.417000        1.0080           0
    8480 TIP3 192  TIP3 OH2  OT    -0.834000       15.9994           0
    8481 TIP3 192  TIP3 H1   HT     0.417000        1.0080           0
    8482 TIP3 192  TIP3 H2   HT     0.417000        1.0080           0
    8483 TIP3 193  TIP3 OH2  OT    -0.834000       15.9994           0
    8484 TIP3 193  TIP3 H1   HT     0.417000        1.0080           0
    8485 TIP3 193  TIP3 H2   HT     0.417000        1.0080           0
    8486 TIP3 194  TIP3 OH2  OT    -0.834000       15.9994           0
    8487 TIP3 194  TIP3 H1   HT     0.417000        1.0080           0
    8488 TIP3 194  TIP3 H2   HT     0.417000        1.0080           0
    8489 TIP3 195  TIP3 OH2  OT    -0.834000       15.9994           0
    8490 TIP3 195  TIP3 H1   HT     0.417000        1.0080           0
    8491 TIP3 195  TIP3 H2   HT     0.417000        1.0080           0
    8492 TIP3 196  TIP3 OH2  OT    -0.834000       15.9994           0
    8493 TIP3 196  TIP3 H1   HT     0.417000        1.0080           0
    8494 TIP3 196  TIP3 H2   HT     0.417000        1.0080           0
    8495 TIP3 197  TIP3 OH2  OT    -0.834000       15.9994           0
    8496 TIP3 197  TIP3 H1   HT     0.417000        1.0080           0
    8497 TIP3 197  TIP3 H2   HT     0.417000        1.0080           0
    8498 TIP3 198  TIP3 OH2  OT    -0.834000       15.9994           0
    8499 TIP3 198  TIP3 H1   HT     0.417000        1.0080           0
    8500 TIP3 198  TIP3 H2   HT     0.417000        1.0080           0
    8501 TIP3 199  TIP3 OH2  OT    -0.834000       15.9994           0
    8502 TIP3 199  TIP3 H1   HT     0.417000        1.0080           0
    8503 TIP3 199  TIP3 H2   HT     0.417000        1.0080           0
    8504 TIP3 200  TIP3 OH2  OT    -0.834000       15.9994           0
    8505 TIP3 200  TIP3 H1   HT     0.417000        1.0080           0
    8506 TIP3 200  TIP3 H2   HT     0.417000        1.0080           0
    8507 TIP3 201  TIP3 OH2  OT    -0.834000       15.9994           0
    8508 TIP3 201  TIP3 H1   HT     0.417000        1.0080           0
    8509 TIP3 201  TIP3 H2   HT     0.417000        1.0080           0
    8510 TIP3 202  TIP3 OH2  OT    -0.834000       15.9994           0
    8511 TIP3 202  TIP3 H1   HT     0.417000        1.0080           0
    8512 TIP3 202  TIP3 H2   HT     0.417000        1.0080           0
    8513 TIP3 203  TIP3 OH2  OT    -0.834000       15.9994           0
    8514 TIP3 203  TIP3 H1   HT     0.417000        1.0080           0
    8515 TIP3 203  TIP3 H2   HT     0.417000        1.0080           0
    8516 TIP3 204  TIP3 OH2  OT    -0.834000       15.9994           0
    8517 TIP3 204  TIP3 H1   HT     0.417000        1.0080           0
    8518 TIP3 204  TIP3 H2   HT     0.417000        1.0080           0
    8519 TIP3 205  TIP3 OH2  OT    -0.834000       15.9994           0
    8520 TIP3 205  TIP3 H1   HT     0.417000        1.0080           0
    8521 TIP3 205  TIP3 H2   HT     0.417000        1.0080           0
    8522 TIP3 206  TIP3 OH2  OT    -0.834000       15.9994           0
    8523 TIP3 206  TIP3 H1   HT     0.417000        1.0080           0
    8524 TIP3 206  TIP3 H2   HT     0.417000        1.0080           0
    8525 TIP3 207  TIP3 OH2  OT    -0.834000       15.9994           0
    8526 TIP3 207  TIP3 H1   HT     0.417000        1.0080           0
    8527 TIP3 207  TIP3 H2   HT     0.417000        1.0080           0
    8528 TIP3 208  TIP3 OH2  OT    -0.834000       15.9994           0
    8529 TIP3 208  TIP3 H1   HT     0.417000        1.0080           0
    8530 TIP3 208  TIP3 H2   HT     0.417000        1.0080           0
    8531 TIP3 209  TIP3 OH2  OT    -0.834000       15.9994           0
    8532 TIP3 209  TIP3 H1   HT     0.417000        1.0080           0
    8533 TIP3 209  TIP3 H2   HT     0.417000        1.0080           0
    8534 TIP3 210  TIP3 OH2  OT    -0.834000       15.9994           0
    8535 TIP3 210  TIP3 H1   HT     0.417000        1.0080           0
    8536 TIP3 210  TIP3 H2   HT     0.417000        1.0080           0
    8537 TIP3 211  TIP3 OH2  OT    -0.834000       15.9994           0
    8538 TIP3 211  TIP3 H1   HT     0.417000        1.0080           0
    8539 TIP3 211  TIP3 H2   HT     0.417000        1.0080           0
    8540 TIP3 212  TIP3 OH2  OT    -0.834000       15.9994           0
    8541 TIP3 212  TIP3 H1   HT     0.417000        1.0080           0
    8542 TIP3 212  TIP3 H2   HT     0.417000        1.0080           0
    8543 TIP3 213  TIP3 OH2  OT    -0.834000       15.9994           0
    8544 TIP3 213  TIP3 H1   HT     0.417000        1.0080           0
    8545 TIP3 213  TIP3 H2   HT     0.417000        1.0080           0
    8546 TIP3 214  TIP3 OH2  OT    -0.834000       15.9994           0
    8547 TIP3 214  TIP3 H1   HT     0.417000        1.0080           0
    8548 TIP3 214  TIP3 H2   HT     0.417000        1.0080           0
    8549 TIP3 215  TIP3 OH2  OT    -0.834000       15.9994           0
    8550 TIP3 215  TIP3 H1   HT     0.417000        1.0080           0
    8551 TIP3 215  TIP3 H2   HT     0.417000        1.0080           0
    8552 TIP3 216  TIP3 OH2  OT    -0.834000       15.9994           0
    8553 TIP3 216  TIP3 H1   HT     0.417000        1.0080           0
    8554 TIP3 216  TIP3 H2   HT     0.417000        1.0080           0
    8555 TIP3 217  TIP3 OH2  OT    -0.834000       15.9994           0
    8556 TIP3 217  TIP3 H1   HT     0.417000        1.0080           0
    8557 TIP3 217  TIP3 H2   HT     0.417000        1.0080           0
    8558 TIP3 218  TIP3 OH2  OT    -0.834000       15.9994           0
    8559 TIP3 218  TIP3 H1   HT     0.417000        1.0080           0
    8560 TIP3 218  TIP3 H2   HT     0.417000        1.0080           0
    8561 TIP3 219  TIP3 OH2  OT    -0.834000       15.9994           0
    8562 TIP3 219  TIP3 H1   HT     0.417000        1.0080           0
    8563 TIP3 219  TIP3 H2   HT     0.417000        1.0080           0
    8564 TIP3 220  TIP3 OH2  OT    -0.834000       15.9994           0
    8565 TIP3 220  TIP3 H1   HT     0.417000        1.0080           0
    8566 TIP3 220  TIP3 H2   HT     0.417000        1.0080           0
    8567 TIP3 221  TIP3 OH2  OT    -0.834000       15.9994           0
    8568 TIP3 221  TIP3 H1   HT     0.417000        1.0080           0
    8569 TIP3 221  TIP3 H2   HT     0.417000        1.0080           0
    8570 TIP3 222  TIP3 OH2  OT    -0.834000       15.9994           0
    8571 TIP3 222  TIP3 H1   HT     0.417000        1.0080           0
    8572 TIP3 222  TIP3 H2   HT     0.417000        1.0080           0
    8573 TIP3 223  TIP3 OH2  OT    -0.834000       15.9994           0
    8574 TIP3 223  TIP3 H1   HT     0.417000        1.0080           0
    8575 TIP3 223  TIP3 H2   HT     0.417000        1.0080           0
    8576 TIP3 224  TIP3 OH2  OT    -0.834000       15.9994           0
    8577 TIP3 224  TIP3 H1   HT     0.417000        1.0080           0
    8578 TIP3 224  TIP3 H2   HT     0.417000        1.0080           0
    8579 TIP3 225  TIP3 OH2  OT    -0.834000       15.9994           0
    8580 TIP3 225  TIP3 H1   HT     0.417000        1.0080           0
    8581 TIP3 225  TIP3 H2   HT     0.417000        1.0080           0
    8582 TIP3 226  TIP3 OH2  OT    -0.834000       15.9994           0
    8583 TIP3 226  TIP3 H1   HT     0.417000        1.0080           0
    8584 TIP3 226  TIP3 H2   HT     0.417000        1.0080           0
    8585 TIP3 227  TIP3 OH2  OT    -0.834000       15.9994           0
    8586 TIP3 227  TIP3 H1   HT     0.417000        1.0080           0
    8587 TIP3 227  TIP3 H2   HT     0.417000        1.0080           0
    8588 TIP3 228  TIP3 OH2  OT    -0.834000       15.9994           0
    8589 TIP3 228  TIP3 H1   HT     0.417000        1.0080           0
    8590 TIP3 228  TIP3 H2   HT     0.417000        1.0080           0
    8591 TIP3 229  TIP3 OH2  OT    -0.834000       15.9994           0
    8592 TIP3 229  TIP3 H1   HT     0.417000        1.0080           0
    8593 TIP3 229  TIP3 H2   HT     0.417000        1.0080           0
    8594 TIP3 230  TIP3 OH2  OT    -0.834000       15.9994           0
    8595 TIP3 230  TIP3 H1   HT     0.417000        1.0080           0
    8596 TIP3 230  TIP3 H2   HT     0.417000        1.0080           0
    8597 TIP3 231  TIP3 OH2  OT    -0.834000       15.9994           0
    8598 TIP3 231  TIP3 H1   HT     0.417000        1.0080           0
    8599 TIP3 231  TIP3 H2   HT     0.417000        1.0080           0
    8600 TIP3 232  TIP3 OH2  OT    -0.834000       15.9994           0
    8601 TIP3 232  TIP3 H1   HT     0.417000        1.0080           0
    8602 TIP3 232  TIP3 H2   HT     0.417000        1.0080           0
    8603 TIP3 233  TIP3 OH2  OT    -0.834000       15.9994           0
    8604 TIP3 233  TIP3 H1   HT     0.417000        1.0080           0
    8605 TIP3 233  TIP3 H2   HT     0.417000        1.0080           0
    8606 TIP3 234  TIP3 OH2  OT    -0.834000       15.9994           0
    8607 TIP3 234  TIP3 H1   HT     0.417000        1.0080           0
    8608 TIP3 234  TIP3 H2   HT     0.417000        1.0080           0
    8609 TIP3 235  TIP3 OH2  OT    -0.834000       15.9994           0
    8610 TIP3 235  TIP3 H1   HT     0.417000        1.0080           0
    8611 TIP3 235  TIP3 H2   HT     0.417000        1.0080           0
    8612 TIP3 236  TIP3 OH2  OT    -0.834000       15.9994           0
    8613 TIP3 236  TIP3 H1   HT     0.417000        1.0080           0
    8614 TIP3 236  TIP3 H2   HT     0.417000        1.0080           0
    8615 TIP3 237  TIP3 OH2  OT    -0.834000       15.9994           0
    8616 TIP3 237  TIP3 H1   HT     0.417000        1.0080           0
    8617 TIP3 237  TIP3 H2   HT     0.417000        1.0080           0
    8618 TIP3 238  TIP3 OH2  OT    -0.834000       15.9994           0
    8619 TIP3 238  TIP3 H1   HT     0.417000        1.0080           0
    8620 TIP3 238  TIP3 H2   HT     0.417000        1.0080           0
    8621 TIP3 239  TIP3 OH2  OT    -0.834000       15.9994           0
    8622 TIP3 239  TIP3 H1   HT     0.417000        1.0080           0
    8623 TIP3 239  TIP3 H2   HT     0.417000        1.0080           0
    8624 TIP3 240  TIP3 OH2  OT    -0.834000       15.9994           0
    8625 TIP3 240  TIP3 H1   HT     0.417000        1.0080           0
    8626 TIP3 240  TIP3 H2   HT     0.417000        1.0080           0
    8627 TIP3 241  TIP3 OH2  OT    -0.834000       15.9994           0
    8628 TIP3 241  TIP3 H1   HT     0.417000        1.0080           0
    8629 TIP3 241  TIP3 H2   HT     0.417000        1.0080           0
    8630 TIP3 242  TIP3 OH2  OT    -0.834000       15.9994           0
    8631 TIP3 242  TIP3 H1   HT     0.417000        1.0080           0
    8632 TIP3 242  TIP3 H2   HT     0.417000        1.0080           0
    8633 TIP3 243  TIP3 OH2  OT    -0.834000       15.9994           0
    8634 TIP3 243  TIP3 H1   HT     0.417000        1.0080           0
    8635 TIP3 243  TIP3 H2   HT     0.417000        1.0080           0
    8636 TIP3 244  TIP3 OH2  OT    -0.834000       15.9994           0
    8637 TIP3 244  TIP3 H1   HT     0.417000        1.0080           0
    8638 TIP3 244  TIP3 H2   HT     0.417000        1.0080           0
    8639 TIP3 245  TIP3 OH2  OT    -0.834000       15.9994           0
    8640 TIP3 245  TIP3 H1   HT     0.417000        1.0080           0
    8641 TIP3 245  TIP3 H2   HT     0.417000        1.0080           0
    8642 TIP3 246  TIP3 OH2  OT    -0.834000       15.9994           0
    8643 TIP3 246  TIP3 H1   HT     0.417000        1.0080           0
    8644 TIP3 246  TIP3 H2   HT     0.417000        1.0080           0
    8645 TIP3 247  TIP3 OH2  OT    -0.834000       15.9994           0
    8646 TIP3 247  TIP3 H1   HT     0.417000        1.0080           0
    8647 TIP3 247  TIP3 H2   HT     0.417000        1.0080           0
    8648 TIP3 248  TIP3 OH2  OT    -0.834000       15.9994           0
    8649 TIP3 248  TIP3 H1   HT     0.417000        1.0080           0
    8650 TIP3 248  TIP3 H2   HT     0.417000        1.0080           0
    8651 TIP3 249  TIP3 OH2  OT    -0.834000       15.9994           0
    8652 TIP3 249  TIP3 H1   HT     0.417000        1.0080           0
    8653 TIP3 249  TIP3 H2   HT     0.417000        1.0080           0
    8654 TIP3 250  TIP3 OH2  OT    -0.834000       15.9994           0
    8655 TIP3 250  TIP3 H1   HT     0.417000        1.0080           0
    8656 TIP3 250  TIP3 H2   HT     0.417000        1.0080           0
    8657 TIP3 251  TIP3 OH2  OT    -0.834000       15.9994           0
    8658 TIP3 251  TIP3 H1   HT     0.417000        1.0080           0
    8659 TIP3 251  TIP3 H2   HT     0.417000        1.0080           0
    8660 TIP3 252  TIP3 OH2  OT    -0.834000       15.9994           0
    8661 TIP3 252  TIP3 H1   HT     0.417000        1.0080           0
    8662 TIP3 252  TIP3 H2   HT     0.417000        1.0080           0
    8663 TIP3 253  TIP3 OH2  OT    -0.834000       15.9994           0
    8664 TIP3 253  TIP3 H1   HT     0.417000        1.0080           0
    8665 TIP3 253  TIP3 H2   HT     0.417000        1.0080           0
    8666 TIP3 254  TIP3 OH2  OT    -0.834000       15.9994           0
    8667 TIP3 254  TIP3 H1   HT     0.417000        1.0080           0
    8668 TIP3 254  TIP3 H2   HT     0.417000        1.0080           0
    8669 TIP3 255  TIP3 OH2  OT    -0.834000       15.9994           0
    8670 TIP3 255  TIP3 H1   HT     0.417000        1.0080           0
    8671 TIP3 255  TIP3 H2   HT     0.417000        1.0080           0
    8672 TIP3 256  TIP3 OH2  OT    -0.834000       15.9994           0
    8673 TIP3 256  TIP3 H1   HT     0.417000        1.0080           0
    8674 TIP3 256  TIP3 H2   HT     0.417000        1.0080           0
    8675 TIP3 257  TIP3 OH2  OT    -0.834000       15.9994           0
    8676 TIP3 257  TIP3 H1   HT     0.417000        1.0080           0
    8677 TIP3 257  TIP3 H2   HT     0.417000        1.0080           0
    8678 TIP3 258  TIP3 OH2  OT    -0.834000       15.9994           0
    8679 TIP3 258  TIP3 H1   HT     0.417000        1.0080           0
    8680 TIP3 258  TIP3 H2   HT     0.417000        1.0080           0
    8681 TIP3 259  TIP3 OH2  OT    -0.834000       15.9994           0
    8682 TIP3 259  TIP3 H1   HT     0.417000        1.0080           0
    8683 TIP3 259  TIP3 H2   HT     0.417000        1.0080           0
    8684 TIP3 260  TIP3 OH2  OT    -0.834000       15.9994           0
    8685 TIP3 260  TIP3 H1   HT     0.417000        1.0080           0
    8686 TIP3 260  TIP3 H2   HT     0.417000        1.0080           0
    8687 TIP3 261  TIP3 OH2  OT    -0.834000       15.9994           0
    8688 TIP3 261  TIP3 H1   HT     0.417000        1.0080           0
    8689 TIP3 261  TIP3 H2   HT     0.417000        1.0080           0
    8690 TIP3 262  TIP3 OH2  OT    -0.834000       15.9994           0
    8691 TIP3 262  TIP3 H1   HT     0.417000        1.0080           0
    8692 TIP3 262  TIP3 H2   HT     0.417000        1.0080           0
    8693 TIP3 263  TIP3 OH2  OT    -0.834000       15.9994           0
    8694 TIP3 263  TIP3 H1   HT     0.417000        1.0080           0
    8695 TIP3 263  TIP3 H2   HT     0.417000        1.0080           0
    8696 TIP3 264  TIP3 OH2  OT    -0.834000       15.9994           0
    8697 TIP3 264  TIP3 H1   HT     0.417000        1.0080           0
    8698 TIP3 264  TIP3 H2   HT     0.417000        1.0080           0
    8699 TIP3 265  TIP3 OH2  OT    -0.834000       15.9994           0
    8700 TIP3 265  TIP3 H1   HT     0.417000        1.0080           0
    8701 TIP3 265  TIP3 H2   HT     0.417000        1.0080           0
    8702 TIP3 266  TIP3 OH2  OT    -0.834000       15.9994           0
    8703 TIP3 266  TIP3 H1   HT     0.417000        1.0080           0
    8704 TIP3 266  TIP3 H2   HT     0.417000        1.0080           0
    8705 TIP3 267  TIP3 OH2  OT    -0.834000       15.9994           0
    8706 TIP3 267  TIP3 H1   HT     0.417000        1.0080           0
    8707 TIP3 267  TIP3 H2   HT     0.417000        1.0080           0
    8708 TIP3 268  TIP3 OH2  OT    -0.834000       15.9994           0
    8709 TIP3 268  TIP3 H1   HT     0.417000        1.0080           0
    8710 TIP3 268  TIP3 H2   HT     0.417000        1.0080           0
    8711 TIP3 269  TIP3 OH2  OT    -0.834000       15.9994           0
    8712 TIP3 269  TIP3 H1   HT     0.417000        1.0080           0
    8713 TIP3 269  TIP3 H2   HT     0.417000        1.0080           0
    8714 TIP3 270  TIP3 OH2  OT    -0.834000       15.9994           0
    8715 TIP3 270  TIP3 H1   HT     0.417000        1.0080           0
    8716 TIP3 270  TIP3 H2   HT     0.417000        1.0080           0
    8717 TIP3 271  TIP3 OH2  OT    -0.834000       15.9994           0
    8718 TIP3 271  TIP3 H1   HT     0.417000        1.0080           0
    8719 TIP3 271  TIP3 H2   HT     0.417000        1.0080           0
    8720 TIP3 272  TIP3 OH2  OT    -0.834000       15.9994           0
    8721 TIP3 272  TIP3 H1   HT     0.417000        1.0080           0
    8722 TIP3 272  TIP3 H2   HT     0.417000        1.0080           0
    8723 TIP3 273  TIP3 OH2  OT    -0.834000       15.9994           0
    8724 TIP3 273  TIP3 H1   HT     0.417000        1.0080           0
    8725 TIP3 273  TIP3 H2   HT     0.417000        1.0080           0
    8726 TIP3 274  TIP3 OH2  OT    -0.834000       15.9994           0
    8727 TIP3 274  TIP3 H1   HT     0.417000        1.0080           0
    8728 TIP3 274  TIP3 H2   HT     0.417000        1.0080           0
    8729 TIP3 275  TIP3 OH2  OT    -0.834000       15.9994           0
    8730 TIP3 275  TIP3 H1   HT     0.417000        1.0080           0
    8731 TIP3 275  TIP3 H2   HT     0.417000        1.0080           0
    8732 TIP3 276  TIP3 OH2  OT    -0.834000       15.9994           0
    8733 TIP3 276  TIP3 H1   HT     0.417000        1.0080           0
    8734 TIP3 276  TIP3 H2   HT     0.417000        1.0080           0
    8735 TIP3 277  TIP3 OH2  OT    -0.834000       15.9994           0
    8736 TIP3 277  TIP3 H1   HT     0.417000        1.0080           0
    8737 TIP3 277  TIP3 H2   HT     0.417000        1.0080           0
    8738 TIP3 278  TIP3 OH2  OT    -0.834000       15.9994           0
    8739 TIP3 278  TIP3 H1   HT     0.417000        1.0080           0
    8740 TIP3 278  TIP3 H2   HT     0.417000        1.0080           0
    8741 TIP3 279  TIP3 OH2  OT    -0.834000       15.9994           0
    8742 TIP3 279  TIP3 H1   HT     0.417000        1.0080           0
    8743 TIP3 279  TIP3 H2   HT     0.417000        1.0080           0
    8744 TIP3 280  TIP3 OH2  OT    -0.834000       15.9994           0
    8745 TIP3 280  TIP3 H1   HT     0.417000        1.0080           0
    8746 TIP3 280  TIP3 H2   HT     0.417000        1.0080           0
    8747 TIP3 281  TIP3 OH2  OT    -0.834000       15.9994           0
    8748 TIP3 281  TIP3 H1   HT     0.417000        1.0080           0
    8749 TIP3 281  TIP3 H2   HT     0.417000        1.0080           0
    8750 TIP3 282  TIP3 OH2  OT    -0.834000       15.9994           0
    8751 TIP3 282  TIP3 H1   HT     0.417000        1.0080           0
    8752 TIP3 282  TIP3 H2   HT     0.417000        1.0080           0
    8753 TIP3 283  TIP3 OH2  OT    -0.834000       15.9994           0
    8754 TIP3 283  TIP3 H1   HT     0.417000        1.0080           0
    8755 TIP3 283  TIP3 H2   HT     0.417000        1.0080           0
    8756 TIP3 284  TIP3 OH2  OT    -0.834000       15.9994           0
    8757 TIP3 284  TIP3 H1   HT     0.417000        1.0080           0
    8758 TIP3 284  TIP3 H2   HT     0.417000        1.0080           0
    8759 TIP3 285  TIP3 OH2  OT    -0.834000       15.9994           0
    8760 TIP3 285  TIP3 H1   HT     0.417000        1.0080           0
    8761 TIP3 285  TIP3 H2   HT     0.417000        1.0080           0
    8762 TIP3 286  TIP3 OH2  OT    -0.834000       15.9994           0
    8763 TIP3 286  TIP3 H1   HT     0.417000        1.0080           0
    8764 TIP3 286  TIP3 H2   HT     0.417000        1.0080           0
    8765 TIP3 287  TIP3 OH2  OT    -0.834000       15.9994           0
    8766 TIP3 287  TIP3 H1   HT     0.417000        1.0080           0
    8767 TIP3 287  TIP3 H2   HT     0.417000        1.0080           0
    8768 TIP3 288  TIP3 OH2  OT    -0.834000       15.9994           0
    8769 TIP3 288  TIP3 H1   HT     0.417000        1.0080           0
    8770 TIP3 288  TIP3 H2   HT     0.417000        1.0080           0
    8771 TIP3 289  TIP3 OH2  OT    -0.834000       15.9994           0
    8772 TIP3 289  TIP3 H1   HT     0.417000        1.0080           0
    8773 TIP3 289  TIP3 H2   HT     0.417000        1.0080           0
    8774 TIP3 290  TIP3 OH2  OT    -0.834000       15.9994           0
    8775 TIP3 290  TIP3 H1   HT     0.417000        1.0080           0
    8776 TIP3 290  TIP3 H2   HT     0.417000        1.0080           0
    8777 TIP3 291  TIP3 OH2  OT    -0.834000       15.9994           0
    8778 TIP3 291  TIP3 H1   HT     0.417000        1.0080           0
    8779 TIP3 291  TIP3 H2   HT     0.417000        1.0080           0
    8780 TIP3 292  TIP3 OH2  OT    -0.834000       15.9994           0
    8781 TIP3 292  TIP3 H1   HT     0.417000        1.0080           0
    8782 TIP3 292  TIP3 H2   HT     0.417000        1.0080           0
    8783 TIP3 293  TIP3 OH2  OT    -0.834000       15.9994           0
    8784 TIP3 293  TIP3 H1   HT     0.417000        1.0080           0
    8785 TIP3 293  TIP3 H2   HT     0.417000        1.0080           0
    8786 TIP3 294  TIP3 OH2  OT    -0.834000       15.9994           0
    8787 TIP3 294  TIP3 H1   HT     0.417000        1.0080           0
    8788 TIP3 294  TIP3 H2   HT     0.417000        1.0080           0
    8789 TIP3 295  TIP3 OH2  OT    -0.834000       15.9994           0
    8790 TIP3 295  TIP3 H1   HT     0.417000        1.0080           0
    8791 TIP3 295  TIP3 H2   HT     0.417000        1.0080           0
    8792 TIP3 296  TIP3 OH2  OT    -0.834000       15.9994           0
    8793 TIP3 296  TIP3 H1   HT     0.417000        1.0080           0
    8794 TIP3 296  TIP3 H2   HT     0.417000        1.0080           0
    8795 TIP3 297  TIP3 OH2  OT    -0.834000       15.9994           0
    8796 TIP3 297  TIP3 H1   HT     0.417000        1.0080           0
    8797 TIP3 297  TIP3 H2   HT     0.417000        1.0080           0
    8798 TIP3 298  TIP3 OH2  OT    -0.834000       15.9994           0
    8799 TIP3 298  TIP3 H1   HT     0.417000        1.0080           0
    8800 TIP3 298  TIP3 H2   HT     0.417000        1.0080           0
    8801 TIP3 299  TIP3 OH2  OT    -0.834000       15.9994           0
    8802 TIP3 299  TIP3 H1   HT     0.417000        1.0080           0
    8803 TIP3 299  TIP3 H2   HT     0.417000        1.0080           0
    8804 TIP3 300  TIP3 OH2  OT    -0.834000       15.9994           0
    8805 TIP3 300  TIP3 H1   HT     0.417000        1.0080           0
    8806 TIP3 300  TIP3 H2   HT     0.417000        1.0080           0
    8807 TIP3 301  TIP3 OH2  OT    -0.834000       15.9994           0
    8808 TIP3 301  TIP3 H1   HT     0.417000        1.0080           0
    8809 TIP3 301  TIP3 H2   HT     0.417000        1.0080           0
    8810 TIP3 302  TIP3 OH2  OT    -0.834000       15.9994           0
    8811 TIP3 302  TIP3 H1   HT     0.417000        1.0080           0
    8812 TIP3 302  TIP3 H2   HT     0.417000        1.0080           0
    8813 TIP3 303  TIP3 OH2  OT    -0.834000       15.9994           0
    8814 TIP3 303  TIP3 H1   HT     0.417000        1.0080           0
    8815 TIP3 303  TIP3 H2   HT     0.417000        1.0080           0
    8816 TIP3 304  TIP3 OH2  OT    -0.834000       15.9994           0
    8817 TIP3 304  TIP3 H1   HT     0.417000        1.0080           0
    8818 TIP3 304  TIP3 H2   HT     0.417000        1.0080           0
    8819 TIP3 305  TIP3 OH2  OT    -0.834000       15.9994           0
    8820 TIP3 305  TIP3 H1   HT     0.417000        1.0080           0
    8821 TIP3 305  TIP3 H2   HT     0.417000        1.0080           0
    8822 TIP3 306  TIP3 OH2  OT    -0.834000       15.9994           0
    8823 TIP3 306  TIP3 H1   HT     0.417000        1.0080           0
    8824 TIP3 306  TIP3 H2   HT     0.417000        1.0080           0
    8825 TIP3 307  TIP3 OH2  OT    -0.834000       15.9994           0
    8826 TIP3 307  TIP3 H1   HT     0.417000        1.0080           0
    8827 TIP3 307  TIP3 H2   HT     0.417000        1.0080           0
    8828 TIP3 308  TIP3 OH2  OT    -0.834000       15.9994           0
    8829 TIP3 308  TIP3 H1   HT     0.417000        1.0080           0
    8830 TIP3 308  TIP3 H2   HT     0.417000        1.0080           0
    8831 TIP3 309  TIP3 OH2  OT    -0.834000       15.9994           0
    8832 TIP3 309  TIP3 H1   HT     0.417000        1.0080           0
    8833 TIP3 309  TIP3 H2   HT     0.417000        1.0080           0
    8834 TIP3 310  TIP3 OH2  OT    -0.834000       15.9994           0
    8835 TIP3 310  TIP3 H1   HT     0.417000        1.0080           0
    8836 TIP3 310  TIP3 H2   HT     0.417000        1.0080           0
    8837 TIP3 311  TIP3 OH2  OT    -0.834000       15.9994           0
    8838 TIP3 311  TIP3 H1   HT     0.417000        1.0080           0
    8839 TIP3 311  TIP3 H2   HT     0.417000        1.0080           0
    8840 TIP3 312  TIP3 OH2  OT    -0.834000       15.9994           0
    8841 TIP3 312  TIP3 H1   HT     0.417000        1.0080           0
    8842 TIP3 312  TIP3 H2   HT     0.417000        1.0080           0
    8843 TIP3 313  TIP3 OH2  OT    -0.834000       15.9994           0
    8844 TIP3 313  TIP3 H1   HT     0.417000        1.0080           0
    8845 TIP3 313  TIP3 H2   HT     0.417000        1.0080           0
    8846 TIP3 314  TIP3 OH2  OT    -0.834000       15.9994           0
    8847 TIP3 314  TIP3 H1   HT     0.417000        1.0080           0
    8848 TIP3 314  TIP3 H2   HT     0.417000        1.0080           0
    8849 TIP3 315  TIP3 OH2  OT    -0.834000       15.9994           0
    8850 TIP3 315  TIP3 H1   HT     0.417000        1.0080           0
    8851 TIP3 315  TIP3 H2   HT     0.417000        1.0080           0
    8852 TIP3 316  TIP3 OH2  OT    -0.834000       15.9994           0
    8853 TIP3 316  TIP3 H1   HT     0.417000        1.0080           0
    8854 TIP3 316  TIP3 H2   HT     0.417000        1.0080           0
    8855 TIP3 317  TIP3 OH2  OT    -0.834000       15.9994           0
    8856 TIP3 317  TIP3 H1   HT     0.417000        1.0080           0
    8857 TIP3 317  TIP3 H2   HT     0.417000        1.0080           0
    8858 TIP3 318  TIP3 OH2  OT    -0.834000       15.9994           0
    8859 TIP3 318  TIP3 H1   HT     0.417000        1.0080           0
    8860 TIP3 318  TIP3 H2   HT     0.417000        1.0080           0
    8861 TIP3 319  TIP3 OH2  OT    -0.834000       15.9994           0
    8862 TIP3 319  TIP3 H1   HT     0.417000        1.0080           0
    8863 TIP3 319  TIP3 H2   HT     0.417000        1.0080           0
    8864 TIP3 320  TIP3 OH2  OT    -0.834000       15.9994           0
    8865 TIP3 320  TIP3 H1   HT     0.417000        1.0080           0
    8866 TIP3 320  TIP3 H2   HT     0.417000        1.0080           0
    8867 TIP3 321  TIP3 OH2  OT    -0.834000       15.9994           0
    8868 TIP3 321  TIP3 H1   HT     0.417000        1.0080           0
    8869 TIP3 321  TIP3 H2   HT     0.417000        1.0080           0
    8870 TIP3 322  TIP3 OH2  OT    -0.834000       15.9994           0
    8871 TIP3 322  TIP3 H1   HT     0.417000        1.0080           0
    8872 TIP3 322  TIP3 H2   HT     0.417000        1.0080           0
    8873 TIP3 323  TIP3 OH2  OT    -0.834000       15.9994           0
    8874 TIP3 323  TIP3 H1   HT     0.417000        1.0080           0
    8875 TIP3 323  TIP3 H2   HT     0.417000        1.0080           0
    8876 TIP3 324  TIP3 OH2  OT    -0.834000       15.9994           0
    8877 TIP3 324  TIP3 H1   HT     0.417000        1.0080           0
    8878 TIP3 324  TIP3 H2   HT     0.417000        1.0080           0
    8879 TIP3 325  TIP3 OH2  OT    -0.834000       15.9994           0
    8880 TIP3 325  TIP3 H1   HT     0.417000        1.0080           0
    8881 TIP3 325  TIP3 H2   HT     0.417000        1.0080           0
    8882 TIP3 326  TIP3 OH2  OT    -0.834000       15.9994           0
    8883 TIP3 326  TIP3 H1   HT     0.417000        1.0080           0
    8884 TIP3 326  TIP3 H2   HT     0.417000        1.0080           0
    8885 TIP3 327  TIP3 OH2  OT    -0.834000       15.9994           0
    8886 TIP3 327  TIP3 H1   HT     0.417000        1.0080           0
    8887 TIP3 327  TIP3 H2   HT     0.417000        1.0080           0
    8888 TIP3 328  TIP3 OH2  OT    -0.834000       15.9994           0
    8889 TIP3 328  TIP3 H1   HT     0.417000        1.0080           0
    8890 TIP3 328  TIP3 H2   HT     0.417000        1.0080           0
    8891 TIP3 329  TIP3 OH2  OT    -0.834000       15.9994           0
    8892 TIP3 329  TIP3 H1   HT     0.417000        1.0080           0
    8893 TIP3 329  TIP3 H2   HT     0.417000        1.0080           0
    8894 TIP3 330  TIP3 OH2  OT    -0.834000       15.9994           0
    8895 TIP3 330  TIP3 H1   HT     0.417000        1.0080           0
    8896 TIP3 330  TIP3 H2   HT     0.417000        1.0080           0
    8897 TIP3 331  TIP3 OH2  OT    -0.834000       15.9994           0
    8898 TIP3 331  TIP3 H1   HT     0.417000        1.0080           0
    8899 TIP3 331  TIP3 H2   HT     0.417000        1.0080           0
    8900 TIP3 332  TIP3 OH2  OT    -0.834000       15.9994           0
    8901 TIP3 332  TIP3 H1   HT     0.417000        1.0080           0
    8902 TIP3 332  TIP3 H2   HT     0.417000        1.0080           0
    8903 TIP3 333  TIP3 OH2  OT    -0.834000       15.9994           0
    8904 TIP3 333  TIP3 H1   HT     0.417000        1.0080           0
    8905 TIP3 333  TIP3 H2   HT     0.417000        1.0080           0
    8906 TIP3 334  TIP3 OH2  OT    -0.834000       15.9994           0
    8907 TIP3 334  TIP3 H1   HT     0.417000        1.0080           0
    8908 TIP3 334  TIP3 H2   HT     0.417000        1.0080           0
    8909 TIP3 335  TIP3 OH2  OT    -0.834000       15.9994           0
    8910 TIP3 335  TIP3 H1   HT     0.417000        1.0080           0
    8911 TIP3 335  TIP3 H2   HT     0.417000        1.0080           0
    8912 TIP3 336  TIP3 OH2  OT    -0.834000       15.9994           0
    8913 TIP3 336  TIP3 H1   HT     0.417000        1.0080           0
    8914 TIP3 336  TIP3 H2   HT     0.417000        1.0080           0
    8915 TIP3 337  TIP3 OH2  OT    -0.834000       15.9994           0
    8916 TIP3 337  TIP3 H1   HT     0.417000        1.0080           0
    8917 TIP3 337  TIP3 H2   HT     0.417000        1.0080           0
    8918 TIP3 338  TIP3 OH2  OT    -0.834000       15.9994           0
    8919 TIP3 338  TIP3 H1   HT     0.417000        1.0080           0
    8920 TIP3 338  TIP3 H2   HT     0.417000        1.0080           0
    8921 TIP3 339  TIP3 OH2  OT    -0.834000       15.9994           0
    8922 TIP3 339  TIP3 H1   HT     0.417000        1.0080           0
    8923 TIP3 339  TIP3 H2   HT     0.417000        1.0080           0
    8924 TIP3 340  TIP3 OH2  OT    -0.834000       15.9994           0
    8925 TIP3 340  TIP3 H1   HT     0.417000        1.0080           0
    8926 TIP3 340  TIP3 H2   HT     0.417000        1.0080           0
    8927 TIP3 341  TIP3 OH2  OT    -0.834000       15.9994           0
    8928 TIP3 341  TIP3 H1   HT     0.417000        1.0080           0
    8929 TIP3 341  TIP3 H2   HT     0.417000        1.0080           0
    8930 TIP3 342  TIP3 OH2  OT    -0.834000       15.9994           0
    8931 TIP3 342  TIP3 H1   HT     0.417000        1.0080           0
    8932 TIP3 342  TIP3 H2   HT     0.417000        1.0080           0
    8933 TIP3 343  TIP3 OH2  OT    -0.834000       15.9994           0
    8934 TIP3 343  TIP3 H1   HT     0.417000        1.0080           0
    8935 TIP3 343  TIP3 H2   HT     0.417000        1.0080           0
    8936 TIP3 344  TIP3 OH2  OT    -0.834000       15.9994           0
    8937 TIP3 344  TIP3 H1   HT     0.417000        1.0080           0
    8938 TIP3 344  TIP3 H2   HT     0.417000        1.0080           0
    8939 TIP3 345  TIP3 OH2  OT    -0.834000       15.9994           0
    8940 TIP3 345  TIP3 H1   HT     0.417000        1.0080           0
    8941 TIP3 345  TIP3 H2   HT     0.417000        1.0080           0
    8942 TIP3 346  TIP3 OH2  OT    -0.834000       15.9994           0
    8943 TIP3 346  TIP3 H1   HT     0.417000        1.0080           0
    8944 TIP3 346  TIP3 H2   HT     0.417000        1.0080           0
    8945 TIP3 347  TIP3 OH2  OT    -0.834000       15.9994           0
    8946 TIP3 347  TIP3 H1   HT     0.417000        1.0080           0
    8947 TIP3 347  TIP3 H2   HT     0.417000        1.0080           0
    8948 TIP3 348  TIP3 OH2  OT    -0.834000       15.9994           0
    8949 TIP3 348  TIP3 H1   HT     0.417000        1.0080           0
    8950 TIP3 348  TIP3 H2   HT     0.417000        1.0080           0
    8951 TIP3 349  TIP3 OH2  OT    -0.834000       15.9994           0
    8952 TIP3 349  TIP3 H1   HT     0.417000        1.0080           0
    8953 TIP3 349  TIP3 H2   HT     0.417000        1.0080           0
    8954 TIP3 350  TIP3 OH2  OT    -0.834000       15.9994           0
    8955 TIP3 350  TIP3 H1   HT     0.417000        1.0080           0
    8956 TIP3 350  TIP3 H2   HT     0.417000        1.0080           0
    8957 TIP3 351  TIP3 OH2  OT    -0.834000       15.9994           0
    8958 TIP3 351  TIP3 H1   HT     0.417000        1.0080           0
    8959 TIP3 351  TIP3 H2   HT     0.417000        1.0080           0
    8960 TIP3 352  TIP3 OH2  OT    -0.834000       15.9994           0
    8961 TIP3 352  TIP3 H1   HT     0.417000        1.0080           0
    8962 TIP3 352  TIP3 H2   HT     0.417000        1.0080           0
    8963 TIP3 353  TIP3 OH2  OT    -0.834000       15.9994           0
    8964 TIP3 353  TIP3 H1   HT     0.417000        1.0080           0
    8965 TIP3 353  TIP3 H2   HT     0.417000        1.0080           0
    8966 TIP3 354  TIP3 OH2  OT    -0.834000       15.9994           0
    8967 TIP3 354  TIP3 H1   HT     0.417000        1.0080           0
    8968 TIP3 354  TIP3 H2   HT     0.417000        1.0080           0
    8969 TIP3 355  TIP3 OH2  OT    -0.834000       15.9994           0
    8970 TIP3 355  TIP3 H1   HT     0.417000        1.0080           0
    8971 TIP3 355  TIP3 H2   HT     0.417000        1.0080           0
    8972 TIP3 356  TIP3 OH2  OT    -0.834000       15.9994           0
    8973 TIP3 356  TIP3 H1   HT     0.417000        1.0080           0
    8974 TIP3 356  TIP3 H2   HT     0.417000        1.0080           0
    8975 TIP3 357  TIP3 OH2  OT    -0.834000       15.9994           0
    8976 TIP3 357  TIP3 H1   HT     0.417000        1.0080           0
    8977 TIP3 357  TIP3 H2   HT     0.417000        1.0080           0
    8978 TIP3 358  TIP3 OH2  OT    -0.834000       15.9994           0
    8979 TIP3 358  TIP3 H1   HT     0.417000        1.0080           0
    8980 TIP3 358  TIP3 H2   HT     0.417000        1.0080           0
    8981 TIP3 359  TIP3 OH2  OT    -0.834000       15.9994           0
    8982 TIP3 359  TIP3 H1   HT     0.417000        1.0080           0
    8983 TIP3 359  TIP3 H2   HT     0.417000        1.0080           0
    8984 TIP3 360  TIP3 OH2  OT    -0.834000       15.9994           0
    8985 TIP3 360  TIP3 H1   HT     0.417000        1.0080           0
    8986 TIP3 360  TIP3 H2   HT     0.417000        1.0080           0
    8987 TIP3 361  TIP3 OH2  OT    -0.834000       15.9994           0
    8988 TIP3 361  TIP3 H1   HT     0.417000        1.0080           0
    8989 TIP3 361  TIP3 H2   HT     0.417000        1.0080           0
    8990 TIP3 362  TIP3 OH2  OT    -0.834000       15.9994           0
    8991 TIP3 362  TIP3 H1   HT     0.417000        1.0080           0
    8992 TIP3 362  TIP3 H2   HT     0.417000        1.0080           0
    8993 TIP3 363  TIP3 OH2  OT    -0.834000       15.9994           0
    8994 TIP3 363  TIP3 H1   HT     0.417000        1.0080           0
    8995 TIP3 363  TIP3 H2   HT     0.417000        1.0080           0
    8996 TIP3 364  TIP3 OH2  OT    -0.834000       15.9994           0
    8997 TIP3 364  TIP3 H1   HT     0.417000        1.0080           0
    8998 TIP3 364  TIP3 H2   HT     0.417000        1.0080           0
    8999 TIP3 365  TIP3 OH2  OT    -0.834000       15.9994           0
    9000 TIP3 365  TIP3 H1   HT     0.417000        1.0080           0
    9001 TIP3 365  TIP3 H2   HT     0.417000        1.0080           0
    9002 TIP3 366  TIP3 OH2  OT    -0.834000       15.9994           0
    9003 TIP3 366  TIP3 H1   HT     0.417000        1.0080           0
    9004 TIP3 366  TIP3 H2   HT     0.417000        1.0080           0
    9005 TIP3 367  TIP3 OH2  OT    -0.834000       15.9994           0
    9006 TIP3 367  TIP3 H1   HT     0.417000        1.0080           0
    9007 TIP3 367  TIP3 H2   HT     0.417000        1.0080           0
    9008 TIP3 368  TIP3 OH2  OT    -0.834000       15.9994           0
    9009 TIP3 368  TIP3 H1   HT     0.417000        1.0080           0
    9010 TIP3 368  TIP3 H2   HT     0.417000        1.0080           0
    9011 TIP3 369  TIP3 OH2  OT    -0.834000       15.9994           0
    9012 TIP3 369  TIP3 H1   HT     0.417000        1.0080           0
    9013 TIP3 369  TIP3 H2   HT     0.417000        1.0080           0
    9014 TIP3 370  TIP3 OH2  OT    -0.834000       15.9994           0
    9015 TIP3 370  TIP3 H1   HT     0.417000        1.0080           0
    9016 TIP3 370  TIP3 H2   HT     0.417000        1.0080           0
    9017 TIP3 371  TIP3 OH2  OT    -0.834000       15.9994           0
    9018 TIP3 371  TIP3 H1   HT     0.417000        1.0080           0
    9019 TIP3 371  TIP3 H2   HT     0.417000        1.0080           0
    9020 TIP3 372  TIP3 OH2  OT    -0.834000       15.9994           0
    9021 TIP3 372  TIP3 H1   HT     0.417000        1.0080           0
    9022 TIP3 372  TIP3 H2   HT     0.417000        1.0080           0
    9023 TIP3 373  TIP3 OH2  OT    -0.834000       15.9994           0
    9024 TIP3 373  TIP3 H1   HT     0.417000        1.0080           0
    9025 TIP3 373  TIP3 H2   HT     0.417000        1.0080           0
    9026 TIP3 374  TIP3 OH2  OT    -0.834000       15.9994           0
    9027 TIP3 374  TIP3 H1   HT     0.417000        1.0080           0
    9028 TIP3 374  TIP3 H2   HT     0.417000        1.0080           0
    9029 TIP3 375  TIP3 OH2  OT    -0.834000       15.9994           0
    9030 TIP3 375  TIP3 H1   HT     0.417000        1.0080           0
    9031 TIP3 375  TIP3 H2   HT     0.417000        1.0080           0
    9032 TIP3 376  TIP3 OH2  OT    -0.834000       15.9994           0
    9033 TIP3 376  TIP3 H1   HT     0.417000        1.0080           0
    9034 TIP3 376  TIP3 H2   HT     0.417000        1.0080           0
    9035 TIP3 377  TIP3 OH2  OT    -0.834000       15.9994           0
    9036 TIP3 377  TIP3 H1   HT     0.417000        1.0080           0
    9037 TIP3 377  TIP3 H2   HT     0.417000        1.0080           0
    9038 TIP3 378  TIP3 OH2  OT    -0.834000       15.9994           0
    9039 TIP3 378  TIP3 H1   HT     0.417000        1.0080           0
    9040 TIP3 378  TIP3 H2   HT     0.417000        1.0080           0
    9041 TIP3 379  TIP3 OH2  OT    -0.834000       15.9994           0
    9042 TIP3 379  TIP3 H1   HT     0.417000        1.0080           0
    9043 TIP3 379  TIP3 H2   HT     0.417000        1.0080           0
    9044 TIP3 380  TIP3 OH2  OT    -0.834000       15.9994           0
    9045 TIP3 380  TIP3 H1   HT     0.417000        1.0080           0
    9046 TIP3 380  TIP3 H2   HT     0.417000        1.0080           0
    9047 TIP3 381  TIP3 OH2  OT    -0.834000       15.9994           0
    9048 TIP3 381  TIP3 H1   HT     0.417000        1.0080           0
    9049 TIP3 381  TIP3 H2   HT     0.417000        1.0080           0
    9050 TIP3 382  TIP3 OH2  OT    -0.834000       15.9994           0
    9051 TIP3 382  TIP3 H1   HT     0.417000        1.0080           0
    9052 TIP3 382  TIP3 H2   HT     0.417000        1.0080           0
    9053 TIP3 383  TIP3 OH2  OT    -0.834000       15.9994           0
    9054 TIP3 383  TIP3 H1   HT     0.417000        1.0080           0
    9055 TIP3 383  TIP3 H2   HT     0.417000        1.0080           0
    9056 TIP3 384  TIP3 OH2  OT    -0.834000       15.9994           0
    9057 TIP3 384  TIP3 H1   HT     0.417000        1.0080           0
    9058 TIP3 384  TIP3 H2   HT     0.417000        1.0080           0
    9059 TIP3 385  TIP3 OH2  OT    -0.834000       15.9994           0
    9060 TIP3 385  TIP3 H1   HT     0.417000        1.0080           0
    9061 TIP3 385  TIP3 H2   HT     0.417000        1.0080           0
    9062 TIP3 386  TIP3 OH2  OT    -0.834000       15.9994           0
    9063 TIP3 386  TIP3 H1   HT     0.417000        1.0080           0
    9064 TIP3 386  TIP3 H2   HT     0.417000        1.0080           0
    9065 TIP3 387  TIP3 OH2  OT    -0.834000       15.9994           0
    9066 TIP3 387  TIP3 H1   HT     0.417000        1.0080           0
    9067 TIP3 387  TIP3 H2   HT     0.417000        1.0080           0
    9068 TIP3 388  TIP3 OH2  OT    -0.834000       15.9994           0
    9069 TIP3 388  TIP3 H1   HT     0.417000        1.0080           0
    9070 TIP3 388  TIP3 H2   HT     0.417000        1.0080           0
    9071 TIP3 389  TIP3 OH2  OT    -0.834000       15.9994           0
    9072 TIP3 389  TIP3 H1   HT     0.417000        1.0080           0
    9073 TIP3 389  TIP3 H2   HT     0.417000        1.0080           0
    9074 TIP3 390  TIP3 OH2  OT    -0.834000       15.9994           0
    9075 TIP3 390  TIP3 H1   HT     0.417000        1.0080           0
    9076 TIP3 390  TIP3 H2   HT     0.417000        1.0080           0
    9077 TIP3 391  TIP3 OH2  OT    -0.834000       15.9994           0
    9078 TIP3 391  TIP3 H1   HT     0.417000        1.0080           0
    9079 TIP3 391  TIP3 H2   HT     0.417000        1.0080           0
    9080 TIP3 392  TIP3 OH2  OT    -0.834000       15.9994           0
    9081 TIP3 392  TIP3 H1   HT     0.417000        1.0080           0
    9082 TIP3 392  TIP3 H2   HT     0.417000        1.0080           0
    9083 TIP3 393  TIP3 OH2  OT    -0.834000       15.9994           0
    9084 TIP3 393  TIP3 H1   HT     0.417000        1.0080           0
    9085 TIP3 393  TIP3 H2   HT     0.417000        1.0080           0
    9086 TIP3 394  TIP3 OH2  OT    -0.834000       15.9994           0
    9087 TIP3 394  TIP3 H1   HT     0.417000        1.0080           0
    9088 TIP3 394  TIP3 H2   HT     0.417000        1.0080           0
    9089 TIP3 395  TIP3 OH2  OT    -0.834000       15.9994           0
    9090 TIP3 395  TIP3 H1   HT     0.417000        1.0080           0
    9091 TIP3 395  TIP3 H2   HT     0.417000        1.0080           0
    9092 TIP3 396  TIP3 OH2  OT    -0.834000       15.9994           0
    9093 TIP3 396  TIP3 H1   HT     0.417000        1.0080           0
    9094 TIP3 396  TIP3 H2   HT     0.417000        1.0080           0
    9095 TIP3 397  TIP3 OH2  OT    -0.834000       15.9994           0
    9096 TIP3 397  TIP3 H1   HT     0.417000        1.0080           0
    9097 TIP3 397  TIP3 H2   HT     0.417000        1.0080           0
    9098 TIP3 398  TIP3 OH2  OT    -0.834000       15.9994           0
    9099 TIP3 398  TIP3 H1   HT     0.417000        1.0080           0
    9100 TIP3 398  TIP3 H2   HT     0.417000        1.0080           0
    9101 TIP3 399  TIP3 OH2  OT    -0.834000       15.9994           0
    9102 TIP3 399  TIP3 H1   HT     0.417000        1.0080           0
    9103 TIP3 399  TIP3 H2   HT     0.417000        1.0080           0
    9104 TIP3 400  TIP3 OH2  OT    -0.834000       15.9994           0
    9105 TIP3 400  TIP3 H1   HT     0.417000        1.0080           0
    9106 TIP3 400  TIP3 H2   HT     0.417000        1.0080           0
    9107 TIP3 401  TIP3 OH2  OT    -0.834000       15.9994           0
    9108 TIP3 401  TIP3 H1   HT     0.417000        1.0080           0
    9109 TIP3 401  TIP3 H2   HT     0.417000        1.0080           0
    9110 TIP3 402  TIP3 OH2  OT    -0.834000       15.9994           0
    9111 TIP3 402  TIP3 H1   HT     0.417000        1.0080           0
    9112 TIP3 402  TIP3 H2   HT     0.417000        1.0080           0
    9113 TIP3 403  TIP3 OH2  OT    -0.834000       15.9994           0
    9114 TIP3 403  TIP3 H1   HT     0.417000        1.0080           0
    9115 TIP3 403  TIP3 H2   HT     0.417000        1.0080           0
    9116 TIP3 404  TIP3 OH2  OT    -0.834000       15.9994           0
    9117 TIP3 404  TIP3 H1   HT     0.417000        1.0080           0
    9118 TIP3 404  TIP3 H2   HT     0.417000        1.0080           0
    9119 TIP3 405  TIP3 OH2  OT    -0.834000       15.9994           0
    9120 TIP3 405  TIP3 H1   HT     0.417000        1.0080           0
    9121 TIP3 405  TIP3 H2   HT     0.417000        1.0080           0
    9122 TIP3 406  TIP3 OH2  OT    -0.834000       15.9994           0
    9123 TIP3 406  TIP3 H1   HT     0.417000        1.0080           0
    9124 TIP3 406  TIP3 H2   HT     0.417000        1.0080           0
    9125 TIP3 407  TIP3 OH2  OT    -0.834000       15.9994           0
    9126 TIP3 407  TIP3 H1   HT     0.417000        1.0080           0
    9127 TIP3 407  TIP3 H2   HT     0.417000        1.0080           0
    9128 TIP3 408  TIP3 OH2  OT    -0.834000       15.9994           0
    9129 TIP3 408  TIP3 H1   HT     0.417000        1.0080           0
    9130 TIP3 408  TIP3 H2   HT     0.417000        1.0080           0
    9131 TIP3 409  TIP3 OH2  OT    -0.834000       15.9994           0
    9132 TIP3 409  TIP3 H1   HT     0.417000        1.0080           0
    9133 TIP3 409  TIP3 H2   HT     0.417000        1.0080           0
    9134 TIP3 410  TIP3 OH2  OT    -0.834000       15.9994           0
    9135 TIP3 410  TIP3 H1   HT     0.417000        1.0080           0
    9136 TIP3 410  TIP3 H2   HT     0.417000        1.0080           0
    9137 TIP3 411  TIP3 OH2  OT    -0.834000       15.9994           0
    9138 TIP3 411  TIP3 H1   HT     0.417000        1.0080           0
    9139 TIP3 411  TIP3 H2   HT     0.417000        1.0080           0
    9140 TIP3 412  TIP3 OH2  OT    -0.834000       15.9994           0
    9141 TIP3 412  TIP3 H1   HT     0.417000        1.0080           0
    9142 TIP3 412  TIP3 H2   HT     0.417000        1.0080           0
    9143 TIP3 413  TIP3 OH2  OT    -0.834000       15.9994           0
    9144 TIP3 413  TIP3 H1   HT     0.417000        1.0080           0
    9145 TIP3 413  TIP3 H2   HT     0.417000        1.0080           0
    9146 TIP3 414  TIP3 OH2  OT    -0.834000       15.9994           0
    9147 TIP3 414  TIP3 H1   HT     0.417000        1.0080           0
    9148 TIP3 414  TIP3 H2   HT     0.417000        1.0080           0
    9149 TIP3 415  TIP3 OH2  OT    -0.834000       15.9994           0
    9150 TIP3 415  TIP3 H1   HT     0.417000        1.0080           0
    9151 TIP3 415  TIP3 H2   HT     0.417000        1.0080           0
    9152 TIP3 416  TIP3 OH2  OT    -0.834000       15.9994           0
    9153 TIP3 416  TIP3 H1   HT     0.417000        1.0080           0
    9154 TIP3 416  TIP3 H2   HT     0.417000        1.0080           0
    9155 TIP3 417  TIP3 OH2  OT    -0.834000       15.9994           0
    9156 TIP3 417  TIP3 H1   HT     0.417000        1.0080           0
    9157 TIP3 417  TIP3 H2   HT     0.417000        1.0080           0
    9158 TIP3 418  TIP3 OH2  OT    -0.834000       15.9994           0
    9159 TIP3 418  TIP3 H1   HT     0.417000        1.0080           0
    9160 TIP3 418  TIP3 H2   HT     0.417000        1.0080           0
    9161 TIP3 419  TIP3 OH2  OT    -0.834000       15.9994           0
    9162 TIP3 419  TIP3 H1   HT     0.417000        1.0080           0
    9163 TIP3 419  TIP3 H2   HT     0.417000        1.0080           0
    9164 TIP3 420  TIP3 OH2  OT    -0.834000       15.9994           0
    9165 TIP3 420  TIP3 H1   HT     0.417000        1.0080           0
    9166 TIP3 420  TIP3 H2   HT     0.417000        1.0080           0
    9167 TIP3 421  TIP3 OH2  OT    -0.834000       15.9994           0
    9168 TIP3 421  TIP3 H1   HT     0.417000        1.0080           0
    9169 TIP3 421  TIP3 H2   HT     0.417000        1.0080           0
    9170 TIP3 422  TIP3 OH2  OT    -0.834000       15.9994           0
    9171 TIP3 422  TIP3 H1   HT     0.417000        1.0080           0
    9172 TIP3 422  TIP3 H2   HT     0.417000        1.0080           0
    9173 TIP3 423  TIP3 OH2  OT    -0.834000       15.9994           0
    9174 TIP3 423  TIP3 H1   HT     0.417000        1.0080           0
    9175 TIP3 423  TIP3 H2   HT     0.417000        1.0080           0
    9176 TIP3 424  TIP3 OH2  OT    -0.834000       15.9994           0
    9177 TIP3 424  TIP3 H1   HT     0.417000        1.0080           0
    9178 TIP3 424  TIP3 H2   HT     0.417000        1.0080           0
    9179 TIP3 425  TIP3 OH2  OT    -0.834000       15.9994           0
    9180 TIP3 425  TIP3 H1   HT     0.417000        1.0080           0
    9181 TIP3 425  TIP3 H2   HT     0.417000        1.0080           0
    9182 TIP3 426  TIP3 OH2  OT    -0.834000       15.9994           0
    9183 TIP3 426  TIP3 H1   HT     0.417000        1.0080           0
    9184 TIP3 426  TIP3 H2   HT     0.417000        1.0080           0
    9185 TIP3 427  TIP3 OH2  OT    -0.834000       15.9994           0
    9186 TIP3 427  TIP3 H1   HT     0.417000        1.0080           0
    9187 TIP3 427  TIP3 H2   HT     0.417000        1.0080           0
    9188 TIP3 428  TIP3 OH2  OT    -0.834000       15.9994           0
    9189 TIP3 428  TIP3 H1   HT     0.417000        1.0080           0
    9190 TIP3 428  TIP3 H2   HT     0.417000        1.0080           0
    9191 TIP3 429  TIP3 OH2  OT    -0.834000       15.9994           0
    9192 TIP3 429  TIP3 H1   HT     0.417000        1.0080           0
    9193 TIP3 429  TIP3 H2   HT     0.417000        1.0080           0
    9194 TIP3 430  TIP3 OH2  OT    -0.834000       15.9994           0
    9195 TIP3 430  TIP3 H1   HT     0.417000        1.0080           0
    9196 TIP3 430  TIP3 H2   HT     0.417000        1.0080           0
    9197 TIP3 431  TIP3 OH2  OT    -0.834000       15.9994           0
    9198 TIP3 431  TIP3 H1   HT     0.417000        1.0080           0
    9199 TIP3 431  TIP3 H2   HT     0.417000        1.0080           0
    9200 TIP3 432  TIP3 OH2  OT    -0.834000       15.9994           0
    9201 TIP3 432  TIP3 H1   HT     0.417000        1.0080           0
    9202 TIP3 432  TIP3 H2   HT     0.417000        1.0080           0
    9203 TIP3 433  TIP3 OH2  OT    -0.834000       15.9994           0
    9204 TIP3 433  TIP3 H1   HT     0.417000        1.0080           0
    9205 TIP3 433  TIP3 H2   HT     0.417000        1.0080           0
    9206 TIP3 434  TIP3 OH2  OT    -0.834000       15.9994           0
    9207 TIP3 434  TIP3 H1   HT     0.417000        1.0080           0
    9208 TIP3 434  TIP3 H2   HT     0.417000        1.0080           0
    9209 TIP3 435  TIP3 OH2  OT    -0.834000       15.9994           0
    9210 TIP3 435  TIP3 H1   HT     0.417000        1.0080           0
    9211 TIP3 435  TIP3 H2   HT     0.417000        1.0080           0
    9212 TIP3 436  TIP3 OH2  OT    -0.834000       15.9994           0
    9213 TIP3 436  TIP3 H1   HT     0.417000        1.0080           0
    9214 TIP3 436  TIP3 H2   HT     0.417000        1.0080           0
    9215 TIP3 437  TIP3 OH2  OT    -0.834000       15.9994           0
    9216 TIP3 437  TIP3 H1   HT     0.417000        1.0080           0
    9217 TIP3 437  TIP3 H2   HT     0.417000        1.0080           0
    9218 TIP3 438  TIP3 OH2  OT    -0.834000       15.9994           0
    9219 TIP3 438  TIP3 H1   HT     0.417000        1.0080           0
    9220 TIP3 438  TIP3 H2   HT     0.417000        1.0080           0
    9221 TIP3 439  TIP3 OH2  OT    -0.834000       15.9994           0
    9222 TIP3 439  TIP3 H1   HT     0.417000        1.0080           0
    9223 TIP3 439  TIP3 H2   HT     0.417000        1.0080           0
    9224 TIP3 440  TIP3 OH2  OT    -0.834000       15.9994           0
    9225 TIP3 440  TIP3 H1   HT     0.417000        1.0080           0
    9226 TIP3 440  TIP3 H2   HT     0.417000        1.0080           0
    9227 TIP3 441  TIP3 OH2  OT    -0.834000       15.9994           0
    9228 TIP3 441  TIP3 H1   HT     0.417000        1.0080           0
    9229 TIP3 441  TIP3 H2   HT     0.417000        1.0080           0
    9230 TIP3 442  TIP3 OH2  OT    -0.834000       15.9994           0
    9231 TIP3 442  TIP3 H1   HT     0.417000        1.0080           0
    9232 TIP3 442  TIP3 H2   HT     0.417000        1.0080           0
    9233 TIP3 443  TIP3 OH2  OT    -0.834000       15.9994           0
    9234 TIP3 443  TIP3 H1   HT     0.417000        1.0080           0
    9235 TIP3 443  TIP3 H2   HT     0.417000        1.0080           0
    9236 TIP3 444  TIP3 OH2  OT    -0.834000       15.9994           0
    9237 TIP3 444  TIP3 H1   HT     0.417000        1.0080           0
    9238 TIP3 444  TIP3 H2   HT     0.417000        1.0080           0
    9239 TIP3 445  TIP3 OH2  OT    -0.834000       15.9994           0
    9240 TIP3 445  TIP3 H1   HT     0.417000        1.0080           0
    9241 TIP3 445  TIP3 H2   HT     0.417000        1.0080           0
    9242 TIP3 446  TIP3 OH2  OT    -0.834000       15.9994           0
    9243 TIP3 446  TIP3 H1   HT     0.417000        1.0080           0
    9244 TIP3 446  TIP3 H2   HT     0.417000        1.0080           0
    9245 TIP3 447  TIP3 OH2  OT    -0.834000       15.9994           0
    9246 TIP3 447  TIP3 H1   HT     0.417000        1.0080           0
    9247 TIP3 447  TIP3 H2   HT     0.417000        1.0080           0
    9248 TIP3 448  TIP3 OH2  OT    -0.834000       15.9994           0
    9249 TIP3 448  TIP3 H1   HT     0.417000        1.0080           0
    9250 TIP3 448  TIP3 H2   HT     0.417000        1.0080           0
    9251 TIP3 449  TIP3 OH2  OT    -0.834000       15.9994           0
    9252 TIP3 449  TIP3 H1   HT     0.417000        1.0080           0
    9253 TIP3 449  TIP3 H2   HT     0.417000        1.0080           0
    9254 TIP3 450  TIP3 OH2  OT    -0.834000       15.9994           0
    9255 TIP3 450  TIP3 H1   HT     0.417000        1.0080           0
    9256 TIP3 450  TIP3 H2   HT     0.417000        1.0080           0
    9257 TIP3 451  TIP3 OH2  OT    -0.834000       15.9994           0
    9258 TIP3 451  TIP3 H1   HT     0.417000        1.0080           0
    9259 TIP3 451  TIP3 H2   HT     0.417000        1.0080           0
    9260 TIP3 452  TIP3 OH2  OT    -0.834000       15.9994           0
    9261 TIP3 452  TIP3 H1   HT     0.417000        1.0080           0
    9262 TIP3 452  TIP3 H2   HT     0.417000        1.0080           0
    9263 TIP3 453  TIP3 OH2  OT    -0.834000       15.9994           0
    9264 TIP3 453  TIP3 H1   HT     0.417000        1.0080           0
    9265 TIP3 453  TIP3 H2   HT     0.417000        1.0080           0
    9266 TIP3 454  TIP3 OH2  OT    -0.834000       15.9994           0
    9267 TIP3 454  TIP3 H1   HT     0.417000        1.0080           0
    9268 TIP3 454  TIP3 H2   HT     0.417000        1.0080           0
    9269 TIP3 455  TIP3 OH2  OT    -0.834000       15.9994           0
    9270 TIP3 455  TIP3 H1   HT     0.417000        1.0080           0
    9271 TIP3 455  TIP3 H2   HT     0.417000        1.0080           0
    9272 TIP3 456  TIP3 OH2  OT    -0.834000       15.9994           0
    9273 TIP3 456  TIP3 H1   HT     0.417000        1.0080           0
    9274 TIP3 456  TIP3 H2   HT     0.417000        1.0080           0
    9275 TIP3 457  TIP3 OH2  OT    -0.834000       15.9994           0
    9276 TIP3 457  TIP3 H1   HT     0.417000        1.0080           0
    9277 TIP3 457  TIP3 H2   HT     0.417000        1.0080           0
    9278 TIP3 458  TIP3 OH2  OT    -0.834000       15.9994           0
    9279 TIP3 458  TIP3 H1   HT     0.417000        1.0080           0
    9280 TIP3 458  TIP3 H2   HT     0.417000        1.0080           0
    9281 TIP3 459  TIP3 OH2  OT    -0.834000       15.9994           0
    9282 TIP3 459  TIP3 H1   HT     0.417000        1.0080           0
    9283 TIP3 459  TIP3 H2   HT     0.417000        1.0080           0
    9284 TIP3 460  TIP3 OH2  OT    -0.834000       15.9994           0
    9285 TIP3 460  TIP3 H1   HT     0.417000        1.0080           0
    9286 TIP3 460  TIP3 H2   HT     0.417000        1.0080           0
    9287 TIP3 461  TIP3 OH2  OT    -0.834000       15.9994           0
    9288 TIP3 461  TIP3 H1   HT     0.417000        1.0080           0
    9289 TIP3 461  TIP3 H2   HT     0.417000        1.0080           0
    9290 TIP3 462  TIP3 OH2  OT    -0.834000       15.9994           0
    9291 TIP3 462  TIP3 H1   HT     0.417000        1.0080           0
    9292 TIP3 462  TIP3 H2   HT     0.417000        1.0080           0
    9293 TIP3 463  TIP3 OH2  OT    -0.834000       15.9994           0
    9294 TIP3 463  TIP3 H1   HT     0.417000        1.0080           0
    9295 TIP3 463  TIP3 H2   HT     0.417000        1.0080           0
    9296 TIP3 464  TIP3 OH2  OT    -0.834000       15.9994           0
    9297 TIP3 464  TIP3 H1   HT     0.417000        1.0080           0
    9298 TIP3 464  TIP3 H2   HT     0.417000        1.0080           0
    9299 TIP3 465  TIP3 OH2  OT    -0.834000       15.9994           0
    9300 TIP3 465  TIP3 H1   HT     0.417000        1.0080           0
    9301 TIP3 465  TIP3 H2   HT     0.417000        1.0080           0
    9302 TIP3 466  TIP3 OH2  OT    -0.834000       15.9994           0
    9303 TIP3 466  TIP3 H1   HT     0.417000        1.0080           0
    9304 TIP3 466  TIP3 H2   HT     0.417000        1.0080           0
    9305 TIP3 467  TIP3 OH2  OT    -0.834000       15.9994           0
    9306 TIP3 467  TIP3 H1   HT     0.417000        1.0080           0
    9307 TIP3 467  TIP3 H2   HT     0.417000        1.0080           0
    9308 TIP3 468  TIP3 OH2  OT    -0.834000       15.9994           0
    9309 TIP3 468  TIP3 H1   HT     0.417000        1.0080           0
    9310 TIP3 468  TIP3 H2   HT     0.417000        1.0080           0
    9311 TIP3 469  TIP3 OH2  OT    -0.834000       15.9994           0
    9312 TIP3 469  TIP3 H1   HT     0.417000        1.0080           0
    9313 TIP3 469  TIP3 H2   HT     0.417000        1.0080           0
    9314 TIP3 470  TIP3 OH2  OT    -0.834000       15.9994           0
    9315 TIP3 470  TIP3 H1   HT     0.417000        1.0080           0
    9316 TIP3 470  TIP3 H2   HT     0.417000        1.0080           0
    9317 TIP3 471  TIP3 OH2  OT    -0.834000       15.9994           0
    9318 TIP3 471  TIP3 H1   HT     0.417000        1.0080           0
    9319 TIP3 471  TIP3 H2   HT     0.417000        1.0080           0
    9320 TIP3 472  TIP3 OH2  OT    -0.834000       15.9994           0
    9321 TIP3 472  TIP3 H1   HT     0.417000        1.0080           0
    9322 TIP3 472  TIP3 H2   HT     0.417000        1.0080           0
    9323 TIP3 473  TIP3 OH2  OT    -0.834000       15.9994           0
    9324 TIP3 473  TIP3 H1   HT     0.417000        1.0080           0
    9325 TIP3 473  TIP3 H2   HT     0.417000        1.0080           0
    9326 TIP3 474  TIP3 OH2  OT    -0.834000       15.9994           0
    9327 TIP3 474  TIP3 H1   HT     0.417000        1.0080           0
    9328 TIP3 474  TIP3 H2   HT     0.417000        1.0080           0
    9329 TIP3 475  TIP3 OH2  OT    -0.834000       15.9994           0
    9330 TIP3 475  TIP3 H1   HT     0.417000        1.0080           0
    9331 TIP3 475  TIP3 H2   HT     0.417000        1.0080           0
    9332 TIP3 476  TIP3 OH2  OT    -0.834000       15.9994           0
    9333 TIP3 476  TIP3 H1   HT     0.417000        1.0080           0
    9334 TIP3 476  TIP3 H2   HT     0.417000        1.0080           0
    9335 TIP3 477  TIP3 OH2  OT    -0.834000       15.9994           0
    9336 TIP3 477  TIP3 H1   HT     0.417000        1.0080           0
    9337 TIP3 477  TIP3 H2   HT     0.417000        1.0080           0
    9338 TIP3 478  TIP3 OH2  OT    -0.834000       15.9994           0
    9339 TIP3 478  TIP3 H1   HT     0.417000        1.0080           0
    9340 TIP3 478  TIP3 H2   HT     0.417000        1.0080           0
    9341 TIP3 479  TIP3 OH2  OT    -0.834000       15.9994           0
    9342 TIP3 479  TIP3 H1   HT     0.417000        1.0080           0
    9343 TIP3 479  TIP3 H2   HT     0.417000        1.0080           0
    9344 TIP3 480  TIP3 OH2  OT    -0.834000       15.9994           0
    9345 TIP3 480  TIP3 H1   HT     0.417000        1.0080           0
    9346 TIP3 480  TIP3 H2   HT     0.417000        1.0080           0
    9347 TIP3 481  TIP3 OH2  OT    -0.834000       15.9994           0
    9348 TIP3 481  TIP3 H1   HT     0.417000        1.0080           0
    9349 TIP3 481  TIP3 H2   HT     0.417000        1.0080           0
    9350 TIP3 482  TIP3 OH2  OT    -0.834000       15.9994           0
    9351 TIP3 482  TIP3 H1   HT     0.417000        1.0080           0
    9352 TIP3 482  TIP3 H2   HT     0.417000        1.0080           0
    9353 TIP3 483  TIP3 OH2  OT    -0.834000       15.9994           0
    9354 TIP3 483  TIP3 H1   HT     0.417000        1.0080           0
    9355 TIP3 483  TIP3 H2   HT     0.417000        1.0080           0
    9356 TIP3 484  TIP3 OH2  OT    -0.834000       15.9994           0
    9357 TIP3 484  TIP3 H1   HT     0.417000        1.0080           0
    9358 TIP3 484  TIP3 H2   HT     0.417000        1.0080           0
    9359 TIP3 485  TIP3 OH2  OT    -0.834000       15.9994           0
    9360 TIP3 485  TIP3 H1   HT     0.417000        1.0080           0
    9361 TIP3 485  TIP3 H2   HT     0.417000        1.0080           0
    9362 TIP3 486  TIP3 OH2  OT    -0.834000       15.9994           0
    9363 TIP3 486  TIP3 H1   HT     0.417000        1.0080           0
    9364 TIP3 486  TIP3 H2   HT     0.417000        1.0080           0
    9365 TIP3 487  TIP3 OH2  OT    -0.834000       15.9994           0
    9366 TIP3 487  TIP3 H1   HT     0.417000        1.0080           0
    9367 TIP3 487  TIP3 H2   HT     0.417000        1.0080           0
    9368 TIP3 488  TIP3 OH2  OT    -0.834000       15.9994           0
    9369 TIP3 488  TIP3 H1   HT     0.417000        1.0080           0
    9370 TIP3 488  TIP3 H2   HT     0.417000        1.0080           0
    9371 TIP3 489  TIP3 OH2  OT    -0.834000       15.9994           0
    9372 TIP3 489  TIP3 H1   HT     0.417000        1.0080           0
    9373 TIP3 489  TIP3 H2   HT     0.417000        1.0080           0
    9374 TIP3 490  TIP3 OH2  OT    -0.834000       15.9994           0
    9375 TIP3 490  TIP3 H1   HT     0.417000        1.0080           0
    9376 TIP3 490  TIP3 H2   HT     0.417000        1.0080           0
    9377 TIP3 491  TIP3 OH2  OT    -0.834000       15.9994           0
    9378 TIP3 491  TIP3 H1   HT     0.417000        1.0080           0
    9379 TIP3 491  TIP3 H2   HT     0.417000        1.0080           0
    9380 TIP3 492  TIP3 OH2  OT    -0.834000       15.9994           0
    9381 TIP3 492  TIP3 H1   HT     0.417000        1.0080           0
    9382 TIP3 492  TIP3 H2   HT     0.417000        1.0080           0
    9383 TIP3 493  TIP3 OH2  OT    -0.834000       15.9994           0
    9384 TIP3 493  TIP3 H1   HT     0.417000        1.0080           0
    9385 TIP3 493  TIP3 H2   HT     0.417000        1.0080           0
    9386 TIP3 494  TIP3 OH2  OT    -0.834000       15.9994           0
    9387 TIP3 494  TIP3 H1   HT     0.417000        1.0080           0
    9388 TIP3 494  TIP3 H2   HT     0.417000        1.0080           0
    9389 TIP3 495  TIP3 OH2  OT    -0.834000       15.9994           0
    9390 TIP3 495  TIP3 H1   HT     0.417000        1.0080           0
    9391 TIP3 495  TIP3 H2   HT     0.417000        1.0080           0
    9392 TIP3 496  TIP3 OH2  OT    -0.834000       15.9994           0
    9393 TIP3 496  TIP3 H1   HT     0.417000        1.0080           0
    9394 TIP3 496  TIP3 H2   HT     0.417000        1.0080           0
    9395 TIP3 497  TIP3 OH2  OT    -0.834000       15.9994           0
    9396 TIP3 497  TIP3 H1   HT     0.417000        1.0080           0
    9397 TIP3 497  TIP3 H2   HT     0.417000        1.0080           0
    9398 TIP3 498  TIP3 OH2  OT    -0.834000       15.9994           0
    9399 TIP3 498  TIP3 H1   HT     0.417000        1.0080           0
    9400 TIP3 498  TIP3 H2   HT     0.417000        1.0080           0
    9401 TIP3 499  TIP3 OH2  OT    -0.834000       15.9994           0
    9402 TIP3 499  TIP3 H1   HT     0.417000        1.0080           0
    9403 TIP3 499  TIP3 H2   HT     0.417000        1.0080           0
    9404 TIP3 500  TIP3 OH2  OT    -0.834000       15.9994           0
    9405 TIP3 500  TIP3 H1   HT     0.417000        1.0080           0
    9406 TIP3 500  TIP3 H2   HT     0.417000        1.0080           0
    9407 TIP3 501  TIP3 OH2  OT    -0.834000       15.9994           0
    9408 TIP3 501  TIP3 H1   HT     0.417000        1.0080           0
    9409 TIP3 501  TIP3 H2   HT     0.417000        1.0080           0
    9410 TIP3 502  TIP3 OH2  OT    -0.834000       15.9994           0
    9411 TIP3 502  TIP3 H1   HT     0.417000        1.0080           0
    9412 TIP3 502  TIP3 H2   HT     0.417000        1.0080           0
    9413 TIP3 503  TIP3 OH2  OT    -0.834000       15.9994           0
    9414 TIP3 503  TIP3 H1   HT     0.417000        1.0080           0
    9415 TIP3 503  TIP3 H2   HT     0.417000        1.0080           0
    9416 TIP3 504  TIP3 OH2  OT    -0.834000       15.9994           0
    9417 TIP3 504  TIP3 H1   HT     0.417000        1.0080           0
    9418 TIP3 504  TIP3 H2   HT     0.417000        1.0080           0
    9419 TIP3 505  TIP3 OH2  OT    -0.834000       15.9994           0
    9420 TIP3 505  TIP3 H1   HT     0.417000        1.0080           0
    9421 TIP3 505  TIP3 H2   HT     0.417000        1.0080           0
    9422 TIP3 506  TIP3 OH2  OT    -0.834000       15.9994           0
    9423 TIP3 506  TIP3 H1   HT     0.417000        1.0080           0
    9424 TIP3 506  TIP3 H2   HT     0.417000        1.0080           0
    9425 TIP3 507  TIP3 OH2  OT    -0.834000       15.9994           0
    9426 TIP3 507  TIP3 H1   HT     0.417000        1.0080           0
    9427 TIP3 507  TIP3 H2   HT     0.417000        1.0080           0
    9428 TIP3 508  TIP3 OH2  OT    -0.834000       15.9994           0
    9429 TIP3 508  TIP3 H1   HT     0.417000        1.0080           0
    9430 TIP3 508  TIP3 H2   HT     0.417000        1.0080           0
    9431 TIP3 509  TIP3 OH2  OT    -0.834000       15.9994           0
    9432 TIP3 509  TIP3 H1   HT     0.417000        1.0080           0
    9433 TIP3 509  TIP3 H2   HT     0.417000        1.0080           0
    9434 TIP3 510  TIP3 OH2  OT    -0.834000       15.9994           0
    9435 TIP3 510  TIP3 H1   HT     0.417000        1.0080           0
    9436 TIP3 510  TIP3 H2   HT     0.417000        1.0080           0
    9437 TIP3 511  TIP3 OH2  OT    -0.834000       15.9994           0
    9438 TIP3 511  TIP3 H1   HT     0.417000        1.0080           0
    9439 TIP3 511  TIP3 H2   HT     0.417000        1.0080           0
    9440 TIP3 512  TIP3 OH2  OT    -0.834000       15.9994           0
    9441 TIP3 512  TIP3 H1   HT     0.417000        1.0080           0
    9442 TIP3 512  TIP3 H2   HT     0.417000        1.0080           0
    9443 TIP3 513  TIP3 OH2  OT    -0.834000       15.9994           0
    9444 TIP3 513  TIP3 H1   HT     0.417000        1.0080           0
    9445 TIP3 513  TIP3 H2   HT     0.417000        1.0080           0
    9446 TIP3 514  TIP3 OH2  OT    -0.834000       15.9994           0
    9447 TIP3 514  TIP3 H1   HT     0.417000        1.0080           0
    9448 TIP3 514  TIP3 H2   HT     0.417000        1.0080           0
    9449 TIP3 515  TIP3 OH2  OT    -0.834000       15.9994           0
    9450 TIP3 515  TIP3 H1   HT     0.417000        1.0080           0
    9451 TIP3 515  TIP3 H2   HT     0.417000        1.0080           0
    9452 TIP3 516  TIP3 OH2  OT    -0.834000       15.9994           0
    9453 TIP3 516  TIP3 H1   HT     0.417000        1.0080           0
    9454 TIP3 516  TIP3 H2   HT     0.417000        1.0080           0
    9455 TIP3 517  TIP3 OH2  OT    -0.834000       15.9994           0
    9456 TIP3 517  TIP3 H1   HT     0.417000        1.0080           0
    9457 TIP3 517  TIP3 H2   HT     0.417000        1.0080           0
    9458 TIP3 518  TIP3 OH2  OT    -0.834000       15.9994           0
    9459 TIP3 518  TIP3 H1   HT     0.417000        1.0080           0
    9460 TIP3 518  TIP3 H2   HT     0.417000        1.0080           0
    9461 TIP3 519  TIP3 OH2  OT    -0.834000       15.9994           0
    9462 TIP3 519  TIP3 H1   HT     0.417000        1.0080           0
    9463 TIP3 519  TIP3 H2   HT     0.417000        1.0080           0
    9464 TIP3 520  TIP3 OH2  OT    -0.834000       15.9994           0
    9465 TIP3 520  TIP3 H1   HT     0.417000        1.0080           0
    9466 TIP3 520  TIP3 H2   HT     0.417000        1.0080           0
    9467 TIP3 521  TIP3 OH2  OT    -0.834000       15.9994           0
    9468 TIP3 521  TIP3 H1   HT     0.417000        1.0080           0
    9469 TIP3 521  TIP3 H2   HT     0.417000        1.0080           0
    9470 TIP3 522  TIP3 OH2  OT    -0.834000       15.9994           0
    9471 TIP3 522  TIP3 H1   HT     0.417000        1.0080           0
    9472 TIP3 522  TIP3 H2   HT     0.417000        1.0080           0
    9473 TIP3 523  TIP3 OH2  OT    -0.834000       15.9994           0
    9474 TIP3 523  TIP3 H1   HT     0.417000        1.0080           0
    9475 TIP3 523  TIP3 H2   HT     0.417000        1.0080           0
    9476 TIP3 524  TIP3 OH2  OT    -0.834000       15.9994           0
    9477 TIP3 524  TIP3 H1   HT     0.417000        1.0080           0
    9478 TIP3 524  TIP3 H2   HT     0.417000        1.0080           0
    9479 TIP3 525  TIP3 OH2  OT    -0.834000       15.9994           0
    9480 TIP3 525  TIP3 H1   HT     0.417000        1.0080           0
    9481 TIP3 525  TIP3 H2   HT     0.417000        1.0080           0
    9482 TIP3 526  TIP3 OH2  OT    -0.834000       15.9994           0
    9483 TIP3 526  TIP3 H1   HT     0.417000        1.0080           0
    9484 TIP3 526  TIP3 H2   HT     0.417000        1.0080           0
    9485 TIP3 527  TIP3 OH2  OT    -0.834000       15.9994           0
    9486 TIP3 527  TIP3 H1   HT     0.417000        1.0080           0
    9487 TIP3 527  TIP3 H2   HT     0.417000        1.0080           0
    9488 TIP3 528  TIP3 OH2  OT    -0.834000       15.9994           0
    9489 TIP3 528  TIP3 H1   HT     0.417000        1.0080           0
    9490 TIP3 528  TIP3 H2   HT     0.417000        1.0080           0
    9491 TIP3 529  TIP3 OH2  OT    -0.834000       15.9994           0
    9492 TIP3 529  TIP3 H1   HT     0.417000        1.0080           0
    9493 TIP3 529  TIP3 H2   HT     0.417000        1.0080           0
    9494 TIP3 530  TIP3 OH2  OT    -0.834000       15.9994           0
    9495 TIP3 530  TIP3 H1   HT     0.417000        1.0080           0
    9496 TIP3 530  TIP3 H2   HT     0.417000        1.0080           0
    9497 TIP3 531  TIP3 OH2  OT    -0.834000       15.9994           0
    9498 TIP3 531  TIP3 H1   HT     0.417000        1.0080           0
    9499 TIP3 531  TIP3 H2   HT     0.417000        1.0080           0
    9500 TIP3 532  TIP3 OH2  OT    -0.834000       15.9994           0
    9501 TIP3 532  TIP3 H1   HT     0.417000        1.0080           0
    9502 TIP3 532  TIP3 H2   HT     0.417000        1.0080           0
    9503 TIP3 533  TIP3 OH2  OT    -0.834000       15.9994           0
    9504 TIP3 533  TIP3 H1   HT     0.417000        1.0080           0
    9505 TIP3 533  TIP3 H2   HT     0.417000        1.0080           0
    9506 TIP3 534  TIP3 OH2  OT    -0.834000       15.9994           0
    9507 TIP3 534  TIP3 H1   HT     0.417000        1.0080           0
    9508 TIP3 534  TIP3 H2   HT     0.417000        1.0080           0
    9509 TIP3 535  TIP3 OH2  OT    -0.834000       15.9994           0
    9510 TIP3 535  TIP3 H1   HT     0.417000        1.0080           0
    9511 TIP3 535  TIP3 H2   HT     0.417000        1.0080           0
    9512 TIP3 536  TIP3 OH2  OT    -0.834000       15.9994           0
    9513 TIP3 536  TIP3 H1   HT     0.417000        1.0080           0
    9514 TIP3 536  TIP3 H2   HT     0.417000        1.0080           0
    9515 TIP3 537  TIP3 OH2  OT    -0.834000       15.9994           0
    9516 TIP3 537  TIP3 H1   HT     0.417000        1.0080           0
    9517 TIP3 537  TIP3 H2   HT     0.417000        1.0080           0
    9518 TIP3 538  TIP3 OH2  OT    -0.834000       15.9994           0
    9519 TIP3 538  TIP3 H1   HT     0.417000        1.0080           0
    9520 TIP3 538  TIP3 H2   HT     0.417000        1.0080           0
    9521 TIP3 539  TIP3 OH2  OT    -0.834000       15.9994           0
    9522 TIP3 539  TIP3 H1   HT     0.417000        1.0080           0
    9523 TIP3 539  TIP3 H2   HT     0.417000        1.0080           0
    9524 TIP3 540  TIP3 OH2  OT    -0.834000       15.9994           0
    9525 TIP3 540  TIP3 H1   HT     0.417000        1.0080           0
    9526 TIP3 540  TIP3 H2   HT     0.417000        1.0080           0
    9527 TIP3 541  TIP3 OH2  OT    -0.834000       15.9994           0
    9528 TIP3 541  TIP3 H1   HT     0.417000        1.0080           0
    9529 TIP3 541  TIP3 H2   HT     0.417000        1.0080           0
    9530 TIP3 542  TIP3 OH2  OT    -0.834000       15.9994           0
    9531 TIP3 542  TIP3 H1   HT     0.417000        1.0080           0
    9532 TIP3 542  TIP3 H2   HT     0.417000        1.0080           0
    9533 TIP3 543  TIP3 OH2  OT    -0.834000       15.9994           0
    9534 TIP3 543  TIP3 H1   HT     0.417000        1.0080           0
    9535 TIP3 543  TIP3 H2   HT     0.417000        1.0080           0
    9536 TIP3 544  TIP3 OH2  OT    -0.834000       15.9994           0
    9537 TIP3 544  TIP3 H1   HT     0.417000        1.0080           0
    9538 TIP3 544  TIP3 H2   HT     0.417000        1.0080           0
    9539 TIP3 545  TIP3 OH2  OT    -0.834000       15.9994           0
    9540 TIP3 545  TIP3 H1   HT     0.417000        1.0080           0
    9541 TIP3 545  TIP3 H2   HT     0.417000        1.0080           0
    9542 TIP3 546  TIP3 OH2  OT    -0.834000       15.9994           0
    9543 TIP3 546  TIP3 H1   HT     0.417000        1.0080           0
    9544 TIP3 546  TIP3 H2   HT     0.417000        1.0080           0
    9545 TIP3 547  TIP3 OH2  OT    -0.834000       15.9994           0
    9546 TIP3 547  TIP3 H1   HT     0.417000        1.0080           0
    9547 TIP3 547  TIP3 H2   HT     0.417000        1.0080           0
    9548 TIP3 548  TIP3 OH2  OT    -0.834000       15.9994           0
    9549 TIP3 548  TIP3 H1   HT     0.417000        1.0080           0
    9550 TIP3 548  TIP3 H2   HT     0.417000        1.0080           0
    9551 TIP3 549  TIP3 OH2  OT    -0.834000       15.9994           0
    9552 TIP3 549  TIP3 H1   HT     0.417000        1.0080           0
    9553 TIP3 549  TIP3 H2   HT     0.417000        1.0080           0
    9554 TIP3 550  TIP3 OH2  OT    -0.834000       15.9994           0
    9555 TIP3 550  TIP3 H1   HT     0.417000        1.0080           0
    9556 TIP3 550  TIP3 H2   HT     0.417000        1.0080           0
    9557 TIP3 551  TIP3 OH2  OT    -0.834000       15.9994           0
    9558 TIP3 551  TIP3 H1   HT     0.417000        1.0080           0
    9559 TIP3 551  TIP3 H2   HT     0.417000        1.0080           0
    9560 TIP3 552  TIP3 OH2  OT    -0.834000       15.9994           0
    9561 TIP3 552  TIP3 H1   HT     0.417000        1.0080           0
    9562 TIP3 552  TIP3 H2   HT     0.417000        1.0080           0
    9563 TIP3 553  TIP3 OH2  OT    -0.834000       15.9994           0
    9564 TIP3 553  TIP3 H1   HT     0.417000        1.0080           0
    9565 TIP3 553  TIP3 H2   HT     0.417000        1.0080           0
    9566 TIP3 554  TIP3 OH2  OT    -0.834000       15.9994           0
    9567 TIP3 554  TIP3 H1   HT     0.417000        1.0080           0
    9568 TIP3 554  TIP3 H2   HT     0.417000        1.0080           0
    9569 TIP3 555  TIP3 OH2  OT    -0.834000       15.9994           0
    9570 TIP3 555  TIP3 H1   HT     0.417000        1.0080           0
    9571 TIP3 555  TIP3 H2   HT     0.417000        1.0080           0
    9572 TIP3 556  TIP3 OH2  OT    -0.834000       15.9994           0
    9573 TIP3 556  TIP3 H1   HT     0.417000        1.0080           0
    9574 TIP3 556  TIP3 H2   HT     0.417000        1.0080           0
    9575 TIP3 557  TIP3 OH2  OT    -0.834000       15.9994           0
    9576 TIP3 557  TIP3 H1   HT     0.417000        1.0080           0
    9577 TIP3 557  TIP3 H2   HT     0.417000        1.0080           0
    9578 TIP3 558  TIP3 OH2  OT    -0.834000       15.9994           0
    9579 TIP3 558  TIP3 H1   HT     0.417000        1.0080           0
    9580 TIP3 558  TIP3 H2   HT     0.417000        1.0080           0
    9581 TIP3 559  TIP3 OH2  OT    -0.834000       15.9994           0
    9582 TIP3 559  TIP3 H1   HT     0.417000        1.0080           0
    9583 TIP3 559  TIP3 H2   HT     0.417000        1.0080           0
    9584 TIP3 560  TIP3 OH2  OT    -0.834000       15.9994           0
    9585 TIP3 560  TIP3 H1   HT     0.417000        1.0080           0
    9586 TIP3 560  TIP3 H2   HT     0.417000        1.0080           0
    9587 TIP3 561  TIP3 OH2  OT    -0.834000       15.9994           0
    9588 TIP3 561  TIP3 H1   HT     0.417000        1.0080           0
    9589 TIP3 561  TIP3 H2   HT     0.417000        1.0080           0
    9590 TIP3 562  TIP3 OH2  OT    -0.834000       15.9994           0
    9591 TIP3 562  TIP3 H1   HT     0.417000        1.0080           0
    9592 TIP3 562  TIP3 H2   HT     0.417000        1.0080           0
    9593 TIP3 563  TIP3 OH2  OT    -0.834000       15.9994           0
    9594 TIP3 563  TIP3 H1   HT     0.417000        1.0080           0
    9595 TIP3 563  TIP3 H2   HT     0.417000        1.0080           0
    9596 TIP3 564  TIP3 OH2  OT    -0.834000       15.9994           0
    9597 TIP3 564  TIP3 H1   HT     0.417000        1.0080           0
    9598 TIP3 564  TIP3 H2   HT     0.417000        1.0080           0
    9599 TIP3 565  TIP3 OH2  OT    -0.834000       15.9994           0
    9600 TIP3 565  TIP3 H1   HT     0.417000        1.0080           0
    9601 TIP3 565  TIP3 H2   HT     0.417000        1.0080           0
    9602 TIP3 566  TIP3 OH2  OT    -0.834000       15.9994           0
    9603 TIP3 566  TIP3 H1   HT     0.417000        1.0080           0
    9604 TIP3 566  TIP3 H2   HT     0.417000        1.0080           0
    9605 TIP3 567  TIP3 OH2  OT    -0.834000       15.9994           0
    9606 TIP3 567  TIP3 H1   HT     0.417000        1.0080           0
    9607 TIP3 567  TIP3 H2   HT     0.417000        1.0080           0
    9608 TIP3 568  TIP3 OH2  OT    -0.834000       15.9994           0
    9609 TIP3 568  TIP3 H1   HT     0.417000        1.0080           0
    9610 TIP3 568  TIP3 H2   HT     0.417000        1.0080           0
    9611 TIP3 569  TIP3 OH2  OT    -0.834000       15.9994           0
    9612 TIP3 569  TIP3 H1   HT     0.417000        1.0080           0
    9613 TIP3 569  TIP3 H2   HT     0.417000        1.0080           0
    9614 TIP3 570  TIP3 OH2  OT    -0.834000       15.9994           0
    9615 TIP3 570  TIP3 H1   HT     0.417000        1.0080           0
    9616 TIP3 570  TIP3 H2   HT     0.417000        1.0080           0
    9617 TIP3 571  TIP3 OH2  OT    -0.834000       15.9994           0
    9618 TIP3 571  TIP3 H1   HT     0.417000        1.0080           0
    9619 TIP3 571  TIP3 H2   HT     0.417000        1.0080           0
    9620 TIP3 572  TIP3 OH2  OT    -0.834000       15.9994           0
    9621 TIP3 572  TIP3 H1   HT     0.417000        1.0080           0
    9622 TIP3 572  TIP3 H2   HT     0.417000        1.0080           0
    9623 TIP3 573  TIP3 OH2  OT    -0.834000       15.9994           0
    9624 TIP3 573  TIP3 H1   HT     0.417000        1.0080           0
    9625 TIP3 573  TIP3 H2   HT     0.417000        1.0080           0
    9626 TIP3 574  TIP3 OH2  OT    -0.834000       15.9994           0
    9627 TIP3 574  TIP3 H1   HT     0.417000        1.0080           0
    9628 TIP3 574  TIP3 H2   HT     0.417000        1.0080           0
    9629 TIP3 575  TIP3 OH2  OT    -0.834000       15.9994           0
    9630 TIP3 575  TIP3 H1   HT     0.417000        1.0080           0
    9631 TIP3 575  TIP3 H2   HT     0.417000        1.0080           0
    9632 TIP3 576  TIP3 OH2  OT    -0.834000       15.9994           0
    9633 TIP3 576  TIP3 H1   HT     0.417000        1.0080           0
    9634 TIP3 576  TIP3 H2   HT     0.417000        1.0080           0
    9635 TIP3 577  TIP3 OH2  OT    -0.834000       15.9994           0
    9636 TIP3 577  TIP3 H1   HT     0.417000        1.0080           0
    9637 TIP3 577  TIP3 H2   HT     0.417000        1.0080           0
    9638 TIP3 578  TIP3 OH2  OT    -0.834000       15.9994           0
    9639 TIP3 578  TIP3 H1   HT     0.417000        1.0080           0
    9640 TIP3 578  TIP3 H2   HT     0.417000        1.0080           0
    9641 TIP3 579  TIP3 OH2  OT    -0.834000       15.9994           0
    9642 TIP3 579  TIP3 H1   HT     0.417000        1.0080           0
    9643 TIP3 579  TIP3 H2   HT     0.417000        1.0080           0
    9644 TIP3 580  TIP3 OH2  OT    -0.834000       15.9994           0
    9645 TIP3 580  TIP3 H1   HT     0.417000        1.0080           0
    9646 TIP3 580  TIP3 H2   HT     0.417000        1.0080           0
    9647 TIP3 581  TIP3 OH2  OT    -0.834000       15.9994           0
    9648 TIP3 581  TIP3 H1   HT     0.417000        1.0080           0
    9649 TIP3 581  TIP3 H2   HT     0.417000        1.0080           0
    9650 TIP3 582  TIP3 OH2  OT    -0.834000       15.9994           0
    9651 TIP3 582  TIP3 H1   HT     0.417000        1.0080           0
    9652 TIP3 582  TIP3 H2   HT     0.417000        1.0080           0
    9653 TIP3 583  TIP3 OH2  OT    -0.834000       15.9994           0
    9654 TIP3 583  TIP3 H1   HT     0.417000        1.0080           0
    9655 TIP3 583  TIP3 H2   HT     0.417000        1.0080           0
    9656 TIP3 584  TIP3 OH2  OT    -0.834000       15.9994           0
    9657 TIP3 584  TIP3 H1   HT     0.417000        1.0080           0
    9658 TIP3 584  TIP3 H2   HT     0.417000        1.0080           0
    9659 TIP3 585  TIP3 OH2  OT    -0.834000       15.9994           0
    9660 TIP3 585  TIP3 H1   HT     0.417000        1.0080           0
    9661 TIP3 585  TIP3 H2   HT     0.417000        1.0080           0
    9662 TIP3 586  TIP3 OH2  OT    -0.834000       15.9994           0
    9663 TIP3 586  TIP3 H1   HT     0.417000        1.0080           0
    9664 TIP3 586  TIP3 H2   HT     0.417000        1.0080           0
    9665 TIP3 587  TIP3 OH2  OT    -0.834000       15.9994           0
    9666 TIP3 587  TIP3 H1   HT     0.417000        1.0080           0
    9667 TIP3 587  TIP3 H2   HT     0.417000        1.0080           0
    9668 TIP3 588  TIP3 OH2  OT    -0.834000       15.9994           0
    9669 TIP3 588  TIP3 H1   HT     0.417000        1.0080           0
    9670 TIP3 588  TIP3 H2   HT     0.417000        1.0080           0
    9671 TIP3 589  TIP3 OH2  OT    -0.834000       15.9994           0
    9672 TIP3 589  TIP3 H1   HT     0.417000        1.0080           0
    9673 TIP3 589  TIP3 H2   HT     0.417000        1.0080           0
    9674 TIP3 590  TIP3 OH2  OT    -0.834000       15.9994           0
    9675 TIP3 590  TIP3 H1   HT     0.417000        1.0080           0
    9676 TIP3 590  TIP3 H2   HT     0.417000        1.0080           0
    9677 TIP3 591  TIP3 OH2  OT    -0.834000       15.9994           0
    9678 TIP3 591  TIP3 H1   HT     0.417000        1.0080           0
    9679 TIP3 591  TIP3 H2   HT     0.417000        1.0080           0
    9680 TIP3 592  TIP3 OH2  OT    -0.834000       15.9994           0
    9681 TIP3 592  TIP3 H1   HT     0.417000        1.0080           0
    9682 TIP3 592  TIP3 H2   HT     0.417000        1.0080           0
    9683 TIP3 593  TIP3 OH2  OT    -0.834000       15.9994           0
    9684 TIP3 593  TIP3 H1   HT     0.417000        1.0080           0
    9685 TIP3 593  TIP3 H2   HT     0.417000        1.0080           0
    9686 TIP3 594  TIP3 OH2  OT    -0.834000       15.9994           0
    9687 TIP3 594  TIP3 H1   HT     0.417000        1.0080           0
    9688 TIP3 594  TIP3 H2   HT     0.417000        1.0080           0
    9689 TIP3 595  TIP3 OH2  OT    -0.834000       15.9994           0
    9690 TIP3 595  TIP3 H1   HT     0.417000        1.0080           0
    9691 TIP3 595  TIP3 H2   HT     0.417000        1.0080           0
    9692 TIP3 596  TIP3 OH2  OT    -0.834000       15.9994           0
    9693 TIP3 596  TIP3 H1   HT     0.417000        1.0080           0
    9694 TIP3 596  TIP3 H2   HT     0.417000        1.0080           0
    9695 TIP3 597  TIP3 OH2  OT    -0.834000       15.9994           0
    9696 TIP3 597  TIP3 H1   HT     0.417000        1.0080           0
    9697 TIP3 597  TIP3 H2   HT     0.417000        1.0080           0
    9698 TIP3 598  TIP3 OH2  OT    -0.834000       15.9994           0
    9699 TIP3 598  TIP3 H1   HT     0.417000        1.0080           0
    9700 TIP3 598  TIP3 H2   HT     0.417000        1.0080           0
    9701 TIP3 599  TIP3 OH2  OT    -0.834000       15.9994           0
    9702 TIP3 599  TIP3 H1   HT     0.417000        1.0080           0
    9703 TIP3 599  TIP3 H2   HT     0.417000        1.0080           0
    9704 TIP3 600  TIP3 OH2  OT    -0.834000       15.9994           0
    9705 TIP3 600  TIP3 H1   HT     0.417000        1.0080           0
    9706 TIP3 600  TIP3 H2   HT     0.417000        1.0080           0
    9707 TIP3 601  TIP3 OH2  OT    -0.834000       15.9994           0
    9708 TIP3 601  TIP3 H1   HT     0.417000        1.0080           0
    9709 TIP3 601  TIP3 H2   HT     0.417000        1.0080           0
    9710 TIP3 602  TIP3 OH2  OT    -0.834000       15.9994           0
    9711 TIP3 602  TIP3 H1   HT     0.417000        1.0080           0
    9712 TIP3 602  TIP3 H2   HT     0.417000        1.0080           0
    9713 TIP3 603  TIP3 OH2  OT    -0.834000       15.9994           0
    9714 TIP3 603  TIP3 H1   HT     0.417000        1.0080           0
    9715 TIP3 603  TIP3 H2   HT     0.417000        1.0080           0
    9716 TIP3 604  TIP3 OH2  OT    -0.834000       15.9994           0
    9717 TIP3 604  TIP3 H1   HT     0.417000        1.0080           0
    9718 TIP3 604  TIP3 H2   HT     0.417000        1.0080           0
    9719 TIP3 605  TIP3 OH2  OT    -0.834000       15.9994           0
    9720 TIP3 605  TIP3 H1   HT     0.417000        1.0080           0
    9721 TIP3 605  TIP3 H2   HT     0.417000        1.0080           0
    9722 TIP3 606  TIP3 OH2  OT    -0.834000       15.9994           0
    9723 TIP3 606  TIP3 H1   HT     0.417000        1.0080           0
    9724 TIP3 606  TIP3 H2   HT     0.417000        1.0080           0
    9725 TIP3 607  TIP3 OH2  OT    -0.834000       15.9994           0
    9726 TIP3 607  TIP3 H1   HT     0.417000        1.0080           0
    9727 TIP3 607  TIP3 H2   HT     0.417000        1.0080           0
    9728 TIP3 608  TIP3 OH2  OT    -0.834000       15.9994           0
    9729 TIP3 608  TIP3 H1   HT     0.417000        1.0080           0
    9730 TIP3 608  TIP3 H2   HT     0.417000        1.0080           0
    9731 TIP3 609  TIP3 OH2  OT    -0.834000       15.9994           0
    9732 TIP3 609  TIP3 H1   HT     0.417000        1.0080           0
    9733 TIP3 609  TIP3 H2   HT     0.417000        1.0080           0
    9734 TIP3 610  TIP3 OH2  OT    -0.834000       15.9994           0
    9735 TIP3 610  TIP3 H1   HT     0.417000        1.0080           0
    9736 TIP3 610  TIP3 H2   HT     0.417000        1.0080           0
    9737 TIP3 611  TIP3 OH2  OT    -0.834000       15.9994           0
    9738 TIP3 611  TIP3 H1   HT     0.417000        1.0080           0
    9739 TIP3 611  TIP3 H2   HT     0.417000        1.0080           0
    9740 TIP3 612  TIP3 OH2  OT    -0.834000       15.9994           0
    9741 TIP3 612  TIP3 H1   HT     0.417000        1.0080           0
    9742 TIP3 612  TIP3 H2   HT     0.417000        1.0080           0
    9743 TIP3 613  TIP3 OH2  OT    -0.834000       15.9994           0
    9744 TIP3 613  TIP3 H1   HT     0.417000        1.0080           0
    9745 TIP3 613  TIP3 H2   HT     0.417000        1.0080           0
    9746 TIP3 614  TIP3 OH2  OT    -0.834000       15.9994           0
    9747 TIP3 614  TIP3 H1   HT     0.417000        1.0080           0
    9748 TIP3 614  TIP3 H2   HT     0.417000        1.0080           0
    9749 TIP3 615  TIP3 OH2  OT    -0.834000       15.9994           0
    9750 TIP3 615  TIP3 H1   HT     0.417000        1.0080           0
    9751 TIP3 615  TIP3 H2   HT     0.417000        1.0080           0
    9752 TIP3 616  TIP3 OH2  OT    -0.834000       15.9994           0
    9753 TIP3 616  TIP3 H1   HT     0.417000        1.0080           0
    9754 TIP3 616  TIP3 H2   HT     0.417000        1.0080           0
    9755 TIP3 617  TIP3 OH2  OT    -0.834000       15.9994           0
    9756 TIP3 617  TIP3 H1   HT     0.417000        1.0080           0
    9757 TIP3 617  TIP3 H2   HT     0.417000        1.0080           0
    9758 TIP3 618  TIP3 OH2  OT    -0.834000       15.9994           0
    9759 TIP3 618  TIP3 H1   HT     0.417000        1.0080           0
    9760 TIP3 618  TIP3 H2   HT     0.417000        1.0080           0
    9761 TIP3 619  TIP3 OH2  OT    -0.834000       15.9994           0
    9762 TIP3 619  TIP3 H1   HT     0.417000        1.0080           0
    9763 TIP3 619  TIP3 H2   HT     0.417000        1.0080           0
    9764 TIP3 620  TIP3 OH2  OT    -0.834000       15.9994           0
    9765 TIP3 620  TIP3 H1   HT     0.417000        1.0080           0
    9766 TIP3 620  TIP3 H2   HT     0.417000        1.0080           0
    9767 TIP3 621  TIP3 OH2  OT    -0.834000       15.9994           0
    9768 TIP3 621  TIP3 H1   HT     0.417000        1.0080           0
    9769 TIP3 621  TIP3 H2   HT     0.417000        1.0080           0
    9770 TIP3 622  TIP3 OH2  OT    -0.834000       15.9994           0
    9771 TIP3 622  TIP3 H1   HT     0.417000        1.0080           0
    9772 TIP3 622  TIP3 H2   HT     0.417000        1.0080           0
    9773 TIP3 623  TIP3 OH2  OT    -0.834000       15.9994           0
    9774 TIP3 623  TIP3 H1   HT     0.417000        1.0080           0
    9775 TIP3 623  TIP3 H2   HT     0.417000        1.0080           0
    9776 TIP3 624  TIP3 OH2  OT    -0.834000       15.9994           0
    9777 TIP3 624  TIP3 H1   HT     0.417000        1.0080           0
    9778 TIP3 624  TIP3 H2   HT     0.417000        1.0080           0
    9779 TIP3 625  TIP3 OH2  OT    -0.834000       15.9994           0
    9780 TIP3 625  TIP3 H1   HT     0.417000        1.0080           0
    9781 TIP3 625  TIP3 H2   HT     0.417000        1.0080           0
    9782 TIP3 626  TIP3 OH2  OT    -0.834000       15.9994           0
    9783 TIP3 626  TIP3 H1   HT     0.417000        1.0080           0
    9784 TIP3 626  TIP3 H2   HT     0.417000        1.0080           0
    9785 TIP3 627  TIP3 OH2  OT    -0.834000       15.9994           0
    9786 TIP3 627  TIP3 H1   HT     0.417000        1.0080           0
    9787 TIP3 627  TIP3 H2   HT     0.417000        1.0080           0
    9788 TIP3 628  TIP3 OH2  OT    -0.834000       15.9994           0
    9789 TIP3 628  TIP3 H1   HT     0.417000        1.0080           0
    9790 TIP3 628  TIP3 H2   HT     0.417000        1.0080           0
    9791 TIP3 629  TIP3 OH2  OT    -0.834000       15.9994           0
    9792 TIP3 629  TIP3 H1   HT     0.417000        1.0080           0
    9793 TIP3 629  TIP3 H2   HT     0.417000        1.0080           0
    9794 TIP3 630  TIP3 OH2  OT    -0.834000       15.9994           0
    9795 TIP3 630  TIP3 H1   HT     0.417000        1.0080           0
    9796 TIP3 630  TIP3 H2   HT     0.417000        1.0080           0
    9797 TIP3 631  TIP3 OH2  OT    -0.834000       15.9994           0
    9798 TIP3 631  TIP3 H1   HT     0.417000        1.0080           0
    9799 TIP3 631  TIP3 H2   HT     0.417000        1.0080           0
    9800 TIP3 632  TIP3 OH2  OT    -0.834000       15.9994           0
    9801 TIP3 632  TIP3 H1   HT     0.417000        1.0080           0
    9802 TIP3 632  TIP3 H2   HT     0.417000        1.0080           0
    9803 TIP3 633  TIP3 OH2  OT    -0.834000       15.9994           0
    9804 TIP3 633  TIP3 H1   HT     0.417000        1.0080           0
    9805 TIP3 633  TIP3 H2   HT     0.417000        1.0080           0
    9806 TIP3 634  TIP3 OH2  OT    -0.834000       15.9994           0
    9807 TIP3 634  TIP3 H1   HT     0.417000        1.0080           0
    9808 TIP3 634  TIP3 H2   HT     0.417000        1.0080           0
    9809 TIP3 635  TIP3 OH2  OT    -0.834000       15.9994           0
    9810 TIP3 635  TIP3 H1   HT     0.417000        1.0080           0
    9811 TIP3 635  TIP3 H2   HT     0.417000        1.0080           0
    9812 TIP3 636  TIP3 OH2  OT    -0.834000       15.9994           0
    9813 TIP3 636  TIP3 H1   HT     0.417000        1.0080           0
    9814 TIP3 636  TIP3 H2   HT     0.417000        1.0080           0
    9815 TIP3 637  TIP3 OH2  OT    -0.834000       15.9994           0
    9816 TIP3 637  TIP3 H1   HT     0.417000        1.0080           0
    9817 TIP3 637  TIP3 H2   HT     0.417000        1.0080           0
    9818 TIP3 638  TIP3 OH2  OT    -0.834000       15.9994           0
    9819 TIP3 638  TIP3 H1   HT     0.417000        1.0080           0
    9820 TIP3 638  TIP3 H2   HT     0.417000        1.0080           0
    9821 TIP3 639  TIP3 OH2  OT    -0.834000       15.9994           0
    9822 TIP3 639  TIP3 H1   HT     0.417000        1.0080           0
    9823 TIP3 639  TIP3 H2   HT     0.417000        1.0080           0
    9824 TIP3 640  TIP3 OH2  OT    -0.834000       15.9994           0
    9825 TIP3 640  TIP3 H1   HT     0.417000        1.0080           0
    9826 TIP3 640  TIP3 H2   HT     0.417000        1.0080           0
    9827 TIP3 641  TIP3 OH2  OT    -0.834000       15.9994           0
    9828 TIP3 641  TIP3 H1   HT     0.417000        1.0080           0
    9829 TIP3 641  TIP3 H2   HT     0.417000        1.0080           0
    9830 TIP3 642  TIP3 OH2  OT    -0.834000       15.9994           0
    9831 TIP3 642  TIP3 H1   HT     0.417000        1.0080           0
    9832 TIP3 642  TIP3 H2   HT     0.417000        1.0080           0
    9833 TIP3 643  TIP3 OH2  OT    -0.834000       15.9994           0
    9834 TIP3 643  TIP3 H1   HT     0.417000        1.0080           0
    9835 TIP3 643  TIP3 H2   HT     0.417000        1.0080           0
    9836 TIP3 644  TIP3 OH2  OT    -0.834000       15.9994           0
    9837 TIP3 644  TIP3 H1   HT     0.417000        1.0080           0
    9838 TIP3 644  TIP3 H2   HT     0.417000        1.0080           0
    9839 TIP3 645  TIP3 OH2  OT    -0.834000       15.9994           0
    9840 TIP3 645  TIP3 H1   HT     0.417000        1.0080           0
    9841 TIP3 645  TIP3 H2   HT     0.417000        1.0080           0
    9842 TIP3 646  TIP3 OH2  OT    -0.834000       15.9994           0
    9843 TIP3 646  TIP3 H1   HT     0.417000        1.0080           0
    9844 TIP3 646  TIP3 H2   HT     0.417000        1.0080           0
    9845 TIP3 647  TIP3 OH2  OT    -0.834000       15.9994           0
    9846 TIP3 647  TIP3 H1   HT     0.417000        1.0080           0
    9847 TIP3 647  TIP3 H2   HT     0.417000        1.0080           0
    9848 TIP3 648  TIP3 OH2  OT    -0.834000       15.9994           0
    9849 TIP3 648  TIP3 H1   HT     0.417000        1.0080           0
    9850 TIP3 648  TIP3 H2   HT     0.417000        1.0080           0
    9851 TIP3 649  TIP3 OH2  OT    -0.834000       15.9994           0
    9852 TIP3 649  TIP3 H1   HT     0.417000        1.0080           0
    9853 TIP3 649  TIP3 H2   HT     0.417000        1.0080           0
    9854 TIP3 650  TIP3 OH2  OT    -0.834000       15.9994           0
    9855 TIP3 650  TIP3 H1   HT     0.417000        1.0080           0
    9856 TIP3 650  TIP3 H2   HT     0.417000        1.0080           0
    9857 TIP3 651  TIP3 OH2  OT    -0.834000       15.9994           0
    9858 TIP3 651  TIP3 H1   HT     0.417000        1.0080           0
    9859 TIP3 651  TIP3 H2   HT     0.417000        1.0080           0
    9860 TIP3 652  TIP3 OH2  OT    -0.834000       15.9994           0
    9861 TIP3 652  TIP3 H1   HT     0.417000        1.0080           0
    9862 TIP3 652  TIP3 H2   HT     0.417000        1.0080           0
    9863 TIP3 653  TIP3 OH2  OT    -0.834000       15.9994           0
    9864 TIP3 653  TIP3 H1   HT     0.417000        1.0080           0
    9865 TIP3 653  TIP3 H2   HT     0.417000        1.0080           0
    9866 TIP3 654  TIP3 OH2  OT    -0.834000       15.9994           0
    9867 TIP3 654  TIP3 H1   HT     0.417000        1.0080           0
    9868 TIP3 654  TIP3 H2   HT     0.417000        1.0080           0
    9869 TIP3 655  TIP3 OH2  OT    -0.834000       15.9994           0
    9870 TIP3 655  TIP3 H1   HT     0.417000        1.0080           0
    9871 TIP3 655  TIP3 H2   HT     0.417000        1.0080           0
    9872 TIP3 656  TIP3 OH2  OT    -0.834000       15.9994           0
    9873 TIP3 656  TIP3 H1   HT     0.417000        1.0080           0
    9874 TIP3 656  TIP3 H2   HT     0.417000        1.0080           0
    9875 TIP3 657  TIP3 OH2  OT    -0.834000       15.9994           0
    9876 TIP3 657  TIP3 H1   HT     0.417000        1.0080           0
    9877 TIP3 657  TIP3 H2   HT     0.417000        1.0080           0
    9878 TIP3 658  TIP3 OH2  OT    -0.834000       15.9994           0
    9879 TIP3 658  TIP3 H1   HT     0.417000        1.0080           0
    9880 TIP3 658  TIP3 H2   HT     0.417000        1.0080           0
    9881 TIP3 659  TIP3 OH2  OT    -0.834000       15.9994           0
    9882 TIP3 659  TIP3 H1   HT     0.417000        1.0080           0
    9883 TIP3 659  TIP3 H2   HT     0.417000        1.0080           0
    9884 TIP3 660  TIP3 OH2  OT    -0.834000       15.9994           0
    9885 TIP3 660  TIP3 H1   HT     0.417000        1.0080           0
    9886 TIP3 660  TIP3 H2   HT     0.417000        1.0080           0
    9887 TIP3 661  TIP3 OH2  OT    -0.834000       15.9994           0
    9888 TIP3 661  TIP3 H1   HT     0.417000        1.0080           0
    9889 TIP3 661  TIP3 H2   HT     0.417000        1.0080           0
    9890 TIP3 662  TIP3 OH2  OT    -0.834000       15.9994           0
    9891 TIP3 662  TIP3 H1   HT     0.417000        1.0080           0
    9892 TIP3 662  TIP3 H2   HT     0.417000        1.0080           0
    9893 TIP3 663  TIP3 OH2  OT    -0.834000       15.9994           0
    9894 TIP3 663  TIP3 H1   HT     0.417000        1.0080           0
    9895 TIP3 663  TIP3 H2   HT     0.417000        1.0080           0
    9896 TIP3 664  TIP3 OH2  OT    -0.834000       15.9994           0
    9897 TIP3 664  TIP3 H1   HT     0.417000        1.0080           0
    9898 TIP3 664  TIP3 H2   HT     0.417000        1.0080           0
    9899 TIP3 665  TIP3 OH2  OT    -0.834000       15.9994           0
    9900 TIP3 665  TIP3 H1   HT     0.417000        1.0080           0
    9901 TIP3 665  TIP3 H2   HT     0.417000        1.0080           0
    9902 TIP3 666  TIP3 OH2  OT    -0.834000       15.9994           0
    9903 TIP3 666  TIP3 H1   HT     0.417000        1.0080           0
    9904 TIP3 666  TIP3 H2   HT     0.417000        1.0080           0
    9905 TIP3 667  TIP3 OH2  OT    -0.834000       15.9994           0
    9906 TIP3 667  TIP3 H1   HT     0.417000        1.0080           0
    9907 TIP3 667  TIP3 H2   HT     0.417000        1.0080           0
    9908 TIP3 668  TIP3 OH2  OT    -0.834000       15.9994           0
    9909 TIP3 668  TIP3 H1   HT     0.417000        1.0080           0
    9910 TIP3 668  TIP3 H2   HT     0.417000        1.0080           0
    9911 TIP3 669  TIP3 OH2  OT    -0.834000       15.9994           0
    9912 TIP3 669  TIP3 H1   HT     0.417000        1.0080           0
    9913 TIP3 669  TIP3 H2   HT     0.417000        1.0080           0
    9914 TIP3 670  TIP3 OH2  OT    -0.834000       15.9994           0
    9915 TIP3 670  TIP3 H1   HT     0.417000        1.0080           0
    9916 TIP3 670  TIP3 H2   HT     0.417000        1.0080           0
    9917 TIP3 671  TIP3 OH2  OT    -0.834000       15.9994           0
    9918 TIP3 671  TIP3 H1   HT     0.417000        1.0080           0
    9919 TIP3 671  TIP3 H2   HT     0.417000        1.0080           0
    9920 TIP3 672  TIP3 OH2  OT    -0.834000       15.9994           0
    9921 TIP3 672  TIP3 H1   HT     0.417000        1.0080           0
    9922 TIP3 672  TIP3 H2   HT     0.417000        1.0080           0
    9923 TIP3 673  TIP3 OH2  OT    -0.834000       15.9994           0
    9924 TIP3 673  TIP3 H1   HT     0.417000        1.0080           0
    9925 TIP3 673  TIP3 H2   HT     0.417000        1.0080           0
    9926 TIP3 674  TIP3 OH2  OT    -0.834000       15.9994           0
    9927 TIP3 674  TIP3 H1   HT     0.417000        1.0080           0
    9928 TIP3 674  TIP3 H2   HT     0.417000        1.0080           0
    9929 TIP3 675  TIP3 OH2  OT    -0.834000       15.9994           0
    9930 TIP3 675  TIP3 H1   HT     0.417000        1.0080           0
    9931 TIP3 675  TIP3 H2   HT     0.417000        1.0080           0
    9932 TIP3 676  TIP3 OH2  OT    -0.834000       15.9994           0
    9933 TIP3 676  TIP3 H1   HT     0.417000        1.0080           0
    9934 TIP3 676  TIP3 H2   HT     0.417000        1.0080           0
    9935 TIP3 677  TIP3 OH2  OT    -0.834000       15.9994           0
    9936 TIP3 677  TIP3 H1   HT     0.417000        1.0080           0
    9937 TIP3 677  TIP3 H2   HT     0.417000        1.0080           0
    9938 TIP3 678  TIP3 OH2  OT    -0.834000       15.9994           0
    9939 TIP3 678  TIP3 H1   HT     0.417000        1.0080           0
    9940 TIP3 678  TIP3 H2   HT     0.417000        1.0080           0
    9941 TIP3 679  TIP3 OH2  OT    -0.834000       15.9994           0
    9942 TIP3 679  TIP3 H1   HT     0.417000        1.0080           0
    9943 TIP3 679  TIP3 H2   HT     0.417000        1.0080           0
    9944 TIP3 680  TIP3 OH2  OT    -0.834000       15.9994           0
    9945 TIP3 680  TIP3 H1   HT     0.417000        1.0080           0
    9946 TIP3 680  TIP3 H2   HT     0.417000        1.0080           0
    9947 TIP3 681  TIP3 OH2  OT    -0.834000       15.9994           0
    9948 TIP3 681  TIP3 H1   HT     0.417000        1.0080           0
    9949 TIP3 681  TIP3 H2   HT     0.417000        1.0080           0
    9950 TIP3 682  TIP3 OH2  OT    -0.834000       15.9994           0
    9951 TIP3 682  TIP3 H1   HT     0.417000        1.0080           0
    9952 TIP3 682  TIP3 H2   HT     0.417000        1.0080           0
    9953 TIP3 683  TIP3 OH2  OT    -0.834000       15.9994           0
    9954 TIP3 683  TIP3 H1   HT     0.417000        1.0080           0
    9955 TIP3 683  TIP3 H2   HT     0.417000        1.0080           0
    9956 TIP3 684  TIP3 OH2  OT    -0.834000       15.9994           0
    9957 TIP3 684  TIP3 H1   HT     0.417000        1.0080           0
    9958 TIP3 684  TIP3 H2   HT     0.417000        1.0080           0
    9959 TIP3 685  TIP3 OH2  OT    -0.834000       15.9994           0
    9960 TIP3 685  TIP3 H1   HT     0.417000        1.0080           0
    9961 TIP3 685  TIP3 H2   HT     0.417000        1.0080           0
    9962 TIP3 686  TIP3 OH2  OT    -0.834000       15.9994           0
    9963 TIP3 686  TIP3 H1   HT     0.417000        1.0080           0
    9964 TIP3 686  TIP3 H2   HT     0.417000        1.0080           0
    9965 TIP3 687  TIP3 OH2  OT    -0.834000       15.9994           0
    9966 TIP3 687  TIP3 H1   HT     0.417000        1.0080           0
    9967 TIP3 687  TIP3 H2   HT     0.417000        1.0080           0
    9968 TIP3 688  TIP3 OH2  OT    -0.834000       15.9994           0
    9969 TIP3 688  TIP3 H1   HT     0.417000        1.0080           0
    9970 TIP3 688  TIP3 H2   HT     0.417000        1.0080           0
    9971 TIP3 689  TIP3 OH2  OT    -0.834000       15.9994           0
    9972 TIP3 689  TIP3 H1   HT     0.417000        1.0080           0
    9973 TIP3 689  TIP3 H2   HT     0.417000        1.0080           0
    9974 TIP3 690  TIP3 OH2  OT    -0.834000       15.9994           0
    9975 TIP3 690  TIP3 H1   HT     0.417000        1.0080           0
    9976 TIP3 690  TIP3 H2   HT     0.417000        1.0080           0
    9977 TIP3 691  TIP3 OH2  OT    -0.834000       15.9994           0
    9978 TIP3 691  TIP3 H1   HT     0.417000        1.0080           0
    9979 TIP3 691  TIP3 H2   HT     0.417000        1.0080           0
    9980 TIP3 692  TIP3 OH2  OT    -0.834000       15.9994           0
    9981 TIP3 692  TIP3 H1   HT     0.417000        1.0080           0
    9982 TIP3 692  TIP3 H2   HT     0.417000        1.0080           0
    9983 TIP3 693  TIP3 OH2  OT    -0.834000       15.9994           0
    9984 TIP3 693  TIP3 H1   HT     0.417000        1.0080           0
    9985 TIP3 693  TIP3 H2   HT     0.417000        1.0080           0
    9986 TIP3 694  TIP3 OH2  OT    -0.834000       15.9994           0
    9987 TIP3 694  TIP3 H1   HT     0.417000        1.0080           0
    9988 TIP3 694  TIP3 H2   HT     0.417000        1.0080           0
    9989 TIP3 695  TIP3 OH2  OT    -0.834000       15.9994           0
    9990 TIP3 695  TIP3 H1   HT     0.417000        1.0080           0
    9991 TIP3 695  TIP3 H2   HT     0.417000        1.0080           0
    9992 TIP3 696  TIP3 OH2  OT    -0.834000       15.9994           0
    9993 TIP3 696  TIP3 H1   HT     0.417000        1.0080           0
    9994 TIP3 696  TIP3 H2   HT     0.417000        1.0080           0
    9995 TIP3 697  TIP3 OH2  OT    -0.834000       15.9994           0
    9996 TIP3 697  TIP3 H1   HT     0.417000        1.0080           0
    9997 TIP3 697  TIP3 H2   HT     0.417000        1.0080           0
    9998 TIP3 698  TIP3 OH2  OT    -0.834000       15.9994           0
    9999 TIP3 698  TIP3 H1   HT     0.417000        1.0080           0
   10000 TIP3 698  TIP3 H2   HT     0.417000        1.0080           0
   10001 TIP3 699  TIP3 OH2  OT    -0.834000       15.9994           0
   10002 TIP3 699  TIP3 H1   HT     0.417000        1.0080           0
   10003 TIP3 699  TIP3 H2   HT     0.417000        1.0080           0
   10004 TIP3 700  TIP3 OH2  OT    -0.834000       15.9994           0
   10005 TIP3 700  TIP3 H1   HT     0.417000        1.0080           0
   10006 TIP3 700  TIP3 H2   HT     0.417000        1.0080           0
   10007 TIP3 701  TIP3 OH2  OT    -0.834000       15.9994           0
   10008 TIP3 701  TIP3 H1   HT     0.417000        1.0080           0
   10009 TIP3 701  TIP3 H2   HT     0.417000        1.0080           0
   10010 TIP3 702  TIP3 OH2  OT    -0.834000       15.9994           0
   10011 TIP3 702  TIP3 H1   HT     0.417000        1.0080           0
   10012 TIP3 702  TIP3 H2   HT     0.417000        1.0080           0
   10013 TIP3 703  TIP3 OH2  OT    -0.834000       15.9994           0
   10014 TIP3 703  TIP3 H1   HT     0.417000        1.0080           0
   10015 TIP3 703  TIP3 H2   HT     0.417000        1.0080           0
   10016 TIP3 704  TIP3 OH2  OT    -0.834000       15.9994           0
   10017 TIP3 704  TIP3 H1   HT     0.417000        1.0080           0
   10018 TIP3 704  TIP3 H2   HT     0.417000        1.0080           0
   10019 TIP3 705  TIP3 OH2  OT    -0.834000       15.9994           0
   10020 TIP3 705  TIP3 H1   HT     0.417000        1.0080           0
   10021 TIP3 705  TIP3 H2   HT     0.417000        1.0080           0
   10022 TIP3 706  TIP3 OH2  OT    -0.834000       15.9994           0
   10023 TIP3 706  TIP3 H1   HT     0.417000        1.0080           0
   10024 TIP3 706  TIP3 H2   HT     0.417000        1.0080           0
   10025 TIP3 707  TIP3 OH2  OT    -0.834000       15.9994           0
   10026 TIP3 707  TIP3 H1   HT     0.417000        1.0080           0
   10027 TIP3 707  TIP3 H2   HT     0.417000        1.0080           0
   10028 TIP3 708  TIP3 OH2  OT    -0.834000       15.9994           0
   10029 TIP3 708  TIP3 H1   HT     0.417000        1.0080           0
   10030 TIP3 708  TIP3 H2   HT     0.417000        1.0080           0
   10031 TIP3 709  TIP3 OH2  OT    -0.834000       15.9994           0
   10032 TIP3 709  TIP3 H1   HT     0.417000        1.0080           0
   10033 TIP3 709  TIP3 H2   HT     0.417000        1.0080           0
   10034 TIP3 710  TIP3 OH2  OT    -0.834000       15.9994           0
   10035 TIP3 710  TIP3 H1   HT     0.417000        1.0080           0
   10036 TIP3 710  TIP3 H2   HT     0.417000        1.0080           0
   10037 TIP3 711  TIP3 OH2  OT    -0.834000       15.9994           0
   10038 TIP3 711  TIP3 H1   HT     0.417000        1.0080           0
   10039 TIP3 711  TIP3 H2   HT     0.417000        1.0080           0
   10040 TIP3 712  TIP3 OH2  OT    -0.834000       15.9994           0
   10041 TIP3 712  TIP3 H1   HT     0.417000        1.0080           0
   10042 TIP3 712  TIP3 H2   HT     0.417000        1.0080           0
   10043 TIP3 713  TIP3 OH2  OT    -0.834000       15.9994           0
   10044 TIP3 713  TIP3 H1   HT     0.417000        1.0080           0
   10045 TIP3 713  TIP3 H2   HT     0.417000        1.0080           0
   10046 TIP3 714  TIP3 OH2  OT    -0.834000       15.9994           0
   10047 TIP3 714  TIP3 H1   HT     0.417000        1.0080           0
   10048 TIP3 714  TIP3 H2   HT     0.417000        1.0080           0
   10049 TIP3 715  TIP3 OH2  OT    -0.834000       15.9994           0
   10050 TIP3 715  TIP3 H1   HT     0.417000        1.0080           0
   10051 TIP3 715  TIP3 H2   HT     0.417000        1.0080           0
   10052 TIP3 716  TIP3 OH2  OT    -0.834000       15.9994           0
   10053 TIP3 716  TIP3 H1   HT     0.417000        1.0080           0
   10054 TIP3 716  TIP3 H2   HT     0.417000        1.0080           0
   10055 TIP3 717  TIP3 OH2  OT    -0.834000       15.9994           0
   10056 TIP3 717  TIP3 H1   HT     0.417000        1.0080           0
   10057 TIP3 717  TIP3 H2   HT     0.417000        1.0080           0
   10058 TIP3 718  TIP3 OH2  OT    -0.834000       15.9994           0
   10059 TIP3 718  TIP3 H1   HT     0.417000        1.0080           0
   10060 TIP3 718  TIP3 H2   HT     0.417000        1.0080           0
   10061 TIP3 719  TIP3 OH2  OT    -0.834000       15.9994           0
   10062 TIP3 719  TIP3 H1   HT     0.417000        1.0080           0
   10063 TIP3 719  TIP3 H2   HT     0.417000        1.0080           0
   10064 TIP3 720  TIP3 OH2  OT    -0.834000       15.9994           0
   10065 TIP3 720  TIP3 H1   HT     0.417000        1.0080           0
   10066 TIP3 720  TIP3 H2   HT     0.417000        1.0080           0
   10067 TIP3 721  TIP3 OH2  OT    -0.834000       15.9994           0
   10068 TIP3 721  TIP3 H1   HT     0.417000        1.0080           0
   10069 TIP3 721  TIP3 H2   HT     0.417000        1.0080           0
   10070 TIP3 722  TIP3 OH2  OT    -0.834000       15.9994           0
   10071 TIP3 722  TIP3 H1   HT     0.417000        1.0080           0
   10072 TIP3 722  TIP3 H2   HT     0.417000        1.0080           0
   10073 TIP3 723  TIP3 OH2  OT    -0.834000       15.9994           0
   10074 TIP3 723  TIP3 H1   HT     0.417000        1.0080           0
   10075 TIP3 723  TIP3 H2   HT     0.417000        1.0080           0
   10076 TIP3 724  TIP3 OH2  OT    -0.834000       15.9994           0
   10077 TIP3 724  TIP3 H1   HT     0.417000        1.0080           0
   10078 TIP3 724  TIP3 H2   HT     0.417000        1.0080           0
   10079 TIP3 725  TIP3 OH2  OT    -0.834000       15.9994           0
   10080 TIP3 725  TIP3 H1   HT     0.417000        1.0080           0
   10081 TIP3 725  TIP3 H2   HT     0.417000        1.0080           0
   10082 TIP3 726  TIP3 OH2  OT    -0.834000       15.9994           0
   10083 TIP3 726  TIP3 H1   HT     0.417000        1.0080           0
   10084 TIP3 726  TIP3 H2   HT     0.417000        1.0080           0
   10085 TIP3 727  TIP3 OH2  OT    -0.834000       15.9994           0
   10086 TIP3 727  TIP3 H1   HT     0.417000        1.0080           0
   10087 TIP3 727  TIP3 H2   HT     0.417000        1.0080           0
   10088 TIP3 728  TIP3 OH2  OT    -0.834000       15.9994           0
   10089 TIP3 728  TIP3 H1   HT     0.417000        1.0080           0
   10090 TIP3 728  TIP3 H2   HT     0.417000        1.0080           0
   10091 TIP3 729  TIP3 OH2  OT    -0.834000       15.9994           0
   10092 TIP3 729  TIP3 H1   HT     0.417000        1.0080           0
   10093 TIP3 729  TIP3 H2   HT     0.417000        1.0080           0
   10094 TIP3 730  TIP3 OH2  OT    -0.834000       15.9994           0
   10095 TIP3 730  TIP3 H1   HT     0.417000        1.0080           0
   10096 TIP3 730  TIP3 H2   HT     0.417000        1.0080           0
   10097 TIP3 731  TIP3 OH2  OT    -0.834000       15.9994           0
   10098 TIP3 731  TIP3 H1   HT     0.417000        1.0080           0
   10099 TIP3 731  TIP3 H2   HT     0.417000        1.0080           0
   10100 TIP3 732  TIP3 OH2  OT    -0.834000       15.9994           0
   10101 TIP3 732  TIP3 H1   HT     0.417000        1.0080           0
   10102 TIP3 732  TIP3 H2   HT     0.417000        1.0080           0
   10103 TIP3 733  TIP3 OH2  OT    -0.834000       15.9994           0
   10104 TIP3 733  TIP3 H1   HT     0.417000        1.0080           0
   10105 TIP3 733  TIP3 H2   HT     0.417000        1.0080           0
   10106 TIP3 734  TIP3 OH2  OT    -0.834000       15.9994           0
   10107 TIP3 734  TIP3 H1   HT     0.417000        1.0080           0
   10108 TIP3 734  TIP3 H2   HT     0.417000        1.0080           0
   10109 TIP3 735  TIP3 OH2  OT    -0.834000       15.9994           0
   10110 TIP3 735  TIP3 H1   HT     0.417000        1.0080           0
   10111 TIP3 735  TIP3 H2   HT     0.417000        1.0080           0
   10112 TIP3 736  TIP3 OH2  OT    -0.834000       15.9994           0
   10113 TIP3 736  TIP3 H1   HT     0.417000        1.0080           0
   10114 TIP3 736  TIP3 H2   HT     0.417000        1.0080           0
   10115 TIP3 737  TIP3 OH2  OT    -0.834000       15.9994           0
   10116 TIP3 737  TIP3 H1   HT     0.417000        1.0080           0
   10117 TIP3 737  TIP3 H2   HT     0.417000        1.0080           0
   10118 TIP3 738  TIP3 OH2  OT    -0.834000       15.9994           0
   10119 TIP3 738  TIP3 H1   HT     0.417000        1.0080           0
   10120 TIP3 738  TIP3 H2   HT     0.417000        1.0080           0
   10121 TIP3 739  TIP3 OH2  OT    -0.834000       15.9994           0
   10122 TIP3 739  TIP3 H1   HT     0.417000        1.0080           0
   10123 TIP3 739  TIP3 H2   HT     0.417000        1.0080           0
   10124 TIP3 740  TIP3 OH2  OT    -0.834000       15.9994           0
   10125 TIP3 740  TIP3 H1   HT     0.417000        1.0080           0
   10126 TIP3 740  TIP3 H2   HT     0.417000        1.0080           0
   10127 TIP3 741  TIP3 OH2  OT    -0.834000       15.9994           0
   10128 TIP3 741  TIP3 H1   HT     0.417000        1.0080           0
   10129 TIP3 741  TIP3 H2   HT     0.417000        1.0080           0
   10130 TIP3 742  TIP3 OH2  OT    -0.834000       15.9994           0
   10131 TIP3 742  TIP3 H1   HT     0.417000        1.0080           0
   10132 TIP3 742  TIP3 H2   HT     0.417000        1.0080           0
   10133 TIP3 743  TIP3 OH2  OT    -0.834000       15.9994           0
   10134 TIP3 743  TIP3 H1   HT     0.417000        1.0080           0
   10135 TIP3 743  TIP3 H2   HT     0.417000        1.0080           0
   10136 TIP3 744  TIP3 OH2  OT    -0.834000       15.9994           0
   10137 TIP3 744  TIP3 H1   HT     0.417000        1.0080           0
   10138 TIP3 744  TIP3 H2   HT     0.417000        1.0080           0
   10139 TIP3 745  TIP3 OH2  OT    -0.834000       15.9994           0
   10140 TIP3 745  TIP3 H1   HT     0.417000        1.0080           0
   10141 TIP3 745  TIP3 H2   HT     0.417000        1.0080           0
   10142 TIP3 746  TIP3 OH2  OT    -0.834000       15.9994           0
   10143 TIP3 746  TIP3 H1   HT     0.417000        1.0080           0
   10144 TIP3 746  TIP3 H2   HT     0.417000        1.0080           0
   10145 TIP3 747  TIP3 OH2  OT    -0.834000       15.9994           0
   10146 TIP3 747  TIP3 H1   HT     0.417000        1.0080           0
   10147 TIP3 747  TIP3 H2   HT     0.417000        1.0080           0
   10148 TIP3 748  TIP3 OH2  OT    -0.834000       15.9994           0
   10149 TIP3 748  TIP3 H1   HT     0.417000        1.0080           0
   10150 TIP3 748  TIP3 H2   HT     0.417000        1.0080           0
   10151 TIP3 749  TIP3 OH2  OT    -0.834000       15.9994           0
   10152 TIP3 749  TIP3 H1   HT     0.417000        1.0080           0
   10153 TIP3 749  TIP3 H2   HT     0.417000        1.0080           0
   10154 TIP3 750  TIP3 OH2  OT    -0.834000       15.9994           0
   10155 TIP3 750  TIP3 H1   HT     0.417000        1.0080           0
   10156 TIP3 750  TIP3 H2   HT     0.417000        1.0080           0
   10157 TIP3 751  TIP3 OH2  OT    -0.834000       15.9994           0
   10158 TIP3 751  TIP3 H1   HT     0.417000        1.0080           0
   10159 TIP3 751  TIP3 H2   HT     0.417000        1.0080           0
   10160 TIP3 752  TIP3 OH2  OT    -0.834000       15.9994           0
   10161 TIP3 752  TIP3 H1   HT     0.417000        1.0080           0
   10162 TIP3 752  TIP3 H2   HT     0.417000        1.0080           0
   10163 TIP3 753  TIP3 OH2  OT    -0.834000       15.9994           0
   10164 TIP3 753  TIP3 H1   HT     0.417000        1.0080           0
   10165 TIP3 753  TIP3 H2   HT     0.417000        1.0080           0
   10166 TIP3 754  TIP3 OH2  OT    -0.834000       15.9994           0
   10167 TIP3 754  TIP3 H1   HT     0.417000        1.0080           0
   10168 TIP3 754  TIP3 H2   HT     0.417000        1.0080           0
   10169 TIP3 755  TIP3 OH2  OT    -0.834000       15.9994           0
   10170 TIP3 755  TIP3 H1   HT     0.417000        1.0080           0
   10171 TIP3 755  TIP3 H2   HT     0.417000        1.0080           0
   10172 TIP3 756  TIP3 OH2  OT    -0.834000       15.9994           0
   10173 TIP3 756  TIP3 H1   HT     0.417000        1.0080           0
   10174 TIP3 756  TIP3 H2   HT     0.417000        1.0080           0
   10175 TIP3 757  TIP3 OH2  OT    -0.834000       15.9994           0
   10176 TIP3 757  TIP3 H1   HT     0.417000        1.0080           0
   10177 TIP3 757  TIP3 H2   HT     0.417000        1.0080           0
   10178 TIP3 758  TIP3 OH2  OT    -0.834000       15.9994           0
   10179 TIP3 758  TIP3 H1   HT     0.417000        1.0080           0
   10180 TIP3 758  TIP3 H2   HT     0.417000        1.0080           0
   10181 TIP3 759  TIP3 OH2  OT    -0.834000       15.9994           0
   10182 TIP3 759  TIP3 H1   HT     0.417000        1.0080           0
   10183 TIP3 759  TIP3 H2   HT     0.417000        1.0080           0
   10184 TIP3 760  TIP3 OH2  OT    -0.834000       15.9994           0
   10185 TIP3 760  TIP3 H1   HT     0.417000        1.0080           0
   10186 TIP3 760  TIP3 H2   HT     0.417000        1.0080           0
   10187 TIP3 761  TIP3 OH2  OT    -0.834000       15.9994           0
   10188 TIP3 761  TIP3 H1   HT     0.417000        1.0080           0
   10189 TIP3 761  TIP3 H2   HT     0.417000        1.0080           0
   10190 TIP3 762  TIP3 OH2  OT    -0.834000       15.9994           0
   10191 TIP3 762  TIP3 H1   HT     0.417000        1.0080           0
   10192 TIP3 762  TIP3 H2   HT     0.417000        1.0080           0
   10193 TIP3 763  TIP3 OH2  OT    -0.834000       15.9994           0
   10194 TIP3 763  TIP3 H1   HT     0.417000        1.0080           0
   10195 TIP3 763  TIP3 H2   HT     0.417000        1.0080           0
   10196 TIP3 764  TIP3 OH2  OT    -0.834000       15.9994           0
   10197 TIP3 764  TIP3 H1   HT     0.417000        1.0080           0
   10198 TIP3 764  TIP3 H2   HT     0.417000        1.0080           0
   10199 TIP3 765  TIP3 OH2  OT    -0.834000       15.9994           0
   10200 TIP3 765  TIP3 H1   HT     0.417000        1.0080           0
   10201 TIP3 765  TIP3 H2   HT     0.417000        1.0080           0
   10202 TIP3 766  TIP3 OH2  OT    -0.834000       15.9994           0
   10203 TIP3 766  TIP3 H1   HT     0.417000        1.0080           0
   10204 TIP3 766  TIP3 H2   HT     0.417000        1.0080           0
   10205 TIP3 767  TIP3 OH2  OT    -0.834000       15.9994           0
   10206 TIP3 767  TIP3 H1   HT     0.417000        1.0080           0
   10207 TIP3 767  TIP3 H2   HT     0.417000        1.0080           0
   10208 TIP3 768  TIP3 OH2  OT    -0.834000       15.9994           0
   10209 TIP3 768  TIP3 H1   HT     0.417000        1.0080           0
   10210 TIP3 768  TIP3 H2   HT     0.417000        1.0080           0
   10211 TIP3 769  TIP3 OH2  OT    -0.834000       15.9994           0
   10212 TIP3 769  TIP3 H1   HT     0.417000        1.0080           0
   10213 TIP3 769  TIP3 H2   HT     0.417000        1.0080           0
   10214 TIP3 770  TIP3 OH2  OT    -0.834000       15.9994           0
   10215 TIP3 770  TIP3 H1   HT     0.417000        1.0080           0
   10216 TIP3 770  TIP3 H2   HT     0.417000        1.0080           0
   10217 TIP3 771  TIP3 OH2  OT    -0.834000       15.9994           0
   10218 TIP3 771  TIP3 H1   HT     0.417000        1.0080           0
   10219 TIP3 771  TIP3 H2   HT     0.417000        1.0080           0
   10220 TIP3 772  TIP3 OH2  OT    -0.834000       15.9994           0
   10221 TIP3 772  TIP3 H1   HT     0.417000        1.0080           0
   10222 TIP3 772  TIP3 H2   HT     0.417000        1.0080           0
   10223 TIP3 773  TIP3 OH2  OT    -0.834000       15.9994           0
   10224 TIP3 773  TIP3 H1   HT     0.417000        1.0080           0
   10225 TIP3 773  TIP3 H2   HT     0.417000        1.0080           0
   10226 TIP3 774  TIP3 OH2  OT    -0.834000       15.9994           0
   10227 TIP3 774  TIP3 H1   HT     0.417000        1.0080           0
   10228 TIP3 774  TIP3 H2   HT     0.417000        1.0080           0
   10229 TIP3 775  TIP3 OH2  OT    -0.834000       15.9994           0
   10230 TIP3 775  TIP3 H1   HT     0.417000        1.0080           0
   10231 TIP3 775  TIP3 H2   HT     0.417000        1.0080           0
   10232 TIP3 776  TIP3 OH2  OT    -0.834000       15.9994           0
   10233 TIP3 776  TIP3 H1   HT     0.417000        1.0080           0
   10234 TIP3 776  TIP3 H2   HT     0.417000        1.0080           0
   10235 TIP3 777  TIP3 OH2  OT    -0.834000       15.9994           0
   10236 TIP3 777  TIP3 H1   HT     0.417000        1.0080           0
   10237 TIP3 777  TIP3 H2   HT     0.417000        1.0080           0
   10238 TIP3 778  TIP3 OH2  OT    -0.834000       15.9994           0
   10239 TIP3 778  TIP3 H1   HT     0.417000        1.0080           0
   10240 TIP3 778  TIP3 H2   HT     0.417000        1.0080           0
   10241 TIP3 779  TIP3 OH2  OT    -0.834000       15.9994           0
   10242 TIP3 779  TIP3 H1   HT     0.417000        1.0080           0
   10243 TIP3 779  TIP3 H2   HT     0.417000        1.0080           0
   10244 TIP3 780  TIP3 OH2  OT    -0.834000       15.9994           0
   10245 TIP3 780  TIP3 H1   HT     0.417000        1.0080           0
   10246 TIP3 780  TIP3 H2   HT     0.417000        1.0080           0
   10247 TIP3 781  TIP3 OH2  OT    -0.834000       15.9994           0
   10248 TIP3 781  TIP3 H1   HT     0.417000        1.0080           0
   10249 TIP3 781  TIP3 H2   HT     0.417000        1.0080           0
   10250 TIP3 782  TIP3 OH2  OT    -0.834000       15.9994           0
   10251 TIP3 782  TIP3 H1   HT     0.417000        1.0080           0
   10252 TIP3 782  TIP3 H2   HT     0.417000        1.0080           0
   10253 TIP3 783  TIP3 OH2  OT    -0.834000       15.9994           0
   10254 TIP3 783  TIP3 H1   HT     0.417000        1.0080           0
   10255 TIP3 783  TIP3 H2   HT     0.417000        1.0080           0
   10256 TIP3 784  TIP3 OH2  OT    -0.834000       15.9994           0
   10257 TIP3 784  TIP3 H1   HT     0.417000        1.0080           0
   10258 TIP3 784  TIP3 H2   HT     0.417000        1.0080           0
   10259 TIP3 785  TIP3 OH2  OT    -0.834000       15.9994           0
   10260 TIP3 785  TIP3 H1   HT     0.417000        1.0080           0
   10261 TIP3 785  TIP3 H2   HT     0.417000        1.0080           0
   10262 TIP3 786  TIP3 OH2  OT    -0.834000       15.9994           0
   10263 TIP3 786  TIP3 H1   HT     0.417000        1.0080           0
   10264 TIP3 786  TIP3 H2   HT     0.417000        1.0080           0
   10265 TIP3 787  TIP3 OH2  OT    -0.834000       15.9994           0
   10266 TIP3 787  TIP3 H1   HT     0.417000        1.0080           0
   10267 TIP3 787  TIP3 H2   HT     0.417000        1.0080           0
   10268 TIP3 788  TIP3 OH2  OT    -0.834000       15.9994           0
   10269 TIP3 788  TIP3 H1   HT     0.417000        1.0080           0
   10270 TIP3 788  TIP3 H2   HT     0.417000        1.0080           0
   10271 TIP3 789  TIP3 OH2  OT    -0.834000       15.9994           0
   10272 TIP3 789  TIP3 H1   HT     0.417000        1.0080           0
   10273 TIP3 789  TIP3 H2   HT     0.417000        1.0080           0
   10274 TIP3 790  TIP3 OH2  OT    -0.834000       15.9994           0
   10275 TIP3 790  TIP3 H1   HT     0.417000        1.0080           0
   10276 TIP3 790  TIP3 H2   HT     0.417000        1.0080           0
   10277 TIP3 791  TIP3 OH2  OT    -0.834000       15.9994           0
   10278 TIP3 791  TIP3 H1   HT     0.417000        1.0080           0
   10279 TIP3 791  TIP3 H2   HT     0.417000        1.0080           0
   10280 TIP3 792  TIP3 OH2  OT    -0.834000       15.9994           0
   10281 TIP3 792  TIP3 H1   HT     0.417000        1.0080           0
   10282 TIP3 792  TIP3 H2   HT     0.417000        1.0080           0
   10283 TIP3 793  TIP3 OH2  OT    -0.834000       15.9994           0
   10284 TIP3 793  TIP3 H1   HT     0.417000        1.0080           0
   10285 TIP3 793  TIP3 H2   HT     0.417000        1.0080           0
   10286 TIP3 794  TIP3 OH2  OT    -0.834000       15.9994           0
   10287 TIP3 794  TIP3 H1   HT     0.417000        1.0080           0
   10288 TIP3 794  TIP3 H2   HT     0.417000        1.0080           0
   10289 TIP3 795  TIP3 OH2  OT    -0.834000       15.9994           0
   10290 TIP3 795  TIP3 H1   HT     0.417000        1.0080           0
   10291 TIP3 795  TIP3 H2   HT     0.417000        1.0080           0
   10292 TIP3 796  TIP3 OH2  OT    -0.834000       15.9994           0
   10293 TIP3 796  TIP3 H1   HT     0.417000        1.0080           0
   10294 TIP3 796  TIP3 H2   HT     0.417000        1.0080           0
   10295 TIP3 797  TIP3 OH2  OT    -0.834000       15.9994           0
   10296 TIP3 797  TIP3 H1   HT     0.417000        1.0080           0
   10297 TIP3 797  TIP3 H2   HT     0.417000        1.0080           0
   10298 TIP3 798  TIP3 OH2  OT    -0.834000       15.9994           0
   10299 TIP3 798  TIP3 H1   HT     0.417000        1.0080           0
   10300 TIP3 798  TIP3 H2   HT     0.417000        1.0080           0
   10301 TIP3 799  TIP3 OH2  OT    -0.834000       15.9994           0
   10302 TIP3 799  TIP3 H1   HT     0.417000        1.0080           0
   10303 TIP3 799  TIP3 H2   HT     0.417000        1.0080           0
   10304 TIP3 800  TIP3 OH2  OT    -0.834000       15.9994           0
   10305 TIP3 800  TIP3 H1   HT     0.417000        1.0080           0
   10306 TIP3 800  TIP3 H2   HT     0.417000        1.0080           0
   10307 TIP3 801  TIP3 OH2  OT    -0.834000       15.9994           0
   10308 TIP3 801  TIP3 H1   HT     0.417000        1.0080           0
   10309 TIP3 801  TIP3 H2   HT     0.417000        1.0080           0
   10310 TIP3 802  TIP3 OH2  OT    -0.834000       15.9994           0
   10311 TIP3 802  TIP3 H1   HT     0.417000        1.0080           0
   10312 TIP3 802  TIP3 H2   HT     0.417000        1.0080           0
   10313 TIP3 803  TIP3 OH2  OT    -0.834000       15.9994           0
   10314 TIP3 803  TIP3 H1   HT     0.417000        1.0080           0
   10315 TIP3 803  TIP3 H2   HT     0.417000        1.0080           0
   10316 TIP3 804  TIP3 OH2  OT    -0.834000       15.9994           0
   10317 TIP3 804  TIP3 H1   HT     0.417000        1.0080           0
   10318 TIP3 804  TIP3 H2   HT     0.417000        1.0080           0
   10319 TIP3 805  TIP3 OH2  OT    -0.834000       15.9994           0
   10320 TIP3 805  TIP3 H1   HT     0.417000        1.0080           0
   10321 TIP3 805  TIP3 H2   HT     0.417000        1.0080           0
   10322 TIP3 806  TIP3 OH2  OT    -0.834000       15.9994           0
   10323 TIP3 806  TIP3 H1   HT     0.417000        1.0080           0
   10324 TIP3 806  TIP3 H2   HT     0.417000        1.0080           0
   10325 TIP3 807  TIP3 OH2  OT    -0.834000       15.9994           0
   10326 TIP3 807  TIP3 H1   HT     0.417000        1.0080           0
   10327 TIP3 807  TIP3 H2   HT     0.417000        1.0080           0
   10328 TIP3 808  TIP3 OH2  OT    -0.834000       15.9994           0
   10329 TIP3 808  TIP3 H1   HT     0.417000        1.0080           0
   10330 TIP3 808  TIP3 H2   HT     0.417000        1.0080           0
   10331 TIP3 809  TIP3 OH2  OT    -0.834000       15.9994           0
   10332 TIP3 809  TIP3 H1   HT     0.417000        1.0080           0
   10333 TIP3 809  TIP3 H2   HT     0.417000        1.0080           0
   10334 TIP3 810  TIP3 OH2  OT    -0.834000       15.9994           0
   10335 TIP3 810  TIP3 H1   HT     0.417000        1.0080           0
   10336 TIP3 810  TIP3 H2   HT     0.417000        1.0080           0
   10337 TIP3 811  TIP3 OH2  OT    -0.834000       15.9994           0
   10338 TIP3 811  TIP3 H1   HT     0.417000        1.0080           0
   10339 TIP3 811  TIP3 H2   HT     0.417000        1.0080           0
   10340 TIP3 812  TIP3 OH2  OT    -0.834000       15.9994           0
   10341 TIP3 812  TIP3 H1   HT     0.417000        1.0080           0
   10342 TIP3 812  TIP3 H2   HT     0.417000        1.0080           0
   10343 TIP3 813  TIP3 OH2  OT    -0.834000       15.9994           0
   10344 TIP3 813  TIP3 H1   HT     0.417000        1.0080           0
   10345 TIP3 813  TIP3 H2   HT     0.417000        1.0080           0
   10346 TIP3 814  TIP3 OH2  OT    -0.834000       15.9994           0
   10347 TIP3 814  TIP3 H1   HT     0.417000        1.0080           0
   10348 TIP3 814  TIP3 H2   HT     0.417000        1.0080           0
   10349 TIP3 815  TIP3 OH2  OT    -0.834000       15.9994           0
   10350 TIP3 815  TIP3 H1   HT     0.417000        1.0080           0
   10351 TIP3 815  TIP3 H2   HT     0.417000        1.0080           0
   10352 TIP3 816  TIP3 OH2  OT    -0.834000       15.9994           0
   10353 TIP3 816  TIP3 H1   HT     0.417000        1.0080           0
   10354 TIP3 816  TIP3 H2   HT     0.417000        1.0080           0
   10355 TIP3 817  TIP3 OH2  OT    -0.834000       15.9994           0
   10356 TIP3 817  TIP3 H1   HT     0.417000        1.0080           0
   10357 TIP3 817  TIP3 H2   HT     0.417000        1.0080           0
   10358 TIP3 818  TIP3 OH2  OT    -0.834000       15.9994           0
   10359 TIP3 818  TIP3 H1   HT     0.417000        1.0080           0
   10360 TIP3 818  TIP3 H2   HT     0.417000        1.0080           0
   10361 TIP3 819  TIP3 OH2  OT    -0.834000       15.9994           0
   10362 TIP3 819  TIP3 H1   HT     0.417000        1.0080           0
   10363 TIP3 819  TIP3 H2   HT     0.417000        1.0080           0
   10364 TIP3 820  TIP3 OH2  OT    -0.834000       15.9994           0
   10365 TIP3 820  TIP3 H1   HT     0.417000        1.0080           0
   10366 TIP3 820  TIP3 H2   HT     0.417000        1.0080           0
   10367 TIP3 821  TIP3 OH2  OT    -0.834000       15.9994           0
   10368 TIP3 821  TIP3 H1   HT     0.417000        1.0080           0
   10369 TIP3 821  TIP3 H2   HT     0.417000        1.0080           0
   10370 TIP3 822  TIP3 OH2  OT    -0.834000       15.9994           0
   10371 TIP3 822  TIP3 H1   HT     0.417000        1.0080           0
   10372 TIP3 822  TIP3 H2   HT     0.417000        1.0080           0
   10373 TIP3 823  TIP3 OH2  OT    -0.834000       15.9994           0
   10374 TIP3 823  TIP3 H1   HT     0.417000        1.0080           0
   10375 TIP3 823  TIP3 H2   HT     0.417000        1.0080           0
   10376 TIP3 824  TIP3 OH2  OT    -0.834000       15.9994           0
   10377 TIP3 824  TIP3 H1   HT     0.417000        1.0080           0
   10378 TIP3 824  TIP3 H2   HT     0.417000        1.0080           0
   10379 TIP3 825  TIP3 OH2  OT    -0.834000       15.9994           0
   10380 TIP3 825  TIP3 H1   HT     0.417000        1.0080           0
   10381 TIP3 825  TIP3 H2   HT     0.417000        1.0080           0
   10382 TIP3 826  TIP3 OH2  OT    -0.834000       15.9994           0
   10383 TIP3 826  TIP3 H1   HT     0.417000        1.0080           0
   10384 TIP3 826  TIP3 H2   HT     0.417000        1.0080           0
   10385 TIP3 827  TIP3 OH2  OT    -0.834000       15.9994           0
   10386 TIP3 827  TIP3 H1   HT     0.417000        1.0080           0
   10387 TIP3 827  TIP3 H2   HT     0.417000        1.0080           0
   10388 TIP3 828  TIP3 OH2  OT    -0.834000       15.9994           0
   10389 TIP3 828  TIP3 H1   HT     0.417000        1.0080           0
   10390 TIP3 828  TIP3 H2   HT     0.417000        1.0080           0
   10391 TIP3 829  TIP3 OH2  OT    -0.834000       15.9994           0
   10392 TIP3 829  TIP3 H1   HT     0.417000        1.0080           0
   10393 TIP3 829  TIP3 H2   HT     0.417000        1.0080           0
   10394 TIP3 830  TIP3 OH2  OT    -0.834000       15.9994           0
   10395 TIP3 830  TIP3 H1   HT     0.417000        1.0080           0
   10396 TIP3 830  TIP3 H2   HT     0.417000        1.0080           0
   10397 TIP3 831  TIP3 OH2  OT    -0.834000       15.9994           0
   10398 TIP3 831  TIP3 H1   HT     0.417000        1.0080           0
   10399 TIP3 831  TIP3 H2   HT     0.417000        1.0080           0
   10400 TIP3 832  TIP3 OH2  OT    -0.834000       15.9994           0
   10401 TIP3 832  TIP3 H1   HT     0.417000        1.0080           0
   10402 TIP3 832  TIP3 H2   HT     0.417000        1.0080           0
   10403 TIP3 833  TIP3 OH2  OT    -0.834000       15.9994           0
   10404 TIP3 833  TIP3 H1   HT     0.417000        1.0080           0
   10405 TIP3 833  TIP3 H2   HT     0.417000        1.0080           0
   10406 TIP3 834  TIP3 OH2  OT    -0.834000       15.9994           0
   10407 TIP3 834  TIP3 H1   HT     0.417000        1.0080           0
   10408 TIP3 834  TIP3 H2   HT     0.417000        1.0080           0
   10409 TIP3 835  TIP3 OH2  OT    -0.834000       15.9994           0
   10410 TIP3 835  TIP3 H1   HT     0.417000        1.0080           0
   10411 TIP3 835  TIP3 H2   HT     0.417000        1.0080           0
   10412 TIP3 836  TIP3 OH2  OT    -0.834000       15.9994           0
   10413 TIP3 836  TIP3 H1   HT     0.417000        1.0080           0
   10414 TIP3 836  TIP3 H2   HT     0.417000        1.0080           0
   10415 TIP3 837  TIP3 OH2  OT    -0.834000       15.9994           0
   10416 TIP3 837  TIP3 H1   HT     0.417000        1.0080           0
   10417 TIP3 837  TIP3 H2   HT     0.417000        1.0080           0
   10418 TIP3 838  TIP3 OH2  OT    -0.834000       15.9994           0
   10419 TIP3 838  TIP3 H1   HT     0.417000        1.0080           0
   10420 TIP3 838  TIP3 H2   HT     0.417000        1.0080           0
   10421 TIP3 839  TIP3 OH2  OT    -0.834000       15.9994           0
   10422 TIP3 839  TIP3 H1   HT     0.417000        1.0080           0
   10423 TIP3 839  TIP3 H2   HT     0.417000        1.0080           0
   10424 TIP3 840  TIP3 OH2  OT    -0.834000       15.9994           0
   10425 TIP3 840  TIP3 H1   HT     0.417000        1.0080           0
   10426 TIP3 840  TIP3 H2   HT     0.417000        1.0080           0
   10427 TIP3 841  TIP3 OH2  OT    -0.834000       15.9994           0
   10428 TIP3 841  TIP3 H1   HT     0.417000        1.0080           0
   10429 TIP3 841  TIP3 H2   HT     0.417000        1.0080           0
   10430 TIP3 842  TIP3 OH2  OT    -0.834000       15.9994           0
   10431 TIP3 842  TIP3 H1   HT     0.417000        1.0080           0
   10432 TIP3 842  TIP3 H2   HT     0.417000        1.0080           0
   10433 TIP3 843  TIP3 OH2  OT    -0.834000       15.9994           0
   10434 TIP3 843  TIP3 H1   HT     0.417000        1.0080           0
   10435 TIP3 843  TIP3 H2   HT     0.417000        1.0080           0
   10436 TIP3 844  TIP3 OH2  OT    -0.834000       15.9994           0
   10437 TIP3 844  TIP3 H1   HT     0.417000        1.0080           0
   10438 TIP3 844  TIP3 H2   HT     0.417000        1.0080           0
   10439 TIP3 845  TIP3 OH2  OT    -0.834000       15.9994           0
   10440 TIP3 845  TIP3 H1   HT     0.417000        1.0080           0
   10441 TIP3 845  TIP3 H2   HT     0.417000        1.0080           0
   10442 TIP3 846  TIP3 OH2  OT    -0.834000       15.9994           0
   10443 TIP3 846  TIP3 H1   HT     0.417000        1.0080           0
   10444 TIP3 846  TIP3 H2   HT     0.417000        1.0080           0
   10445 TIP3 847  TIP3 OH2  OT    -0.834000       15.9994           0
   10446 TIP3 847  TIP3 H1   HT     0.417000        1.0080           0
   10447 TIP3 847  TIP3 H2   HT     0.417000        1.0080           0
   10448 TIP3 848  TIP3 OH2  OT    -0.834000       15.9994           0
   10449 TIP3 848  TIP3 H1   HT     0.417000        1.0080           0
   10450 TIP3 848  TIP3 H2   HT     0.417000        1.0080           0
   10451 TIP3 849  TIP3 OH2  OT    -0.834000       15.9994           0
   10452 TIP3 849  TIP3 H1   HT     0.417000        1.0080           0
   10453 TIP3 849  TIP3 H2   HT     0.417000        1.0080           0
   10454 TIP3 850  TIP3 OH2  OT    -0.834000       15.9994           0
   10455 TIP3 850  TIP3 H1   HT     0.417000        1.0080           0
   10456 TIP3 850  TIP3 H2   HT     0.417000        1.0080           0
   10457 TIP3 851  TIP3 OH2  OT    -0.834000       15.9994           0
   10458 TIP3 851  TIP3 H1   HT     0.417000        1.0080           0
   10459 TIP3 851  TIP3 H2   HT     0.417000        1.0080           0
   10460 TIP3 852  TIP3 OH2  OT    -0.834000       15.9994           0
   10461 TIP3 852  TIP3 H1   HT     0.417000        1.0080           0
   10462 TIP3 852  TIP3 H2   HT     0.417000        1.0080           0
   10463 TIP3 853  TIP3 OH2  OT    -0.834000       15.9994           0
   10464 TIP3 853  TIP3 H1   HT     0.417000        1.0080           0
   10465 TIP3 853  TIP3 H2   HT     0.417000        1.0080           0
   10466 TIP3 854  TIP3 OH2  OT    -0.834000       15.9994           0
   10467 TIP3 854  TIP3 H1   HT     0.417000        1.0080           0
   10468 TIP3 854  TIP3 H2   HT     0.417000        1.0080           0
   10469 TIP3 855  TIP3 OH2  OT    -0.834000       15.9994           0
   10470 TIP3 855  TIP3 H1   HT     0.417000        1.0080           0
   10471 TIP3 855  TIP3 H2   HT     0.417000        1.0080           0
   10472 TIP3 856  TIP3 OH2  OT    -0.834000       15.9994           0
   10473 TIP3 856  TIP3 H1   HT     0.417000        1.0080           0
   10474 TIP3 856  TIP3 H2   HT     0.417000        1.0080           0
   10475 TIP3 857  TIP3 OH2  OT    -0.834000       15.9994           0
   10476 TIP3 857  TIP3 H1   HT     0.417000        1.0080           0
   10477 TIP3 857  TIP3 H2   HT     0.417000        1.0080           0
   10478 TIP3 858  TIP3 OH2  OT    -0.834000       15.9994           0
   10479 TIP3 858  TIP3 H1   HT     0.417000        1.0080           0
   10480 TIP3 858  TIP3 H2   HT     0.417000        1.0080           0
   10481 TIP3 859  TIP3 OH2  OT    -0.834000       15.9994           0
   10482 TIP3 859  TIP3 H1   HT     0.417000        1.0080           0
   10483 TIP3 859  TIP3 H2   HT     0.417000        1.0080           0
   10484 TIP3 860  TIP3 OH2  OT    -0.834000       15.9994           0
   10485 TIP3 860  TIP3 H1   HT     0.417000        1.0080           0
   10486 TIP3 860  TIP3 H2   HT     0.417000        1.0080           0
   10487 TIP3 861  TIP3 OH2  OT    -0.834000       15.9994           0
   10488 TIP3 861  TIP3 H1   HT     0.417000        1.0080           0
   10489 TIP3 861  TIP3 H2   HT     0.417000        1.0080           0
   10490 TIP3 862  TIP3 OH2  OT    -0.834000       15.9994           0
   10491 TIP3 862  TIP3 H1   HT     0.417000        1.0080           0
   10492 TIP3 862  TIP3 H2   HT     0.417000        1.0080           0
   10493 TIP3 863  TIP3 OH2  OT    -0.834000       15.9994           0
   10494 TIP3 863  TIP3 H1   HT     0.417000        1.0080           0
   10495 TIP3 863  TIP3 H2   HT     0.417000        1.0080           0
   10496 TIP3 864  TIP3 OH2  OT    -0.834000       15.9994           0
   10497 TIP3 864  TIP3 H1   HT     0.417000        1.0080           0
   10498 TIP3 864  TIP3 H2   HT     0.417000        1.0080           0
   10499 TIP3 865  TIP3 OH2  OT    -0.834000       15.9994           0
   10500 TIP3 865  TIP3 H1   HT     0.417000        1.0080           0
   10501 TIP3 865  TIP3 H2   HT     0.417000        1.0080           0
   10502 TIP3 866  TIP3 OH2  OT    -0.834000       15.9994           0
   10503 TIP3 866  TIP3 H1   HT     0.417000        1.0080           0
   10504 TIP3 866  TIP3 H2   HT     0.417000        1.0080           0
   10505 TIP3 867  TIP3 OH2  OT    -0.834000       15.9994           0
   10506 TIP3 867  TIP3 H1   HT     0.417000        1.0080           0
   10507 TIP3 867  TIP3 H2   HT     0.417000        1.0080           0
   10508 TIP3 868  TIP3 OH2  OT    -0.834000       15.9994           0
   10509 TIP3 868  TIP3 H1   HT     0.417000        1.0080           0
   10510 TIP3 868  TIP3 H2   HT     0.417000        1.0080           0
   10511 TIP3 869  TIP3 OH2  OT    -0.834000       15.9994           0
   10512 TIP3 869  TIP3 H1   HT     0.417000        1.0080           0
   10513 TIP3 869  TIP3 H2   HT     0.417000        1.0080           0
   10514 TIP3 870  TIP3 OH2  OT    -0.834000       15.9994           0
   10515 TIP3 870  TIP3 H1   HT     0.417000        1.0080           0
   10516 TIP3 870  TIP3 H2   HT     0.417000        1.0080           0
   10517 TIP3 871  TIP3 OH2  OT    -0.834000       15.9994           0
   10518 TIP3 871  TIP3 H1   HT     0.417000        1.0080           0
   10519 TIP3 871  TIP3 H2   HT     0.417000        1.0080           0
   10520 TIP3 872  TIP3 OH2  OT    -0.834000       15.9994           0
   10521 TIP3 872  TIP3 H1   HT     0.417000        1.0080           0
   10522 TIP3 872  TIP3 H2   HT     0.417000        1.0080           0
   10523 TIP3 873  TIP3 OH2  OT    -0.834000       15.9994           0
   10524 TIP3 873  TIP3 H1   HT     0.417000        1.0080           0
   10525 TIP3 873  TIP3 H2   HT     0.417000        1.0080           0
   10526 TIP3 874  TIP3 OH2  OT    -0.834000       15.9994           0
   10527 TIP3 874  TIP3 H1   HT     0.417000        1.0080           0
   10528 TIP3 874  TIP3 H2   HT     0.417000        1.0080           0
   10529 TIP3 875  TIP3 OH2  OT    -0.834000       15.9994           0
   10530 TIP3 875  TIP3 H1   HT     0.417000        1.0080           0
   10531 TIP3 875  TIP3 H2   HT     0.417000        1.0080           0
   10532 TIP3 876  TIP3 OH2  OT    -0.834000       15.9994           0
   10533 TIP3 876  TIP3 H1   HT     0.417000        1.0080           0
   10534 TIP3 876  TIP3 H2   HT     0.417000        1.0080           0
   10535 TIP3 877  TIP3 OH2  OT    -0.834000       15.9994           0
   10536 TIP3 877  TIP3 H1   HT     0.417000        1.0080           0
   10537 TIP3 877  TIP3 H2   HT     0.417000        1.0080           0
   10538 TIP3 878  TIP3 OH2  OT    -0.834000       15.9994           0
   10539 TIP3 878  TIP3 H1   HT     0.417000        1.0080           0
   10540 TIP3 878  TIP3 H2   HT     0.417000        1.0080           0
   10541 TIP3 879  TIP3 OH2  OT    -0.834000       15.9994           0
   10542 TIP3 879  TIP3 H1   HT     0.417000        1.0080           0
   10543 TIP3 879  TIP3 H2   HT     0.417000        1.0080           0
   10544 TIP3 880  TIP3 OH2  OT    -0.834000       15.9994           0
   10545 TIP3 880  TIP3 H1   HT     0.417000        1.0080           0
   10546 TIP3 880  TIP3 H2   HT     0.417000        1.0080           0
   10547 TIP3 881  TIP3 OH2  OT    -0.834000       15.9994           0
   10548 TIP3 881  TIP3 H1   HT     0.417000        1.0080           0
   10549 TIP3 881  TIP3 H2   HT     0.417000        1.0080           0
   10550 TIP3 882  TIP3 OH2  OT    -0.834000       15.9994           0
   10551 TIP3 882  TIP3 H1   HT     0.417000        1.0080           0
   10552 TIP3 882  TIP3 H2   HT     0.417000        1.0080           0
   10553 TIP3 883  TIP3 OH2  OT    -0.834000       15.9994           0
   10554 TIP3 883  TIP3 H1   HT     0.417000        1.0080           0
   10555 TIP3 883  TIP3 H2   HT     0.417000        1.0080           0
   10556 TIP3 884  TIP3 OH2  OT    -0.834000       15.9994           0
   10557 TIP3 884  TIP3 H1   HT     0.417000        1.0080           0
   10558 TIP3 884  TIP3 H2   HT     0.417000        1.0080           0
   10559 TIP3 885  TIP3 OH2  OT    -0.834000       15.9994           0
   10560 TIP3 885  TIP3 H1   HT     0.417000        1.0080           0
   10561 TIP3 885  TIP3 H2   HT     0.417000        1.0080           0
   10562 TIP3 886  TIP3 OH2  OT    -0.834000       15.9994           0
   10563 TIP3 886  TIP3 H1   HT     0.417000        1.0080           0
   10564 TIP3 886  TIP3 H2   HT     0.417000        1.0080           0
   10565 TIP3 887  TIP3 OH2  OT    -0.834000       15.9994           0
   10566 TIP3 887  TIP3 H1   HT     0.417000        1.0080           0
   10567 TIP3 887  TIP3 H2   HT     0.417000        1.0080           0
   10568 TIP3 888  TIP3 OH2  OT    -0.834000       15.9994           0
   10569 TIP3 888  TIP3 H1   HT     0.417000        1.0080           0
   10570 TIP3 888  TIP3 H2   HT     0.417000        1.0080           0
   10571 TIP3 889  TIP3 OH2  OT    -0.834000       15.9994           0
   10572 TIP3 889  TIP3 H1   HT     0.417000        1.0080           0
   10573 TIP3 889  TIP3 H2   HT     0.417000        1.0080           0
   10574 TIP3 890  TIP3 OH2  OT    -0.834000       15.9994           0
   10575 TIP3 890  TIP3 H1   HT     0.417000        1.0080           0
   10576 TIP3 890  TIP3 H2   HT     0.417000        1.0080           0
   10577 TIP3 891  TIP3 OH2  OT    -0.834000       15.9994           0
   10578 TIP3 891  TIP3 H1   HT     0.417000        1.0080           0
   10579 TIP3 891  TIP3 H2   HT     0.417000        1.0080           0
   10580 TIP3 892  TIP3 OH2  OT    -0.834000       15.9994           0
   10581 TIP3 892  TIP3 H1   HT     0.417000        1.0080           0
   10582 TIP3 892  TIP3 H2   HT     0.417000        1.0080           0
   10583 TIP3 893  TIP3 OH2  OT    -0.834000       15.9994           0
   10584 TIP3 893  TIP3 H1   HT     0.417000        1.0080           0
   10585 TIP3 893  TIP3 H2   HT     0.417000        1.0080           0
   10586 TIP3 894  TIP3 OH2  OT    -0.834000       15.9994           0
   10587 TIP3 894  TIP3 H1   HT     0.417000        1.0080           0
   10588 TIP3 894  TIP3 H2   HT     0.417000        1.0080           0
   10589 TIP3 895  TIP3 OH2  OT    -0.834000       15.9994           0
   10590 TIP3 895  TIP3 H1   HT     0.417000        1.0080           0
   10591 TIP3 895  TIP3 H2   HT     0.417000        1.0080           0
   10592 TIP3 896  TIP3 OH2  OT    -0.834000       15.9994           0
   10593 TIP3 896  TIP3 H1   HT     0.417000        1.0080           0
   10594 TIP3 896  TIP3 H2   HT     0.417000        1.0080           0
   10595 TIP3 897  TIP3 OH2  OT    -0.834000       15.9994           0
   10596 TIP3 897  TIP3 H1   HT     0.417000        1.0080           0
   10597 TIP3 897  TIP3 H2   HT     0.417000        1.0080           0
   10598 TIP3 898  TIP3 OH2  OT    -0.834000       15.9994           0
   10599 TIP3 898  TIP3 H1   HT     0.417000        1.0080           0
   10600 TIP3 898  TIP3 H2   HT     0.417000        1.0080           0
   10601 TIP3 899  TIP3 OH2  OT    -0.834000       15.9994           0
   10602 TIP3 899  TIP3 H1   HT     0.417000        1.0080           0
   10603 TIP3 899  TIP3 H2   HT     0.417000        1.0080           0
   10604 TIP3 900  TIP3 OH2  OT    -0.834000       15.9994           0
   10605 TIP3 900  TIP3 H1   HT     0.417000        1.0080           0
   10606 TIP3 900  TIP3 H2   HT     0.417000        1.0080           0
   10607 TIP3 901  TIP3 OH2  OT    -0.834000       15.9994           0
   10608 TIP3 901  TIP3 H1   HT     0.417000        1.0080           0
   10609 TIP3 901  TIP3 H2   HT     0.417000        1.0080           0
   10610 TIP3 902  TIP3 OH2  OT    -0.834000       15.9994           0
   10611 TIP3 902  TIP3 H1   HT     0.417000        1.0080           0
   10612 TIP3 902  TIP3 H2   HT     0.417000        1.0080           0
   10613 TIP3 903  TIP3 OH2  OT    -0.834000       15.9994           0
   10614 TIP3 903  TIP3 H1   HT     0.417000        1.0080           0
   10615 TIP3 903  TIP3 H2   HT     0.417000        1.0080           0
   10616 TIP3 904  TIP3 OH2  OT    -0.834000       15.9994           0
   10617 TIP3 904  TIP3 H1   HT     0.417000        1.0080           0
   10618 TIP3 904  TIP3 H2   HT     0.417000        1.0080           0
   10619 TIP3 905  TIP3 OH2  OT    -0.834000       15.9994           0
   10620 TIP3 905  TIP3 H1   HT     0.417000        1.0080           0
   10621 TIP3 905  TIP3 H2   HT     0.417000        1.0080           0
   10622 TIP3 906  TIP3 OH2  OT    -0.834000       15.9994           0
   10623 TIP3 906  TIP3 H1   HT     0.417000        1.0080           0
   10624 TIP3 906  TIP3 H2   HT     0.417000        1.0080           0
   10625 TIP3 907  TIP3 OH2  OT    -0.834000       15.9994           0
   10626 TIP3 907  TIP3 H1   HT     0.417000        1.0080           0
   10627 TIP3 907  TIP3 H2   HT     0.417000        1.0080           0
   10628 TIP3 908  TIP3 OH2  OT    -0.834000       15.9994           0
   10629 TIP3 908  TIP3 H1   HT     0.417000        1.0080           0
   10630 TIP3 908  TIP3 H2   HT     0.417000        1.0080           0
   10631 TIP3 909  TIP3 OH2  OT    -0.834000       15.9994           0
   10632 TIP3 909  TIP3 H1   HT     0.417000        1.0080           0
   10633 TIP3 909  TIP3 H2   HT     0.417000        1.0080           0
   10634 TIP3 910  TIP3 OH2  OT    -0.834000       15.9994           0
   10635 TIP3 910  TIP3 H1   HT     0.417000        1.0080           0
   10636 TIP3 910  TIP3 H2   HT     0.417000        1.0080           0
   10637 TIP3 911  TIP3 OH2  OT    -0.834000       15.9994           0
   10638 TIP3 911  TIP3 H1   HT     0.417000        1.0080           0
   10639 TIP3 911  TIP3 H2   HT     0.417000        1.0080           0
   10640 TIP3 912  TIP3 OH2  OT    -0.834000       15.9994           0
   10641 TIP3 912  TIP3 H1   HT     0.417000        1.0080           0
   10642 TIP3 912  TIP3 H2   HT     0.417000        1.0080           0
   10643 TIP3 913  TIP3 OH2  OT    -0.834000       15.9994           0
   10644 TIP3 913  TIP3 H1   HT     0.417000        1.0080           0
   10645 TIP3 913  TIP3 H2   HT     0.417000        1.0080           0
   10646 TIP3 914  TIP3 OH2  OT    -0.834000       15.9994           0
   10647 TIP3 914  TIP3 H1   HT     0.417000        1.0080           0
   10648 TIP3 914  TIP3 H2   HT     0.417000        1.0080           0
   10649 TIP3 915  TIP3 OH2  OT    -0.834000       15.9994           0
   10650 TIP3 915  TIP3 H1   HT     0.417000        1.0080           0
   10651 TIP3 915  TIP3 H2   HT     0.417000        1.0080           0
   10652 TIP3 916  TIP3 OH2  OT    -0.834000       15.9994           0
   10653 TIP3 916  TIP3 H1   HT     0.417000        1.0080           0
   10654 TIP3 916  TIP3 H2   HT     0.417000        1.0080           0
   10655 TIP3 917  TIP3 OH2  OT    -0.834000       15.9994           0
   10656 TIP3 917  TIP3 H1   HT     0.417000        1.0080           0
   10657 TIP3 917  TIP3 H2   HT     0.417000        1.0080           0
   10658 TIP3 918  TIP3 OH2  OT    -0.834000       15.9994           0
   10659 TIP3 918  TIP3 H1   HT     0.417000        1.0080           0
   10660 TIP3 918  TIP3 H2   HT     0.417000        1.0080           0
   10661 TIP3 919  TIP3 OH2  OT    -0.834000       15.9994           0
   10662 TIP3 919  TIP3 H1   HT     0.417000        1.0080           0
   10663 TIP3 919  TIP3 H2   HT     0.417000        1.0080           0
   10664 TIP3 920  TIP3 OH2  OT    -0.834000       15.9994           0
   10665 TIP3 920  TIP3 H1   HT     0.417000        1.0080           0
   10666 TIP3 920  TIP3 H2   HT     0.417000        1.0080           0
   10667 TIP3 921  TIP3 OH2  OT    -0.834000       15.9994           0
   10668 TIP3 921  TIP3 H1   HT     0.417000        1.0080           0
   10669 TIP3 921  TIP3 H2   HT     0.417000        1.0080           0
   10670 TIP3 922  TIP3 OH2  OT    -0.834000       15.9994           0
   10671 TIP3 922  TIP3 H1   HT     0.417000        1.0080           0
   10672 TIP3 922  TIP3 H2   HT     0.417000        1.0080           0
   10673 TIP3 923  TIP3 OH2  OT    -0.834000       15.9994           0
   10674 TIP3 923  TIP3 H1   HT     0.417000        1.0080           0
   10675 TIP3 923  TIP3 H2   HT     0.417000        1.0080           0
   10676 TIP3 924  TIP3 OH2  OT    -0.834000       15.9994           0
   10677 TIP3 924  TIP3 H1   HT     0.417000        1.0080           0
   10678 TIP3 924  TIP3 H2   HT     0.417000        1.0080           0
   10679 TIP3 925  TIP3 OH2  OT    -0.834000       15.9994           0
   10680 TIP3 925  TIP3 H1   HT     0.417000        1.0080           0
   10681 TIP3 925  TIP3 H2   HT     0.417000        1.0080           0
   10682 TIP3 926  TIP3 OH2  OT    -0.834000       15.9994           0
   10683 TIP3 926  TIP3 H1   HT     0.417000        1.0080           0
   10684 TIP3 926  TIP3 H2   HT     0.417000        1.0080           0
   10685 TIP3 927  TIP3 OH2  OT    -0.834000       15.9994           0
   10686 TIP3 927  TIP3 H1   HT     0.417000        1.0080           0
   10687 TIP3 927  TIP3 H2   HT     0.417000        1.0080           0
   10688 TIP3 928  TIP3 OH2  OT    -0.834000       15.9994           0
   10689 TIP3 928  TIP3 H1   HT     0.417000        1.0080           0
   10690 TIP3 928  TIP3 H2   HT     0.417000        1.0080           0
   10691 TIP3 929  TIP3 OH2  OT    -0.834000       15.9994           0
   10692 TIP3 929  TIP3 H1   HT     0.417000        1.0080           0
   10693 TIP3 929  TIP3 H2   HT     0.417000        1.0080           0
   10694 TIP3 930  TIP3 OH2  OT    -0.834000       15.9994           0
   10695 TIP3 930  TIP3 H1   HT     0.417000        1.0080           0
   10696 TIP3 930  TIP3 H2   HT     0.417000        1.0080           0
   10697 TIP3 931  TIP3 OH2  OT    -0.834000       15.9994           0
   10698 TIP3 931  TIP3 H1   HT     0.417000        1.0080           0
   10699 TIP3 931  TIP3 H2   HT     0.417000        1.0080           0
   10700 TIP3 932  TIP3 OH2  OT    -0.834000       15.9994           0
   10701 TIP3 932  TIP3 H1   HT     0.417000        1.0080           0
   10702 TIP3 932  TIP3 H2   HT     0.417000        1.0080           0
   10703 TIP3 933  TIP3 OH2  OT    -0.834000       15.9994           0
   10704 TIP3 933  TIP3 H1   HT     0.417000        1.0080           0
   10705 TIP3 933  TIP3 H2   HT     0.417000        1.0080           0
   10706 TIP3 934  TIP3 OH2  OT    -0.834000       15.9994           0
   10707 TIP3 934  TIP3 H1   HT     0.417000        1.0080           0
   10708 TIP3 934  TIP3 H2   HT     0.417000        1.0080           0
   10709 TIP3 935  TIP3 OH2  OT    -0.834000       15.9994           0
   10710 TIP3 935  TIP3 H1   HT     0.417000        1.0080           0
   10711 TIP3 935  TIP3 H2   HT     0.417000        1.0080           0
   10712 TIP3 936  TIP3 OH2  OT    -0.834000       15.9994           0
   10713 TIP3 936  TIP3 H1   HT     0.417000        1.0080           0
   10714 TIP3 936  TIP3 H2   HT     0.417000        1.0080           0
   10715 TIP3 937  TIP3 OH2  OT    -0.834000       15.9994           0
   10716 TIP3 937  TIP3 H1   HT     0.417000        1.0080           0
   10717 TIP3 937  TIP3 H2   HT     0.417000        1.0080           0
   10718 TIP3 938  TIP3 OH2  OT    -0.834000       15.9994           0
   10719 TIP3 938  TIP3 H1   HT     0.417000        1.0080           0
   10720 TIP3 938  TIP3 H2   HT     0.417000        1.0080           0
   10721 TIP3 939  TIP3 OH2  OT    -0.834000       15.9994           0
   10722 TIP3 939  TIP3 H1   HT     0.417000        1.0080           0
   10723 TIP3 939  TIP3 H2   HT     0.417000        1.0080           0
   10724 TIP3 940  TIP3 OH2  OT    -0.834000       15.9994           0
   10725 TIP3 940  TIP3 H1   HT     0.417000        1.0080           0
   10726 TIP3 940  TIP3 H2   HT     0.417000        1.0080           0
   10727 TIP3 941  TIP3 OH2  OT    -0.834000       15.9994           0
   10728 TIP3 941  TIP3 H1   HT     0.417000        1.0080           0
   10729 TIP3 941  TIP3 H2   HT     0.417000        1.0080           0
   10730 TIP3 942  TIP3 OH2  OT    -0.834000       15.9994           0
   10731 TIP3 942  TIP3 H1   HT     0.417000        1.0080           0
   10732 TIP3 942  TIP3 H2   HT     0.417000        1.0080           0
   10733 TIP3 943  TIP3 OH2  OT    -0.834000       15.9994           0
   10734 TIP3 943  TIP3 H1   HT     0.417000        1.0080           0
   10735 TIP3 943  TIP3 H2   HT     0.417000        1.0080           0
   10736 TIP3 944  TIP3 OH2  OT    -0.834000       15.9994           0
   10737 TIP3 944  TIP3 H1   HT     0.417000        1.0080           0
   10738 TIP3 944  TIP3 H2   HT     0.417000        1.0080           0
   10739 TIP3 945  TIP3 OH2  OT    -0.834000       15.9994           0
   10740 TIP3 945  TIP3 H1   HT     0.417000        1.0080           0
   10741 TIP3 945  TIP3 H2   HT     0.417000        1.0080           0
   10742 TIP3 946  TIP3 OH2  OT    -0.834000       15.9994           0
   10743 TIP3 946  TIP3 H1   HT     0.417000        1.0080           0
   10744 TIP3 946  TIP3 H2   HT     0.417000        1.0080           0
   10745 TIP3 947  TIP3 OH2  OT    -0.834000       15.9994           0
   10746 TIP3 947  TIP3 H1   HT     0.417000        1.0080           0
   10747 TIP3 947  TIP3 H2   HT     0.417000        1.0080           0
   10748 TIP3 948  TIP3 OH2  OT    -0.834000       15.9994           0
   10749 TIP3 948  TIP3 H1   HT     0.417000        1.0080           0
   10750 TIP3 948  TIP3 H2   HT     0.417000        1.0080           0
   10751 TIP3 949  TIP3 OH2  OT    -0.834000       15.9994           0
   10752 TIP3 949  TIP3 H1   HT     0.417000        1.0080           0
   10753 TIP3 949  TIP3 H2   HT     0.417000        1.0080           0
   10754 TIP3 950  TIP3 OH2  OT    -0.834000       15.9994           0
   10755 TIP3 950  TIP3 H1   HT     0.417000        1.0080           0
   10756 TIP3 950  TIP3 H2   HT     0.417000        1.0080           0
   10757 TIP3 951  TIP3 OH2  OT    -0.834000       15.9994           0
   10758 TIP3 951  TIP3 H1   HT     0.417000        1.0080           0
   10759 TIP3 951  TIP3 H2   HT     0.417000        1.0080           0
   10760 TIP3 952  TIP3 OH2  OT    -0.834000       15.9994           0
   10761 TIP3 952  TIP3 H1   HT     0.417000        1.0080           0
   10762 TIP3 952  TIP3 H2   HT     0.417000        1.0080           0
   10763 TIP3 953  TIP3 OH2  OT    -0.834000       15.9994           0
   10764 TIP3 953  TIP3 H1   HT     0.417000        1.0080           0
   10765 TIP3 953  TIP3 H2   HT     0.417000        1.0080           0
   10766 TIP3 954  TIP3 OH2  OT    -0.834000       15.9994           0
   10767 TIP3 954  TIP3 H1   HT     0.417000        1.0080           0
   10768 TIP3 954  TIP3 H2   HT     0.417000        1.0080           0
   10769 TIP3 955  TIP3 OH2  OT    -0.834000       15.9994           0
   10770 TIP3 955  TIP3 H1   HT     0.417000        1.0080           0
   10771 TIP3 955  TIP3 H2   HT     0.417000        1.0080           0
   10772 TIP3 956  TIP3 OH2  OT    -0.834000       15.9994           0
   10773 TIP3 956  TIP3 H1   HT     0.417000        1.0080           0
   10774 TIP3 956  TIP3 H2   HT     0.417000        1.0080           0
   10775 TIP3 957  TIP3 OH2  OT    -0.834000       15.9994           0
   10776 TIP3 957  TIP3 H1   HT     0.417000        1.0080           0
   10777 TIP3 957  TIP3 H2   HT     0.417000        1.0080           0
   10778 TIP3 958  TIP3 OH2  OT    -0.834000       15.9994           0
   10779 TIP3 958  TIP3 H1   HT     0.417000        1.0080           0
   10780 TIP3 958  TIP3 H2   HT     0.417000        1.0080           0
   10781 TIP3 959  TIP3 OH2  OT    -0.834000       15.9994           0
   10782 TIP3 959  TIP3 H1   HT     0.417000        1.0080           0
   10783 TIP3 959  TIP3 H2   HT     0.417000        1.0080           0
   10784 TIP3 960  TIP3 OH2  OT    -0.834000       15.9994           0
   10785 TIP3 960  TIP3 H1   HT     0.417000        1.0080           0
   10786 TIP3 960  TIP3 H2   HT     0.417000        1.0080           0
   10787 TIP3 961  TIP3 OH2  OT    -0.834000       15.9994           0
   10788 TIP3 961  TIP3 H1   HT     0.417000        1.0080           0
   10789 TIP3 961  TIP3 H2   HT     0.417000        1.0080           0
   10790 TIP3 962  TIP3 OH2  OT    -0.834000       15.9994           0
   10791 TIP3 962  TIP3 H1   HT     0.417000        1.0080           0
   10792 TIP3 962  TIP3 H2   HT     0.417000        1.0080           0
   10793 TIP3 963  TIP3 OH2  OT    -0.834000       15.9994           0
   10794 TIP3 963  TIP3 H1   HT     0.417000        1.0080           0
   10795 TIP3 963  TIP3 H2   HT     0.417000        1.0080           0
   10796 TIP3 964  TIP3 OH2  OT    -0.834000       15.9994           0
   10797 TIP3 964  TIP3 H1   HT     0.417000        1.0080           0
   10798 TIP3 964  TIP3 H2   HT     0.417000        1.0080           0
   10799 TIP3 965  TIP3 OH2  OT    -0.834000       15.9994           0
   10800 TIP3 965  TIP3 H1   HT     0.417000        1.0080           0
   10801 TIP3 965  TIP3 H2   HT     0.417000        1.0080           0
   10802 TIP3 966  TIP3 OH2  OT    -0.834000       15.9994           0
   10803 TIP3 966  TIP3 H1   HT     0.417000        1.0080           0
   10804 TIP3 966  TIP3 H2   HT     0.417000        1.0080           0
   10805 TIP3 967  TIP3 OH2  OT    -0.834000       15.9994           0
   10806 TIP3 967  TIP3 H1   HT     0.417000        1.0080           0
   10807 TIP3 967  TIP3 H2   HT     0.417000        1.0080           0
   10808 TIP3 968  TIP3 OH2  OT    -0.834000       15.9994           0
   10809 TIP3 968  TIP3 H1   HT     0.417000        1.0080           0
   10810 TIP3 968  TIP3 H2   HT     0.417000        1.0080           0
   10811 TIP3 969  TIP3 OH2  OT    -0.834000       15.9994           0
   10812 TIP3 969  TIP3 H1   HT     0.417000        1.0080           0
   10813 TIP3 969  TIP3 H2   HT     0.417000        1.0080           0
   10814 TIP3 970  TIP3 OH2  OT    -0.834000       15.9994           0
   10815 TIP3 970  TIP3 H1   HT     0.417000        1.0080           0
   10816 TIP3 970  TIP3 H2   HT     0.417000        1.0080           0
   10817 TIP3 971  TIP3 OH2  OT    -0.834000       15.9994           0
   10818 TIP3 971  TIP3 H1   HT     0.417000        1.0080           0
   10819 TIP3 971  TIP3 H2   HT     0.417000        1.0080           0
   10820 TIP3 972  TIP3 OH2  OT    -0.834000       15.9994           0
   10821 TIP3 972  TIP3 H1   HT     0.417000        1.0080           0
   10822 TIP3 972  TIP3 H2   HT     0.417000        1.0080           0
   10823 TIP3 973  TIP3 OH2  OT    -0.834000       15.9994           0
   10824 TIP3 973  TIP3 H1   HT     0.417000        1.0080           0
   10825 TIP3 973  TIP3 H2   HT     0.417000        1.0080           0
   10826 TIP3 974  TIP3 OH2  OT    -0.834000       15.9994           0
   10827 TIP3 974  TIP3 H1   HT     0.417000        1.0080           0
   10828 TIP3 974  TIP3 H2   HT     0.417000        1.0080           0
   10829 TIP3 975  TIP3 OH2  OT    -0.834000       15.9994           0
   10830 TIP3 975  TIP3 H1   HT     0.417000        1.0080           0
   10831 TIP3 975  TIP3 H2   HT     0.417000        1.0080           0
   10832 TIP3 976  TIP3 OH2  OT    -0.834000       15.9994           0
   10833 TIP3 976  TIP3 H1   HT     0.417000        1.0080           0
   10834 TIP3 976  TIP3 H2   HT     0.417000        1.0080           0
   10835 TIP3 977  TIP3 OH2  OT    -0.834000       15.9994           0
   10836 TIP3 977  TIP3 H1   HT     0.417000        1.0080           0
   10837 TIP3 977  TIP3 H2   HT     0.417000        1.0080           0
   10838 TIP3 978  TIP3 OH2  OT    -0.834000       15.9994           0
   10839 TIP3 978  TIP3 H1   HT     0.417000        1.0080           0
   10840 TIP3 978  TIP3 H2   HT     0.417000        1.0080           0
   10841 TIP3 979  TIP3 OH2  OT    -0.834000       15.9994           0
   10842 TIP3 979  TIP3 H1   HT     0.417000        1.0080           0
   10843 TIP3 979  TIP3 H2   HT     0.417000        1.0080           0
   10844 TIP3 980  TIP3 OH2  OT    -0.834000       15.9994           0
   10845 TIP3 980  TIP3 H1   HT     0.417000        1.0080           0
   10846 TIP3 980  TIP3 H2   HT     0.417000        1.0080           0
   10847 TIP3 981  TIP3 OH2  OT    -0.834000       15.9994           0
   10848 TIP3 981  TIP3 H1   HT     0.417000        1.0080           0
   10849 TIP3 981  TIP3 H2   HT     0.417000        1.0080           0
   10850 TIP3 982  TIP3 OH2  OT    -0.834000       15.9994           0
   10851 TIP3 982  TIP3 H1   HT     0.417000        1.0080           0
   10852 TIP3 982  TIP3 H2   HT     0.417000        1.0080           0
   10853 TIP3 983  TIP3 OH2  OT    -0.834000       15.9994           0
   10854 TIP3 983  TIP3 H1   HT     0.417000        1.0080           0
   10855 TIP3 983  TIP3 H2   HT     0.417000        1.0080           0
   10856 TIP3 984  TIP3 OH2  OT    -0.834000       15.9994           0
   10857 TIP3 984  TIP3 H1   HT     0.417000        1.0080           0
   10858 TIP3 984  TIP3 H2   HT     0.417000        1.0080           0
   10859 TIP3 985  TIP3 OH2  OT    -0.834000       15.9994           0
   10860 TIP3 985  TIP3 H1   HT     0.417000        1.0080           0
   10861 TIP3 985  TIP3 H2   HT     0.417000        1.0080           0
   10862 TIP3 986  TIP3 OH2  OT    -0.834000       15.9994           0
   10863 TIP3 986  TIP3 H1   HT     0.417000        1.0080           0
   10864 TIP3 986  TIP3 H2   HT     0.417000        1.0080           0
   10865 TIP3 987  TIP3 OH2  OT    -0.834000       15.9994           0
   10866 TIP3 987  TIP3 H1   HT     0.417000        1.0080           0
   10867 TIP3 987  TIP3 H2   HT     0.417000        1.0080           0
   10868 TIP3 988  TIP3 OH2  OT    -0.834000       15.9994           0
   10869 TIP3 988  TIP3 H1   HT     0.417000        1.0080           0
   10870 TIP3 988  TIP3 H2   HT     0.417000        1.0080           0
   10871 TIP3 989  TIP3 OH2  OT    -0.834000       15.9994           0
   10872 TIP3 989  TIP3 H1   HT     0.417000        1.0080           0
   10873 TIP3 989  TIP3 H2   HT     0.417000        1.0080           0
   10874 TIP3 990  TIP3 OH2  OT    -0.834000       15.9994           0
   10875 TIP3 990  TIP3 H1   HT     0.417000        1.0080           0
   10876 TIP3 990  TIP3 H2   HT     0.417000        1.0080           0
   10877 TIP3 991  TIP3 OH2  OT    -0.834000       15.9994           0
   10878 TIP3 991  TIP3 H1   HT     0.417000        1.0080           0
   10879 TIP3 991  TIP3 H2   HT     0.417000        1.0080           0
   10880 TIP3 992  TIP3 OH2  OT    -0.834000       15.9994           0
   10881 TIP3 992  TIP3 H1   HT     0.417000        1.0080           0
   10882 TIP3 992  TIP3 H2   HT     0.417000        1.0080           0
   10883 TIP3 993  TIP3 OH2  OT    -0.834000       15.9994           0
   10884 TIP3 993  TIP3 H1   HT     0.417000        1.0080           0
   10885 TIP3 993  TIP3 H2   HT     0.417000        1.0080           0
   10886 TIP3 994  TIP3 OH2  OT    -0.834000       15.9994           0
   10887 TIP3 994  TIP3 H1   HT     0.417000        1.0080           0
   10888 TIP3 994  TIP3 H2   HT     0.417000        1.0080           0
   10889 TIP3 995  TIP3 OH2  OT    -0.834000       15.9994           0
   10890 TIP3 995  TIP3 H1   HT     0.417000        1.0080           0
   10891 TIP3 995  TIP3 H2   HT     0.417000        1.0080           0
   10892 TIP3 996  TIP3 OH2  OT    -0.834000       15.9994           0
   10893 TIP3 996  TIP3 H1   HT     0.417000        1.0080           0
   10894 TIP3 996  TIP3 H2   HT     0.417000        1.0080           0
   10895 TIP3 997  TIP3 OH2  OT    -0.834000       15.9994           0
   10896 TIP3 997  TIP3 H1   HT     0.417000        1.0080           0
   10897 TIP3 997  TIP3 H2   HT     0.417000        1.0080           0
   10898 TIP3 998  TIP3 OH2  OT    -0.834000       15.9994           0
   10899 TIP3 998  TIP3 H1   HT     0.417000        1.0080           0
   10900 TIP3 998  TIP3 H2   HT     0.417000        1.0080           0
   10901 TIP3 999  TIP3 OH2  OT    -0.834000       15.9994           0
   10902 TIP3 999  TIP3 H1   HT     0.417000        1.0080           0
   10903 TIP3 999  TIP3 H2   HT     0.417000        1.0080           0
   10904 TIP3 1000 TIP3 OH2  OT    -0.834000       15.9994           0
   10905 TIP3 1000 TIP3 H1   HT     0.417000        1.0080           0
   10906 TIP3 1000 TIP3 H2   HT     0.417000        1.0080           0
   10907 TIP3 1001 TIP3 OH2  OT    -0.834000       15.9994           0
   10908 TIP3 1001 TIP3 H1   HT     0.417000        1.0080           0
   10909 TIP3 1001 TIP3 H2   HT     0.417000        1.0080           0
   10910 TIP3 1002 TIP3 OH2  OT    -0.834000       15.9994           0
   10911 TIP3 1002 TIP3 H1   HT     0.417000        1.0080           0
   10912 TIP3 1002 TIP3 H2   HT     0.417000        1.0080           0
   10913 TIP3 1003 TIP3 OH2  OT    -0.834000       15.9994           0
   10914 TIP3 1003 TIP3 H1   HT     0.417000        1.0080           0
   10915 TIP3 1003 TIP3 H2   HT     0.417000        1.0080           0
   10916 TIP3 1004 TIP3 OH2  OT    -0.834000       15.9994           0
   10917 TIP3 1004 TIP3 H1   HT     0.417000        1.0080           0
   10918 TIP3 1004 TIP3 H2   HT     0.417000        1.0080           0
   10919 TIP3 1005 TIP3 OH2  OT    -0.834000       15.9994           0
   10920 TIP3 1005 TIP3 H1   HT     0.417000        1.0080           0
   10921 TIP3 1005 TIP3 H2   HT     0.417000        1.0080           0
   10922 TIP3 1006 TIP3 OH2  OT    -0.834000       15.9994           0
   10923 TIP3 1006 TIP3 H1   HT     0.417000        1.0080           0
   10924 TIP3 1006 TIP3 H2   HT     0.417000        1.0080           0
   10925 TIP3 1007 TIP3 OH2  OT    -0.834000       15.9994           0
   10926 TIP3 1007 TIP3 H1   HT     0.417000        1.0080           0
   10927 TIP3 1007 TIP3 H2   HT     0.417000        1.0080           0
   10928 TIP3 1008 TIP3 OH2  OT    -0.834000       15.9994           0
   10929 TIP3 1008 TIP3 H1   HT     0.417000        1.0080           0
   10930 TIP3 1008 TIP3 H2   HT     0.417000        1.0080           0
   10931 TIP3 1009 TIP3 OH2  OT    -0.834000       15.9994           0
   10932 TIP3 1009 TIP3 H1   HT     0.417000        1.0080           0
   10933 TIP3 1009 TIP3 H2   HT     0.417000        1.0080           0
   10934 TIP3 1010 TIP3 OH2  OT    -0.834000       15.9994           0
   10935 TIP3 1010 TIP3 H1   HT     0.417000        1.0080           0
   10936 TIP3 1010 TIP3 H2   HT     0.417000        1.0080           0
   10937 TIP3 1011 TIP3 OH2  OT    -0.834000       15.9994           0
   10938 TIP3 1011 TIP3 H1   HT     0.417000        1.0080           0
   10939 TIP3 1011 TIP3 H2   HT     0.417000        1.0080           0
   10940 TIP3 1012 TIP3 OH2  OT    -0.834000       15.9994           0
   10941 TIP3 1012 TIP3 H1   HT     0.417000        1.0080           0
   10942 TIP3 1012 TIP3 H2   HT     0.417000        1.0080           0
   10943 TIP3 1013 TIP3 OH2  OT    -0.834000       15.9994           0
   10944 TIP3 1013 TIP3 H1   HT     0.417000        1.0080           0
   10945 TIP3 1013 TIP3 H2   HT     0.417000        1.0080           0
   10946 TIP3 1014 TIP3 OH2  OT    -0.834000       15.9994           0
   10947 TIP3 1014 TIP3 H1   HT     0.417000        1.0080           0
   10948 TIP3 1014 TIP3 H2   HT     0.417000        1.0080           0
   10949 TIP3 1015 TIP3 OH2  OT    -0.834000       15.9994           0
   10950 TIP3 1015 TIP3 H1   HT     0.417000        1.0080           0
   10951 TIP3 1015 TIP3 H2   HT     0.417000        1.0080           0
   10952 TIP3 1016 TIP3 OH2  OT    -0.834000       15.9994           0
   10953 TIP3 1016 TIP3 H1   HT     0.417000        1.0080           0
   10954 TIP3 1016 TIP3 H2   HT     0.417000        1.0080           0
   10955 TIP3 1017 TIP3 OH2  OT    -0.834000       15.9994           0
   10956 TIP3 1017 TIP3 H1   HT     0.417000        1.0080           0
   10957 TIP3 1017 TIP3 H2   HT     0.417000        1.0080           0
   10958 TIP3 1018 TIP3 OH2  OT    -0.834000       15.9994           0
   10959 TIP3 1018 TIP3 H1   HT     0.417000        1.0080           0
   10960 TIP3 1018 TIP3 H2   HT     0.417000        1.0080           0
   10961 TIP3 1019 TIP3 OH2  OT    -0.834000       15.9994           0
   10962 TIP3 1019 TIP3 H1   HT     0.417000        1.0080           0
   10963 TIP3 1019 TIP3 H2   HT     0.417000        1.0080           0
   10964 TIP3 1020 TIP3 OH2  OT    -0.834000       15.9994           0
   10965 TIP3 1020 TIP3 H1   HT     0.417000        1.0080           0
   10966 TIP3 1020 TIP3 H2   HT     0.417000        1.0080           0
   10967 TIP3 1021 TIP3 OH2  OT    -0.834000       15.9994           0
   10968 TIP3 1021 TIP3 H1   HT     0.417000        1.0080           0
   10969 TIP3 1021 TIP3 H2   HT     0.417000        1.0080           0
   10970 TIP3 1022 TIP3 OH2  OT    -0.834000       15.9994           0
   10971 TIP3 1022 TIP3 H1   HT     0.417000        1.0080           0
   10972 TIP3 1022 TIP3 H2   HT     0.417000        1.0080           0
   10973 TIP3 1023 TIP3 OH2  OT    -0.834000       15.9994           0
   10974 TIP3 1023 TIP3 H1   HT     0.417000        1.0080           0
   10975 TIP3 1023 TIP3 H2   HT     0.417000        1.0080           0
   10976 TIP3 1024 TIP3 OH2  OT    -0.834000       15.9994           0
   10977 TIP3 1024 TIP3 H1   HT     0.417000        1.0080           0
   10978 TIP3 1024 TIP3 H2   HT     0.417000        1.0080           0
   10979 TIP3 1025 TIP3 OH2  OT    -0.834000       15.9994           0
   10980 TIP3 1025 TIP3 H1   HT     0.417000        1.0080           0
   10981 TIP3 1025 TIP3 H2   HT     0.417000        1.0080           0
   10982 TIP3 1026 TIP3 OH2  OT    -0.834000       15.9994           0
   10983 TIP3 1026 TIP3 H1   HT     0.417000        1.0080           0
   10984 TIP3 1026 TIP3 H2   HT     0.417000        1.0080           0
   10985 TIP3 1027 TIP3 OH2  OT    -0.834000       15.9994           0
   10986 TIP3 1027 TIP3 H1   HT     0.417000        1.0080           0
   10987 TIP3 1027 TIP3 H2   HT     0.417000        1.0080           0
   10988 TIP3 1028 TIP3 OH2  OT    -0.834000       15.9994           0
   10989 TIP3 1028 TIP3 H1   HT     0.417000        1.0080           0
   10990 TIP3 1028 TIP3 H2   HT     0.417000        1.0080           0
   10991 TIP3 1029 TIP3 OH2  OT    -0.834000       15.9994           0
   10992 TIP3 1029 TIP3 H1   HT     0.417000        1.0080           0
   10993 TIP3 1029 TIP3 H2   HT     0.417000        1.0080           0
   10994 TIP3 1030 TIP3 OH2  OT    -0.834000       15.9994           0
   10995 TIP3 1030 TIP3 H1   HT     0.417000        1.0080           0
   10996 TIP3 1030 TIP3 H2   HT     0.417000        1.0080           0
   10997 TIP3 1031 TIP3 OH2  OT    -0.834000       15.9994           0
   10998 TIP3 1031 TIP3 H1   HT     0.417000        1.0080           0
   10999 TIP3 1031 TIP3 H2   HT     0.417000        1.0080           0
   11000 TIP3 1032 TIP3 OH2  OT    -0.834000       15.9994           0
   11001 TIP3 1032 TIP3 H1   HT     0.417000        1.0080           0
   11002 TIP3 1032 TIP3 H2   HT     0.417000        1.0080           0
   11003 TIP3 1033 TIP3 OH2  OT    -0.834000       15.9994           0
   11004 TIP3 1033 TIP3 H1   HT     0.417000        1.0080           0
   11005 TIP3 1033 TIP3 H2   HT     0.417000        1.0080           0
   11006 TIP3 1034 TIP3 OH2  OT    -0.834000       15.9994           0
   11007 TIP3 1034 TIP3 H1   HT     0.417000        1.0080           0
   11008 TIP3 1034 TIP3 H2   HT     0.417000        1.0080           0
   11009 TIP3 1035 TIP3 OH2  OT    -0.834000       15.9994           0
   11010 TIP3 1035 TIP3 H1   HT     0.417000        1.0080           0
   11011 TIP3 1035 TIP3 H2   HT     0.417000        1.0080           0
   11012 TIP3 1036 TIP3 OH2  OT    -0.834000       15.9994           0
   11013 TIP3 1036 TIP3 H1   HT     0.417000        1.0080           0
   11014 TIP3 1036 TIP3 H2   HT     0.417000        1.0080           0
   11015 TIP3 1037 TIP3 OH2  OT    -0.834000       15.9994           0
   11016 TIP3 1037 TIP3 H1   HT     0.417000        1.0080           0
   11017 TIP3 1037 TIP3 H2   HT     0.417000        1.0080           0
   11018 TIP3 1038 TIP3 OH2  OT    -0.834000       15.9994           0
   11019 TIP3 1038 TIP3 H1   HT     0.417000        1.0080           0
   11020 TIP3 1038 TIP3 H2   HT     0.417000        1.0080           0
   11021 TIP3 1039 TIP3 OH2  OT    -0.834000       15.9994           0
   11022 TIP3 1039 TIP3 H1   HT     0.417000        1.0080           0
   11023 TIP3 1039 TIP3 H2   HT     0.417000        1.0080           0
   11024 TIP3 1040 TIP3 OH2  OT    -0.834000       15.9994           0
   11025 TIP3 1040 TIP3 H1   HT     0.417000        1.0080           0
   11026 TIP3 1040 TIP3 H2   HT     0.417000        1.0080           0
   11027 TIP3 1041 TIP3 OH2  OT    -0.834000       15.9994           0
   11028 TIP3 1041 TIP3 H1   HT     0.417000        1.0080           0
   11029 TIP3 1041 TIP3 H2   HT     0.417000        1.0080           0
   11030 TIP3 1042 TIP3 OH2  OT    -0.834000       15.9994           0
   11031 TIP3 1042 TIP3 H1   HT     0.417000        1.0080           0
   11032 TIP3 1042 TIP3 H2   HT     0.417000        1.0080           0
   11033 TIP3 1043 TIP3 OH2  OT    -0.834000       15.9994           0
   11034 TIP3 1043 TIP3 H1   HT     0.417000        1.0080           0
   11035 TIP3 1043 TIP3 H2   HT     0.417000        1.0080           0
   11036 TIP3 1044 TIP3 OH2  OT    -0.834000       15.9994           0
   11037 TIP3 1044 TIP3 H1   HT     0.417000        1.0080           0
   11038 TIP3 1044 TIP3 H2   HT     0.417000        1.0080           0
   11039 TIP3 1045 TIP3 OH2  OT    -0.834000       15.9994           0
   11040 TIP3 1045 TIP3 H1   HT     0.417000        1.0080           0
   11041 TIP3 1045 TIP3 H2   HT     0.417000        1.0080           0
   11042 TIP3 1046 TIP3 OH2  OT    -0.834000       15.9994           0
   11043 TIP3 1046 TIP3 H1   HT     0.417000        1.0080           0
   11044 TIP3 1046 TIP3 H2   HT     0.417000        1.0080           0
   11045 TIP3 1047 TIP3 OH2  OT    -0.834000       15.9994           0
   11046 TIP3 1047 TIP3 H1   HT     0.417000        1.0080           0
   11047 TIP3 1047 TIP3 H2   HT     0.417000        1.0080           0
   11048 TIP3 1048 TIP3 OH2  OT    -0.834000       15.9994           0
   11049 TIP3 1048 TIP3 H1   HT     0.417000        1.0080           0
   11050 TIP3 1048 TIP3 H2   HT     0.417000        1.0080           0
   11051 TIP3 1049 TIP3 OH2  OT    -0.834000       15.9994           0
   11052 TIP3 1049 TIP3 H1   HT     0.417000        1.0080           0
   11053 TIP3 1049 TIP3 H2   HT     0.417000        1.0080           0
   11054 TIP3 1050 TIP3 OH2  OT    -0.834000       15.9994           0
   11055 TIP3 1050 TIP3 H1   HT     0.417000        1.0080           0
   11056 TIP3 1050 TIP3 H2   HT     0.417000        1.0080           0
   11057 TIP3 1051 TIP3 OH2  OT    -0.834000       15.9994           0
   11058 TIP3 1051 TIP3 H1   HT     0.417000        1.0080           0
   11059 TIP3 1051 TIP3 H2   HT     0.417000        1.0080           0
   11060 TIP3 1052 TIP3 OH2  OT    -0.834000       15.9994           0
   11061 TIP3 1052 TIP3 H1   HT     0.417000        1.0080           0
   11062 TIP3 1052 TIP3 H2   HT     0.417000        1.0080           0
   11063 TIP3 1053 TIP3 OH2  OT    -0.834000       15.9994           0
   11064 TIP3 1053 TIP3 H1   HT     0.417000        1.0080           0
   11065 TIP3 1053 TIP3 H2   HT     0.417000        1.0080           0
   11066 TIP3 1054 TIP3 OH2  OT    -0.834000       15.9994           0
   11067 TIP3 1054 TIP3 H1   HT     0.417000        1.0080           0
   11068 TIP3 1054 TIP3 H2   HT     0.417000        1.0080           0
   11069 TIP3 1055 TIP3 OH2  OT    -0.834000       15.9994           0
   11070 TIP3 1055 TIP3 H1   HT     0.417000        1.0080           0
   11071 TIP3 1055 TIP3 H2   HT     0.417000        1.0080           0
   11072 TIP3 1056 TIP3 OH2  OT    -0.834000       15.9994           0
   11073 TIP3 1056 TIP3 H1   HT     0.417000        1.0080           0
   11074 TIP3 1056 TIP3 H2   HT     0.417000        1.0080           0
   11075 TIP3 1057 TIP3 OH2  OT    -0.834000       15.9994           0
   11076 TIP3 1057 TIP3 H1   HT     0.417000        1.0080           0
   11077 TIP3 1057 TIP3 H2   HT     0.417000        1.0080           0
   11078 TIP3 1058 TIP3 OH2  OT    -0.834000       15.9994           0
   11079 TIP3 1058 TIP3 H1   HT     0.417000        1.0080           0
   11080 TIP3 1058 TIP3 H2   HT     0.417000        1.0080           0
   11081 TIP3 1059 TIP3 OH2  OT    -0.834000       15.9994           0
   11082 TIP3 1059 TIP3 H1   HT     0.417000        1.0080           0
   11083 TIP3 1059 TIP3 H2   HT     0.417000        1.0080           0
   11084 TIP3 1060 TIP3 OH2  OT    -0.834000       15.9994           0
   11085 TIP3 1060 TIP3 H1   HT     0.417000        1.0080           0
   11086 TIP3 1060 TIP3 H2   HT     0.417000        1.0080           0
   11087 TIP3 1061 TIP3 OH2  OT    -0.834000       15.9994           0
   11088 TIP3 1061 TIP3 H1   HT     0.417000        1.0080           0
   11089 TIP3 1061 TIP3 H2   HT     0.417000        1.0080           0
   11090 TIP3 1062 TIP3 OH2  OT    -0.834000       15.9994           0
   11091 TIP3 1062 TIP3 H1   HT     0.417000        1.0080           0
   11092 TIP3 1062 TIP3 H2   HT     0.417000        1.0080           0
   11093 TIP3 1063 TIP3 OH2  OT    -0.834000       15.9994           0
   11094 TIP3 1063 TIP3 H1   HT     0.417000        1.0080           0
   11095 TIP3 1063 TIP3 H2   HT     0.417000        1.0080           0
   11096 TIP3 1064 TIP3 OH2  OT    -0.834000       15.9994           0
   11097 TIP3 1064 TIP3 H1   HT     0.417000        1.0080           0
   11098 TIP3 1064 TIP3 H2   HT     0.417000        1.0080           0
   11099 TIP3 1065 TIP3 OH2  OT    -0.834000       15.9994           0
   11100 TIP3 1065 TIP3 H1   HT     0.417000        1.0080           0
   11101 TIP3 1065 TIP3 H2   HT     0.417000        1.0080           0
   11102 TIP3 1066 TIP3 OH2  OT    -0.834000       15.9994           0
   11103 TIP3 1066 TIP3 H1   HT     0.417000        1.0080           0
   11104 TIP3 1066 TIP3 H2   HT     0.417000        1.0080           0
   11105 TIP3 1067 TIP3 OH2  OT    -0.834000       15.9994           0
   11106 TIP3 1067 TIP3 H1   HT     0.417000        1.0080           0
   11107 TIP3 1067 TIP3 H2   HT     0.417000        1.0080           0
   11108 TIP3 1068 TIP3 OH2  OT    -0.834000       15.9994           0
   11109 TIP3 1068 TIP3 H1   HT     0.417000        1.0080           0
   11110 TIP3 1068 TIP3 H2   HT     0.417000        1.0080           0
   11111 TIP3 1069 TIP3 OH2  OT    -0.834000       15.9994           0
   11112 TIP3 1069 TIP3 H1   HT     0.417000        1.0080           0
   11113 TIP3 1069 TIP3 H2   HT     0.417000        1.0080           0
   11114 TIP3 1070 TIP3 OH2  OT    -0.834000       15.9994           0
   11115 TIP3 1070 TIP3 H1   HT     0.417000        1.0080           0
   11116 TIP3 1070 TIP3 H2   HT     0.417000        1.0080           0
   11117 TIP3 1071 TIP3 OH2  OT    -0.834000       15.9994           0
   11118 TIP3 1071 TIP3 H1   HT     0.417000        1.0080           0
   11119 TIP3 1071 TIP3 H2   HT     0.417000        1.0080           0
   11120 TIP3 1072 TIP3 OH2  OT    -0.834000       15.9994           0
   11121 TIP3 1072 TIP3 H1   HT     0.417000        1.0080           0
   11122 TIP3 1072 TIP3 H2   HT     0.417000        1.0080           0
   11123 TIP3 1073 TIP3 OH2  OT    -0.834000       15.9994           0
   11124 TIP3 1073 TIP3 H1   HT     0.417000        1.0080           0
   11125 TIP3 1073 TIP3 H2   HT     0.417000        1.0080           0
   11126 TIP3 1074 TIP3 OH2  OT    -0.834000       15.9994           0
   11127 TIP3 1074 TIP3 H1   HT     0.417000        1.0080           0
   11128 TIP3 1074 TIP3 H2   HT     0.417000        1.0080           0
   11129 TIP3 1075 TIP3 OH2  OT    -0.834000       15.9994           0
   11130 TIP3 1075 TIP3 H1   HT     0.417000        1.0080           0
   11131 TIP3 1075 TIP3 H2   HT     0.417000        1.0080           0
   11132 TIP3 1076 TIP3 OH2  OT    -0.834000       15.9994           0
   11133 TIP3 1076 TIP3 H1   HT     0.417000        1.0080           0
   11134 TIP3 1076 TIP3 H2   HT     0.417000        1.0080           0
   11135 TIP3 1077 TIP3 OH2  OT    -0.834000       15.9994           0
   11136 TIP3 1077 TIP3 H1   HT     0.417000        1.0080           0
   11137 TIP3 1077 TIP3 H2   HT     0.417000        1.0080           0
   11138 TIP3 1078 TIP3 OH2  OT    -0.834000       15.9994           0
   11139 TIP3 1078 TIP3 H1   HT     0.417000        1.0080           0
   11140 TIP3 1078 TIP3 H2   HT     0.417000        1.0080           0
   11141 TIP3 1079 TIP3 OH2  OT    -0.834000       15.9994           0
   11142 TIP3 1079 TIP3 H1   HT     0.417000        1.0080           0
   11143 TIP3 1079 TIP3 H2   HT     0.417000        1.0080           0
   11144 TIP3 1080 TIP3 OH2  OT    -0.834000       15.9994           0
   11145 TIP3 1080 TIP3 H1   HT     0.417000        1.0080           0
   11146 TIP3 1080 TIP3 H2   HT     0.417000        1.0080           0
   11147 TIP3 1081 TIP3 OH2  OT    -0.834000       15.9994           0
   11148 TIP3 1081 TIP3 H1   HT     0.417000        1.0080           0
   11149 TIP3 1081 TIP3 H2   HT     0.417000        1.0080           0
   11150 TIP3 1082 TIP3 OH2  OT    -0.834000       15.9994           0
   11151 TIP3 1082 TIP3 H1   HT     0.417000        1.0080           0
   11152 TIP3 1082 TIP3 H2   HT     0.417000        1.0080           0
   11153 TIP3 1083 TIP3 OH2  OT    -0.834000       15.9994           0
   11154 TIP3 1083 TIP3 H1   HT     0.417000        1.0080           0
   11155 TIP3 1083 TIP3 H2   HT     0.417000        1.0080           0
   11156 TIP3 1084 TIP3 OH2  OT    -0.834000       15.9994           0
   11157 TIP3 1084 TIP3 H1   HT     0.417000        1.0080           0
   11158 TIP3 1084 TIP3 H2   HT     0.417000        1.0080           0
   11159 TIP3 1085 TIP3 OH2  OT    -0.834000       15.9994           0
   11160 TIP3 1085 TIP3 H1   HT     0.417000        1.0080           0
   11161 TIP3 1085 TIP3 H2   HT     0.417000        1.0080           0
   11162 TIP3 1086 TIP3 OH2  OT    -0.834000       15.9994           0
   11163 TIP3 1086 TIP3 H1   HT     0.417000        1.0080           0
   11164 TIP3 1086 TIP3 H2   HT     0.417000        1.0080           0
   11165 TIP3 1087 TIP3 OH2  OT    -0.834000       15.9994           0
   11166 TIP3 1087 TIP3 H1   HT     0.417000        1.0080           0
   11167 TIP3 1087 TIP3 H2   HT     0.417000        1.0080           0
   11168 TIP3 1088 TIP3 OH2  OT    -0.834000       15.9994           0
   11169 TIP3 1088 TIP3 H1   HT     0.417000        1.0080           0
   11170 TIP3 1088 TIP3 H2   HT     0.417000        1.0080           0
   11171 TIP3 1089 TIP3 OH2  OT    -0.834000       15.9994           0
   11172 TIP3 1089 TIP3 H1   HT     0.417000        1.0080           0
   11173 TIP3 1089 TIP3 H2   HT     0.417000        1.0080           0
   11174 TIP3 1090 TIP3 OH2  OT    -0.834000       15.9994           0
   11175 TIP3 1090 TIP3 H1   HT     0.417000        1.0080           0
   11176 TIP3 1090 TIP3 H2   HT     0.417000        1.0080           0
   11177 TIP3 1091 TIP3 OH2  OT    -0.834000       15.9994           0
   11178 TIP3 1091 TIP3 H1   HT     0.417000        1.0080           0
   11179 TIP3 1091 TIP3 H2   HT     0.417000        1.0080           0
   11180 TIP3 1092 TIP3 OH2  OT    -0.834000       15.9994           0
   11181 TIP3 1092 TIP3 H1   HT     0.417000        1.0080           0
   11182 TIP3 1092 TIP3 H2   HT     0.417000        1.0080           0
   11183 TIP3 1093 TIP3 OH2  OT    -0.834000       15.9994           0
   11184 TIP3 1093 TIP3 H1   HT     0.417000        1.0080           0
   11185 TIP3 1093 TIP3 H2   HT     0.417000        1.0080           0
   11186 TIP3 1094 TIP3 OH2  OT    -0.834000       15.9994           0
   11187 TIP3 1094 TIP3 H1   HT     0.417000        1.0080           0
   11188 TIP3 1094 TIP3 H2   HT     0.417000        1.0080           0
   11189 TIP3 1095 TIP3 OH2  OT    -0.834000       15.9994           0
   11190 TIP3 1095 TIP3 H1   HT     0.417000        1.0080           0
   11191 TIP3 1095 TIP3 H2   HT     0.417000        1.0080           0
   11192 TIP3 1096 TIP3 OH2  OT    -0.834000       15.9994           0
   11193 TIP3 1096 TIP3 H1   HT     0.417000        1.0080           0
   11194 TIP3 1096 TIP3 H2   HT     0.417000        1.0080           0
   11195 TIP3 1097 TIP3 OH2  OT    -0.834000       15.9994           0
   11196 TIP3 1097 TIP3 H1   HT     0.417000        1.0080           0
   11197 TIP3 1097 TIP3 H2   HT     0.417000        1.0080           0
   11198 TIP3 1098 TIP3 OH2  OT    -0.834000       15.9994           0
   11199 TIP3 1098 TIP3 H1   HT     0.417000        1.0080           0
   11200 TIP3 1098 TIP3 H2   HT     0.417000        1.0080           0
   11201 TIP3 1099 TIP3 OH2  OT    -0.834000       15.9994           0
   11202 TIP3 1099 TIP3 H1   HT     0.417000        1.0080           0
   11203 TIP3 1099 TIP3 H2   HT     0.417000        1.0080           0
   11204 TIP3 1100 TIP3 OH2  OT    -0.834000       15.9994           0
   11205 TIP3 1100 TIP3 H1   HT     0.417000        1.0080           0
   11206 TIP3 1100 TIP3 H2   HT     0.417000        1.0080           0
   11207 TIP3 1101 TIP3 OH2  OT    -0.834000       15.9994           0
   11208 TIP3 1101 TIP3 H1   HT     0.417000        1.0080           0
   11209 TIP3 1101 TIP3 H2   HT     0.417000        1.0080           0
   11210 TIP3 1102 TIP3 OH2  OT    -0.834000       15.9994           0
   11211 TIP3 1102 TIP3 H1   HT     0.417000        1.0080           0
   11212 TIP3 1102 TIP3 H2   HT     0.417000        1.0080           0
   11213 TIP3 1103 TIP3 OH2  OT    -0.834000       15.9994           0
   11214 TIP3 1103 TIP3 H1   HT     0.417000        1.0080           0
   11215 TIP3 1103 TIP3 H2   HT     0.417000        1.0080           0
   11216 TIP3 1104 TIP3 OH2  OT    -0.834000       15.9994           0
   11217 TIP3 1104 TIP3 H1   HT     0.417000        1.0080           0
   11218 TIP3 1104 TIP3 H2   HT     0.417000        1.0080           0
   11219 TIP3 1105 TIP3 OH2  OT    -0.834000       15.9994           0
   11220 TIP3 1105 TIP3 H1   HT     0.417000        1.0080           0
   11221 TIP3 1105 TIP3 H2   HT     0.417000        1.0080           0
   11222 TIP3 1106 TIP3 OH2  OT    -0.834000       15.9994           0
   11223 TIP3 1106 TIP3 H1   HT     0.417000        1.0080           0
   11224 TIP3 1106 TIP3 H2   HT     0.417000        1.0080           0
   11225 TIP3 1107 TIP3 OH2  OT    -0.834000       15.9994           0
   11226 TIP3 1107 TIP3 H1   HT     0.417000        1.0080           0
   11227 TIP3 1107 TIP3 H2   HT     0.417000        1.0080           0
   11228 TIP3 1108 TIP3 OH2  OT    -0.834000       15.9994           0
   11229 TIP3 1108 TIP3 H1   HT     0.417000        1.0080           0
   11230 TIP3 1108 TIP3 H2   HT     0.417000        1.0080           0
   11231 TIP3 1109 TIP3 OH2  OT    -0.834000       15.9994           0
   11232 TIP3 1109 TIP3 H1   HT     0.417000        1.0080           0
   11233 TIP3 1109 TIP3 H2   HT     0.417000        1.0080           0
   11234 TIP3 1110 TIP3 OH2  OT    -0.834000       15.9994           0
   11235 TIP3 1110 TIP3 H1   HT     0.417000        1.0080           0
   11236 TIP3 1110 TIP3 H2   HT     0.417000        1.0080           0
   11237 TIP3 1111 TIP3 OH2  OT    -0.834000       15.9994           0
   11238 TIP3 1111 TIP3 H1   HT     0.417000        1.0080           0
   11239 TIP3 1111 TIP3 H2   HT     0.417000        1.0080           0
   11240 TIP3 1112 TIP3 OH2  OT    -0.834000       15.9994           0
   11241 TIP3 1112 TIP3 H1   HT     0.417000        1.0080           0
   11242 TIP3 1112 TIP3 H2   HT     0.417000        1.0080           0
   11243 TIP3 1113 TIP3 OH2  OT    -0.834000       15.9994           0
   11244 TIP3 1113 TIP3 H1   HT     0.417000        1.0080           0
   11245 TIP3 1113 TIP3 H2   HT     0.417000        1.0080           0
   11246 TIP3 1114 TIP3 OH2  OT    -0.834000       15.9994           0
   11247 TIP3 1114 TIP3 H1   HT     0.417000        1.0080           0
   11248 TIP3 1114 TIP3 H2   HT     0.417000        1.0080           0
   11249 TIP3 1115 TIP3 OH2  OT    -0.834000       15.9994           0
   11250 TIP3 1115 TIP3 H1   HT     0.417000        1.0080           0
   11251 TIP3 1115 TIP3 H2   HT     0.417000        1.0080           0
   11252 TIP3 1116 TIP3 OH2  OT    -0.834000       15.9994           0
   11253 TIP3 1116 TIP3 H1   HT     0.417000        1.0080           0
   11254 TIP3 1116 TIP3 H2   HT     0.417000        1.0080           0
   11255 TIP3 1117 TIP3 OH2  OT    -0.834000       15.9994           0
   11256 TIP3 1117 TIP3 H1   HT     0.417000        1.0080           0
   11257 TIP3 1117 TIP3 H2   HT     0.417000        1.0080           0
   11258 TIP3 1118 TIP3 OH2  OT    -0.834000       15.9994           0
   11259 TIP3 1118 TIP3 H1   HT     0.417000        1.0080           0
   11260 TIP3 1118 TIP3 H2   HT     0.417000        1.0080           0
   11261 TIP3 1119 TIP3 OH2  OT    -0.834000       15.9994           0
   11262 TIP3 1119 TIP3 H1   HT     0.417000        1.0080           0
   11263 TIP3 1119 TIP3 H2   HT     0.417000        1.0080           0
   11264 TIP3 1120 TIP3 OH2  OT    -0.834000       15.9994           0
   11265 TIP3 1120 TIP3 H1   HT     0.417000        1.0080           0
   11266 TIP3 1120 TIP3 H2   HT     0.417000        1.0080           0
   11267 TIP3 1121 TIP3 OH2  OT    -0.834000       15.9994           0
   11268 TIP3 1121 TIP3 H1   HT     0.417000        1.0080           0
   11269 TIP3 1121 TIP3 H2   HT     0.417000        1.0080           0
   11270 TIP3 1122 TIP3 OH2  OT    -0.834000       15.9994           0
   11271 TIP3 1122 TIP3 H1   HT     0.417000        1.0080           0
   11272 TIP3 1122 TIP3 H2   HT     0.417000        1.0080           0
   11273 TIP3 1123 TIP3 OH2  OT    -0.834000       15.9994           0
   11274 TIP3 1123 TIP3 H1   HT     0.417000        1.0080           0
   11275 TIP3 1123 TIP3 H2   HT     0.417000        1.0080           0
   11276 TIP3 1124 TIP3 OH2  OT    -0.834000       15.9994           0
   11277 TIP3 1124 TIP3 H1   HT     0.417000        1.0080           0
   11278 TIP3 1124 TIP3 H2   HT     0.417000        1.0080           0
   11279 TIP3 1125 TIP3 OH2  OT    -0.834000       15.9994           0
   11280 TIP3 1125 TIP3 H1   HT     0.417000        1.0080           0
   11281 TIP3 1125 TIP3 H2   HT     0.417000        1.0080           0
   11282 TIP3 1126 TIP3 OH2  OT    -0.834000       15.9994           0
   11283 TIP3 1126 TIP3 H1   HT     0.417000        1.0080           0
   11284 TIP3 1126 TIP3 H2   HT     0.417000        1.0080           0
   11285 TIP3 1127 TIP3 OH2  OT    -0.834000       15.9994           0
   11286 TIP3 1127 TIP3 H1   HT     0.417000        1.0080           0
   11287 TIP3 1127 TIP3 H2   HT     0.417000        1.0080           0
   11288 TIP3 1128 TIP3 OH2  OT    -0.834000       15.9994           0
   11289 TIP3 1128 TIP3 H1   HT     0.417000        1.0080           0
   11290 TIP3 1128 TIP3 H2   HT     0.417000        1.0080           0
   11291 TIP3 1129 TIP3 OH2  OT    -0.834000       15.9994           0
   11292 TIP3 1129 TIP3 H1   HT     0.417000        1.0080           0
   11293 TIP3 1129 TIP3 H2   HT     0.417000        1.0080           0
   11294 TIP3 1130 TIP3 OH2  OT    -0.834000       15.9994           0
   11295 TIP3 1130 TIP3 H1   HT     0.417000        1.0080           0
   11296 TIP3 1130 TIP3 H2   HT     0.417000        1.0080           0
   11297 TIP3 1131 TIP3 OH2  OT    -0.834000       15.9994           0
   11298 TIP3 1131 TIP3 H1   HT     0.417000        1.0080           0
   11299 TIP3 1131 TIP3 H2   HT     0.417000        1.0080           0
   11300 TIP3 1132 TIP3 OH2  OT    -0.834000       15.9994           0
   11301 TIP3 1132 TIP3 H1   HT     0.417000        1.0080           0
   11302 TIP3 1132 TIP3 H2   HT     0.417000        1.0080           0
   11303 TIP3 1133 TIP3 OH2  OT    -0.834000       15.9994           0
   11304 TIP3 1133 TIP3 H1   HT     0.417000        1.0080           0
   11305 TIP3 1133 TIP3 H2   HT     0.417000        1.0080           0
   11306 TIP3 1134 TIP3 OH2  OT    -0.834000       15.9994           0
   11307 TIP3 1134 TIP3 H1   HT     0.417000        1.0080           0
   11308 TIP3 1134 TIP3 H2   HT     0.417000        1.0080           0
   11309 TIP3 1135 TIP3 OH2  OT    -0.834000       15.9994           0
   11310 TIP3 1135 TIP3 H1   HT     0.417000        1.0080           0
   11311 TIP3 1135 TIP3 H2   HT     0.417000        1.0080           0
   11312 TIP3 1136 TIP3 OH2  OT    -0.834000       15.9994           0
   11313 TIP3 1136 TIP3 H1   HT     0.417000        1.0080           0
   11314 TIP3 1136 TIP3 H2   HT     0.417000        1.0080           0
   11315 TIP3 1137 TIP3 OH2  OT    -0.834000       15.9994           0
   11316 TIP3 1137 TIP3 H1   HT     0.417000        1.0080           0
   11317 TIP3 1137 TIP3 H2   HT     0.417000        1.0080           0
   11318 TIP3 1138 TIP3 OH2  OT    -0.834000       15.9994           0
   11319 TIP3 1138 TIP3 H1   HT     0.417000        1.0080           0
   11320 TIP3 1138 TIP3 H2   HT     0.417000        1.0080           0
   11321 TIP3 1139 TIP3 OH2  OT    -0.834000       15.9994           0
   11322 TIP3 1139 TIP3 H1   HT     0.417000        1.0080           0
   11323 TIP3 1139 TIP3 H2   HT     0.417000        1.0080           0
   11324 TIP3 1140 TIP3 OH2  OT    -0.834000       15.9994           0
   11325 TIP3 1140 TIP3 H1   HT     0.417000        1.0080           0
   11326 TIP3 1140 TIP3 H2   HT     0.417000        1.0080           0
   11327 TIP3 1141 TIP3 OH2  OT    -0.834000       15.9994           0
   11328 TIP3 1141 TIP3 H1   HT     0.417000        1.0080           0
   11329 TIP3 1141 TIP3 H2   HT     0.417000        1.0080           0
   11330 TIP3 1142 TIP3 OH2  OT    -0.834000       15.9994           0
   11331 TIP3 1142 TIP3 H1   HT     0.417000        1.0080           0
   11332 TIP3 1142 TIP3 H2   HT     0.417000        1.0080           0
   11333 TIP3 1143 TIP3 OH2  OT    -0.834000       15.9994           0
   11334 TIP3 1143 TIP3 H1   HT     0.417000        1.0080           0
   11335 TIP3 1143 TIP3 H2   HT     0.417000        1.0080           0
   11336 TIP3 1144 TIP3 OH2  OT    -0.834000       15.9994           0
   11337 TIP3 1144 TIP3 H1   HT     0.417000        1.0080           0
   11338 TIP3 1144 TIP3 H2   HT     0.417000        1.0080           0
   11339 TIP3 1145 TIP3 OH2  OT    -0.834000       15.9994           0
   11340 TIP3 1145 TIP3 H1   HT     0.417000        1.0080           0
   11341 TIP3 1145 TIP3 H2   HT     0.417000        1.0080           0
   11342 TIP3 1146 TIP3 OH2  OT    -0.834000       15.9994           0
   11343 TIP3 1146 TIP3 H1   HT     0.417000        1.0080           0
   11344 TIP3 1146 TIP3 H2   HT     0.417000        1.0080           0
   11345 TIP3 1147 TIP3 OH2  OT    -0.834000       15.9994           0
   11346 TIP3 1147 TIP3 H1   HT     0.417000        1.0080           0
   11347 TIP3 1147 TIP3 H2   HT     0.417000        1.0080           0
   11348 TIP3 1148 TIP3 OH2  OT    -0.834000       15.9994           0
   11349 TIP3 1148 TIP3 H1   HT     0.417000        1.0080           0
   11350 TIP3 1148 TIP3 H2   HT     0.417000        1.0080           0
   11351 TIP3 1149 TIP3 OH2  OT    -0.834000       15.9994           0
   11352 TIP3 1149 TIP3 H1   HT     0.417000        1.0080           0
   11353 TIP3 1149 TIP3 H2   HT     0.417000        1.0080           0
   11354 TIP3 1150 TIP3 OH2  OT    -0.834000       15.9994           0
   11355 TIP3 1150 TIP3 H1   HT     0.417000        1.0080           0
   11356 TIP3 1150 TIP3 H2   HT     0.417000        1.0080           0
   11357 TIP3 1151 TIP3 OH2  OT    -0.834000       15.9994           0
   11358 TIP3 1151 TIP3 H1   HT     0.417000        1.0080           0
   11359 TIP3 1151 TIP3 H2   HT     0.417000        1.0080           0
   11360 TIP3 1152 TIP3 OH2  OT    -0.834000       15.9994           0
   11361 TIP3 1152 TIP3 H1   HT     0.417000        1.0080           0
   11362 TIP3 1152 TIP3 H2   HT     0.417000        1.0080           0
   11363 TIP3 1153 TIP3 OH2  OT    -0.834000       15.9994           0
   11364 TIP3 1153 TIP3 H1   HT     0.417000        1.0080           0
   11365 TIP3 1153 TIP3 H2   HT     0.417000        1.0080           0
   11366 TIP3 1154 TIP3 OH2  OT    -0.834000       15.9994           0
   11367 TIP3 1154 TIP3 H1   HT     0.417000        1.0080           0
   11368 TIP3 1154 TIP3 H2   HT     0.417000        1.0080           0
   11369 TIP3 1155 TIP3 OH2  OT    -0.834000       15.9994           0
   11370 TIP3 1155 TIP3 H1   HT     0.417000        1.0080           0
   11371 TIP3 1155 TIP3 H2   HT     0.417000        1.0080           0
   11372 TIP3 1156 TIP3 OH2  OT    -0.834000       15.9994           0
   11373 TIP3 1156 TIP3 H1   HT     0.417000        1.0080           0
   11374 TIP3 1156 TIP3 H2   HT     0.417000        1.0080           0
   11375 TIP3 1157 TIP3 OH2  OT    -0.834000       15.9994           0
   11376 TIP3 1157 TIP3 H1   HT     0.417000        1.0080           0
   11377 TIP3 1157 TIP3 H2   HT     0.417000        1.0080           0
   11378 TIP3 1158 TIP3 OH2  OT    -0.834000       15.9994           0
   11379 TIP3 1158 TIP3 H1   HT     0.417000        1.0080           0
   11380 TIP3 1158 TIP3 H2   HT     0.417000        1.0080           0
   11381 TIP3 1159 TIP3 OH2  OT    -0.834000       15.9994           0
   11382 TIP3 1159 TIP3 H1   HT     0.417000        1.0080           0
   11383 TIP3 1159 TIP3 H2   HT     0.417000        1.0080           0
   11384 TIP3 1160 TIP3 OH2  OT    -0.834000       15.9994           0
   11385 TIP3 1160 TIP3 H1   HT     0.417000        1.0080           0
   11386 TIP3 1160 TIP3 H2   HT     0.417000        1.0080           0
   11387 TIP3 1161 TIP3 OH2  OT    -0.834000       15.9994           0
   11388 TIP3 1161 TIP3 H1   HT     0.417000        1.0080           0
   11389 TIP3 1161 TIP3 H2   HT     0.417000        1.0080           0
   11390 TIP3 1162 TIP3 OH2  OT    -0.834000       15.9994           0
   11391 TIP3 1162 TIP3 H1   HT     0.417000        1.0080           0
   11392 TIP3 1162 TIP3 H2   HT     0.417000        1.0080           0
   11393 TIP3 1163 TIP3 OH2  OT    -0.834000       15.9994           0
   11394 TIP3 1163 TIP3 H1   HT     0.417000        1.0080           0
   11395 TIP3 1163 TIP3 H2   HT     0.417000        1.0080           0
   11396 TIP3 1164 TIP3 OH2  OT    -0.834000       15.9994           0
   11397 TIP3 1164 TIP3 H1   HT     0.417000        1.0080           0
   11398 TIP3 1164 TIP3 H2   HT     0.417000        1.0080           0
   11399 TIP3 1165 TIP3 OH2  OT    -0.834000       15.9994           0
   11400 TIP3 1165 TIP3 H1   HT     0.417000        1.0080           0
   11401 TIP3 1165 TIP3 H2   HT     0.417000        1.0080           0
   11402 TIP3 1166 TIP3 OH2  OT    -0.834000       15.9994           0
   11403 TIP3 1166 TIP3 H1   HT     0.417000        1.0080           0
   11404 TIP3 1166 TIP3 H2   HT     0.417000        1.0080           0
   11405 TIP3 1167 TIP3 OH2  OT    -0.834000       15.9994           0
   11406 TIP3 1167 TIP3 H1   HT     0.417000        1.0080           0
   11407 TIP3 1167 TIP3 H2   HT     0.417000        1.0080           0
   11408 TIP3 1168 TIP3 OH2  OT    -0.834000       15.9994           0
   11409 TIP3 1168 TIP3 H1   HT     0.417000        1.0080           0
   11410 TIP3 1168 TIP3 H2   HT     0.417000        1.0080           0
   11411 TIP3 1169 TIP3 OH2  OT    -0.834000       15.9994           0
   11412 TIP3 1169 TIP3 H1   HT     0.417000        1.0080           0
   11413 TIP3 1169 TIP3 H2   HT     0.417000        1.0080           0
   11414 TIP3 1170 TIP3 OH2  OT    -0.834000       15.9994           0
   11415 TIP3 1170 TIP3 H1   HT     0.417000        1.0080           0
   11416 TIP3 1170 TIP3 H2   HT     0.417000        1.0080           0
   11417 TIP3 1171 TIP3 OH2  OT    -0.834000       15.9994           0
   11418 TIP3 1171 TIP3 H1   HT     0.417000        1.0080           0
   11419 TIP3 1171 TIP3 H2   HT     0.417000        1.0080           0
   11420 TIP3 1172 TIP3 OH2  OT    -0.834000       15.9994           0
   11421 TIP3 1172 TIP3 H1   HT     0.417000        1.0080           0
   11422 TIP3 1172 TIP3 H2   HT     0.417000        1.0080           0
   11423 TIP3 1173 TIP3 OH2  OT    -0.834000       15.9994           0
   11424 TIP3 1173 TIP3 H1   HT     0.417000        1.0080           0
   11425 TIP3 1173 TIP3 H2   HT     0.417000        1.0080           0
   11426 TIP3 1174 TIP3 OH2  OT    -0.834000       15.9994           0
   11427 TIP3 1174 TIP3 H1   HT     0.417000        1.0080           0
   11428 TIP3 1174 TIP3 H2   HT     0.417000        1.0080           0
   11429 TIP3 1175 TIP3 OH2  OT    -0.834000       15.9994           0
   11430 TIP3 1175 TIP3 H1   HT     0.417000        1.0080           0
   11431 TIP3 1175 TIP3 H2   HT     0.417000        1.0080           0
   11432 TIP3 1176 TIP3 OH2  OT    -0.834000       15.9994           0
   11433 TIP3 1176 TIP3 H1   HT     0.417000        1.0080           0
   11434 TIP3 1176 TIP3 H2   HT     0.417000        1.0080           0
   11435 TIP3 1177 TIP3 OH2  OT    -0.834000       15.9994           0
   11436 TIP3 1177 TIP3 H1   HT     0.417000        1.0080           0
   11437 TIP3 1177 TIP3 H2   HT     0.417000        1.0080           0
   11438 TIP3 1178 TIP3 OH2  OT    -0.834000       15.9994           0
   11439 TIP3 1178 TIP3 H1   HT     0.417000        1.0080           0
   11440 TIP3 1178 TIP3 H2   HT     0.417000        1.0080           0
   11441 TIP3 1179 TIP3 OH2  OT    -0.834000       15.9994           0
   11442 TIP3 1179 TIP3 H1   HT     0.417000        1.0080           0
   11443 TIP3 1179 TIP3 H2   HT     0.417000        1.0080           0
   11444 TIP3 1180 TIP3 OH2  OT    -0.834000       15.9994           0
   11445 TIP3 1180 TIP3 H1   HT     0.417000        1.0080           0
   11446 TIP3 1180 TIP3 H2   HT     0.417000        1.0080           0
   11447 TIP3 1181 TIP3 OH2  OT    -0.834000       15.9994           0
   11448 TIP3 1181 TIP3 H1   HT     0.417000        1.0080           0
   11449 TIP3 1181 TIP3 H2   HT     0.417000        1.0080           0
   11450 TIP3 1182 TIP3 OH2  OT    -0.834000       15.9994           0
   11451 TIP3 1182 TIP3 H1   HT     0.417000        1.0080           0
   11452 TIP3 1182 TIP3 H2   HT     0.417000        1.0080           0
   11453 TIP3 1183 TIP3 OH2  OT    -0.834000       15.9994           0
   11454 TIP3 1183 TIP3 H1   HT     0.417000        1.0080           0
   11455 TIP3 1183 TIP3 H2   HT     0.417000        1.0080           0
   11456 TIP3 1184 TIP3 OH2  OT    -0.834000       15.9994           0
   11457 TIP3 1184 TIP3 H1   HT     0.417000        1.0080           0
   11458 TIP3 1184 TIP3 H2   HT     0.417000        1.0080           0
   11459 TIP3 1185 TIP3 OH2  OT    -0.834000       15.9994           0
   11460 TIP3 1185 TIP3 H1   HT     0.417000        1.0080           0
   11461 TIP3 1185 TIP3 H2   HT     0.417000        1.0080           0
   11462 TIP3 1186 TIP3 OH2  OT    -0.834000       15.9994           0
   11463 TIP3 1186 TIP3 H1   HT     0.417000        1.0080           0
   11464 TIP3 1186 TIP3 H2   HT     0.417000        1.0080           0
   11465 TIP3 1187 TIP3 OH2  OT    -0.834000       15.9994           0
   11466 TIP3 1187 TIP3 H1   HT     0.417000        1.0080           0
   11467 TIP3 1187 TIP3 H2   HT     0.417000        1.0080           0
   11468 TIP3 1188 TIP3 OH2  OT    -0.834000       15.9994           0
   11469 TIP3 1188 TIP3 H1   HT     0.417000        1.0080           0
   11470 TIP3 1188 TIP3 H2   HT     0.417000        1.0080           0
   11471 TIP3 1189 TIP3 OH2  OT    -0.834000       15.9994           0
   11472 TIP3 1189 TIP3 H1   HT     0.417000        1.0080           0
   11473 TIP3 1189 TIP3 H2   HT     0.417000        1.0080           0
   11474 TIP3 1190 TIP3 OH2  OT    -0.834000       15.9994           0
   11475 TIP3 1190 TIP3 H1   HT     0.417000        1.0080           0
   11476 TIP3 1190 TIP3 H2   HT     0.417000        1.0080           0
   11477 TIP3 1191 TIP3 OH2  OT    -0.834000       15.9994           0
   11478 TIP3 1191 TIP3 H1   HT     0.417000        1.0080           0
   11479 TIP3 1191 TIP3 H2   HT     0.417000        1.0080           0
   11480 TIP3 1192 TIP3 OH2  OT    -0.834000       15.9994           0
   11481 TIP3 1192 TIP3 H1   HT     0.417000        1.0080           0
   11482 TIP3 1192 TIP3 H2   HT     0.417000        1.0080           0
   11483 TIP3 1193 TIP3 OH2  OT    -0.834000       15.9994           0
   11484 TIP3 1193 TIP3 H1   HT     0.417000        1.0080           0
   11485 TIP3 1193 TIP3 H2   HT     0.417000        1.0080           0
   11486 TIP3 1194 TIP3 OH2  OT    -0.834000       15.9994           0
   11487 TIP3 1194 TIP3 H1   HT     0.417000        1.0080           0
   11488 TIP3 1194 TIP3 H2   HT     0.417000        1.0080           0
   11489 TIP3 1195 TIP3 OH2  OT    -0.834000       15.9994           0
   11490 TIP3 1195 TIP3 H1   HT     0.417000        1.0080           0
   11491 TIP3 1195 TIP3 H2   HT     0.417000        1.0080           0
   11492 TIP3 1196 TIP3 OH2  OT    -0.834000       15.9994           0
   11493 TIP3 1196 TIP3 H1   HT     0.417000        1.0080           0
   11494 TIP3 1196 TIP3 H2   HT     0.417000        1.0080           0
   11495 TIP3 1197 TIP3 OH2  OT    -0.834000       15.9994           0
   11496 TIP3 1197 TIP3 H1   HT     0.417000        1.0080           0
   11497 TIP3 1197 TIP3 H2   HT     0.417000        1.0080           0
   11498 TIP3 1198 TIP3 OH2  OT    -0.834000       15.9994           0
   11499 TIP3 1198 TIP3 H1   HT     0.417000        1.0080           0
   11500 TIP3 1198 TIP3 H2   HT     0.417000        1.0080           0
   11501 TIP3 1199 TIP3 OH2  OT    -0.834000       15.9994           0
   11502 TIP3 1199 TIP3 H1   HT     0.417000        1.0080           0
   11503 TIP3 1199 TIP3 H2   HT     0.417000        1.0080           0
   11504 TIP3 1200 TIP3 OH2  OT    -0.834000       15.9994           0
   11505 TIP3 1200 TIP3 H1   HT     0.417000        1.0080           0
   11506 TIP3 1200 TIP3 H2   HT     0.417000        1.0080           0
   11507 TIP3 1201 TIP3 OH2  OT    -0.834000       15.9994           0
   11508 TIP3 1201 TIP3 H1   HT     0.417000        1.0080           0
   11509 TIP3 1201 TIP3 H2   HT     0.417000        1.0080           0
   11510 TIP3 1202 TIP3 OH2  OT    -0.834000       15.9994           0
   11511 TIP3 1202 TIP3 H1   HT     0.417000        1.0080           0
   11512 TIP3 1202 TIP3 H2   HT     0.417000        1.0080           0
   11513 TIP3 1203 TIP3 OH2  OT    -0.834000       15.9994           0
   11514 TIP3 1203 TIP3 H1   HT     0.417000        1.0080           0
   11515 TIP3 1203 TIP3 H2   HT     0.417000        1.0080           0
   11516 TIP3 1204 TIP3 OH2  OT    -0.834000       15.9994           0
   11517 TIP3 1204 TIP3 H1   HT     0.417000        1.0080           0
   11518 TIP3 1204 TIP3 H2   HT     0.417000        1.0080           0
   11519 TIP3 1205 TIP3 OH2  OT    -0.834000       15.9994           0
   11520 TIP3 1205 TIP3 H1   HT     0.417000        1.0080           0
   11521 TIP3 1205 TIP3 H2   HT     0.417000        1.0080           0
   11522 TIP3 1206 TIP3 OH2  OT    -0.834000       15.9994           0
   11523 TIP3 1206 TIP3 H1   HT     0.417000        1.0080           0
   11524 TIP3 1206 TIP3 H2   HT     0.417000        1.0080           0
   11525 TIP3 1207 TIP3 OH2  OT    -0.834000       15.9994           0
   11526 TIP3 1207 TIP3 H1   HT     0.417000        1.0080           0
   11527 TIP3 1207 TIP3 H2   HT     0.417000        1.0080           0
   11528 TIP3 1208 TIP3 OH2  OT    -0.834000       15.9994           0
   11529 TIP3 1208 TIP3 H1   HT     0.417000        1.0080           0
   11530 TIP3 1208 TIP3 H2   HT     0.417000        1.0080           0
   11531 TIP3 1209 TIP3 OH2  OT    -0.834000       15.9994           0
   11532 TIP3 1209 TIP3 H1   HT     0.417000        1.0080           0
   11533 TIP3 1209 TIP3 H2   HT     0.417000        1.0080           0
   11534 TIP3 1210 TIP3 OH2  OT    -0.834000       15.9994           0
   11535 TIP3 1210 TIP3 H1   HT     0.417000        1.0080           0
   11536 TIP3 1210 TIP3 H2   HT     0.417000        1.0080           0
   11537 TIP3 1211 TIP3 OH2  OT    -0.834000       15.9994           0
   11538 TIP3 1211 TIP3 H1   HT     0.417000        1.0080           0
   11539 TIP3 1211 TIP3 H2   HT     0.417000        1.0080           0
   11540 TIP3 1212 TIP3 OH2  OT    -0.834000       15.9994           0
   11541 TIP3 1212 TIP3 H1   HT     0.417000        1.0080           0
   11542 TIP3 1212 TIP3 H2   HT     0.417000        1.0080           0
   11543 TIP3 1213 TIP3 OH2  OT    -0.834000       15.9994           0
   11544 TIP3 1213 TIP3 H1   HT     0.417000        1.0080           0
   11545 TIP3 1213 TIP3 H2   HT     0.417000        1.0080           0
   11546 TIP3 1214 TIP3 OH2  OT    -0.834000       15.9994           0
   11547 TIP3 1214 TIP3 H1   HT     0.417000        1.0080           0
   11548 TIP3 1214 TIP3 H2   HT     0.417000        1.0080           0
   11549 TIP3 1215 TIP3 OH2  OT    -0.834000       15.9994           0
   11550 TIP3 1215 TIP3 H1   HT     0.417000        1.0080           0
   11551 TIP3 1215 TIP3 H2   HT     0.417000        1.0080           0
   11552 TIP3 1216 TIP3 OH2  OT    -0.834000       15.9994           0
   11553 TIP3 1216 TIP3 H1   HT     0.417000        1.0080           0
   11554 TIP3 1216 TIP3 H2   HT     0.417000        1.0080           0
   11555 TIP3 1217 TIP3 OH2  OT    -0.834000       15.9994           0
   11556 TIP3 1217 TIP3 H1   HT     0.417000        1.0080           0
   11557 TIP3 1217 TIP3 H2   HT     0.417000        1.0080           0
   11558 TIP3 1218 TIP3 OH2  OT    -0.834000       15.9994           0
   11559 TIP3 1218 TIP3 H1   HT     0.417000        1.0080           0
   11560 TIP3 1218 TIP3 H2   HT     0.417000        1.0080           0
   11561 TIP3 1219 TIP3 OH2  OT    -0.834000       15.9994           0
   11562 TIP3 1219 TIP3 H1   HT     0.417000        1.0080           0
   11563 TIP3 1219 TIP3 H2   HT     0.417000        1.0080           0
   11564 TIP3 1220 TIP3 OH2  OT    -0.834000       15.9994           0
   11565 TIP3 1220 TIP3 H1   HT     0.417000        1.0080           0
   11566 TIP3 1220 TIP3 H2   HT     0.417000        1.0080           0
   11567 TIP3 1221 TIP3 OH2  OT    -0.834000       15.9994           0
   11568 TIP3 1221 TIP3 H1   HT     0.417000        1.0080           0
   11569 TIP3 1221 TIP3 H2   HT     0.417000        1.0080           0
   11570 TIP3 1222 TIP3 OH2  OT    -0.834000       15.9994           0
   11571 TIP3 1222 TIP3 H1   HT     0.417000        1.0080           0
   11572 TIP3 1222 TIP3 H2   HT     0.417000        1.0080           0
   11573 TIP3 1223 TIP3 OH2  OT    -0.834000       15.9994           0
   11574 TIP3 1223 TIP3 H1   HT     0.417000        1.0080           0
   11575 TIP3 1223 TIP3 H2   HT     0.417000        1.0080           0
   11576 TIP3 1224 TIP3 OH2  OT    -0.834000       15.9994           0
   11577 TIP3 1224 TIP3 H1   HT     0.417000        1.0080           0
   11578 TIP3 1224 TIP3 H2   HT     0.417000        1.0080           0
   11579 TIP3 1225 TIP3 OH2  OT    -0.834000       15.9994           0
   11580 TIP3 1225 TIP3 H1   HT     0.417000        1.0080           0
   11581 TIP3 1225 TIP3 H2   HT     0.417000        1.0080           0
   11582 TIP3 1226 TIP3 OH2  OT    -0.834000       15.9994           0
   11583 TIP3 1226 TIP3 H1   HT     0.417000        1.0080           0
   11584 TIP3 1226 TIP3 H2   HT     0.417000        1.0080           0
   11585 TIP3 1227 TIP3 OH2  OT    -0.834000       15.9994           0
   11586 TIP3 1227 TIP3 H1   HT     0.417000        1.0080           0
   11587 TIP3 1227 TIP3 H2   HT     0.417000        1.0080           0
   11588 TIP3 1228 TIP3 OH2  OT    -0.834000       15.9994           0
   11589 TIP3 1228 TIP3 H1   HT     0.417000        1.0080           0
   11590 TIP3 1228 TIP3 H2   HT     0.417000        1.0080           0
   11591 TIP3 1229 TIP3 OH2  OT    -0.834000       15.9994           0
   11592 TIP3 1229 TIP3 H1   HT     0.417000        1.0080           0
   11593 TIP3 1229 TIP3 H2   HT     0.417000        1.0080           0
   11594 TIP3 1230 TIP3 OH2  OT    -0.834000       15.9994           0
   11595 TIP3 1230 TIP3 H1   HT     0.417000        1.0080           0
   11596 TIP3 1230 TIP3 H2   HT     0.417000        1.0080           0
   11597 TIP3 1231 TIP3 OH2  OT    -0.834000       15.9994           0
   11598 TIP3 1231 TIP3 H1   HT     0.417000        1.0080           0
   11599 TIP3 1231 TIP3 H2   HT     0.417000        1.0080           0
   11600 TIP3 1232 TIP3 OH2  OT    -0.834000       15.9994           0
   11601 TIP3 1232 TIP3 H1   HT     0.417000        1.0080           0
   11602 TIP3 1232 TIP3 H2   HT     0.417000        1.0080           0
   11603 TIP3 1233 TIP3 OH2  OT    -0.834000       15.9994           0
   11604 TIP3 1233 TIP3 H1   HT     0.417000        1.0080           0
   11605 TIP3 1233 TIP3 H2   HT     0.417000        1.0080           0
   11606 TIP3 1234 TIP3 OH2  OT    -0.834000       15.9994           0
   11607 TIP3 1234 TIP3 H1   HT     0.417000        1.0080           0
   11608 TIP3 1234 TIP3 H2   HT     0.417000        1.0080           0
   11609 TIP3 1235 TIP3 OH2  OT    -0.834000       15.9994           0
   11610 TIP3 1235 TIP3 H1   HT     0.417000        1.0080           0
   11611 TIP3 1235 TIP3 H2   HT     0.417000        1.0080           0
   11612 TIP3 1236 TIP3 OH2  OT    -0.834000       15.9994           0
   11613 TIP3 1236 TIP3 H1   HT     0.417000        1.0080           0
   11614 TIP3 1236 TIP3 H2   HT     0.417000        1.0080           0
   11615 TIP3 1237 TIP3 OH2  OT    -0.834000       15.9994           0
   11616 TIP3 1237 TIP3 H1   HT     0.417000        1.0080           0
   11617 TIP3 1237 TIP3 H2   HT     0.417000        1.0080           0
   11618 TIP3 1238 TIP3 OH2  OT    -0.834000       15.9994           0
   11619 TIP3 1238 TIP3 H1   HT     0.417000        1.0080           0
   11620 TIP3 1238 TIP3 H2   HT     0.417000        1.0080           0
   11621 TIP3 1239 TIP3 OH2  OT    -0.834000       15.9994           0
   11622 TIP3 1239 TIP3 H1   HT     0.417000        1.0080           0
   11623 TIP3 1239 TIP3 H2   HT     0.417000        1.0080           0
   11624 TIP3 1240 TIP3 OH2  OT    -0.834000       15.9994           0
   11625 TIP3 1240 TIP3 H1   HT     0.417000        1.0080           0
   11626 TIP3 1240 TIP3 H2   HT     0.417000        1.0080           0
   11627 TIP3 1241 TIP3 OH2  OT    -0.834000       15.9994           0
   11628 TIP3 1241 TIP3 H1   HT     0.417000        1.0080           0
   11629 TIP3 1241 TIP3 H2   HT     0.417000        1.0080           0
   11630 TIP3 1242 TIP3 OH2  OT    -0.834000       15.9994           0
   11631 TIP3 1242 TIP3 H1   HT     0.417000        1.0080           0
   11632 TIP3 1242 TIP3 H2   HT     0.417000        1.0080           0
   11633 TIP3 1243 TIP3 OH2  OT    -0.834000       15.9994           0
   11634 TIP3 1243 TIP3 H1   HT     0.417000        1.0080           0
   11635 TIP3 1243 TIP3 H2   HT     0.417000        1.0080           0
   11636 TIP3 1244 TIP3 OH2  OT    -0.834000       15.9994           0
   11637 TIP3 1244 TIP3 H1   HT     0.417000        1.0080           0
   11638 TIP3 1244 TIP3 H2   HT     0.417000        1.0080           0
   11639 TIP3 1245 TIP3 OH2  OT    -0.834000       15.9994           0
   11640 TIP3 1245 TIP3 H1   HT     0.417000        1.0080           0
   11641 TIP3 1245 TIP3 H2   HT     0.417000        1.0080           0
   11642 TIP3 1246 TIP3 OH2  OT    -0.834000       15.9994           0
   11643 TIP3 1246 TIP3 H1   HT     0.417000        1.0080           0
   11644 TIP3 1246 TIP3 H2   HT     0.417000        1.0080           0
   11645 TIP3 1247 TIP3 OH2  OT    -0.834000       15.9994           0
   11646 TIP3 1247 TIP3 H1   HT     0.417000        1.0080           0
   11647 TIP3 1247 TIP3 H2   HT     0.417000        1.0080           0
   11648 TIP3 1248 TIP3 OH2  OT    -0.834000       15.9994           0
   11649 TIP3 1248 TIP3 H1   HT     0.417000        1.0080           0
   11650 TIP3 1248 TIP3 H2   HT     0.417000        1.0080           0
   11651 TIP3 1249 TIP3 OH2  OT    -0.834000       15.9994           0
   11652 TIP3 1249 TIP3 H1   HT     0.417000        1.0080           0
   11653 TIP3 1249 TIP3 H2   HT     0.417000        1.0080           0
   11654 TIP3 1250 TIP3 OH2  OT    -0.834000       15.9994           0
   11655 TIP3 1250 TIP3 H1   HT     0.417000        1.0080           0
   11656 TIP3 1250 TIP3 H2   HT     0.417000        1.0080           0
   11657 TIP3 1251 TIP3 OH2  OT    -0.834000       15.9994           0
   11658 TIP3 1251 TIP3 H1   HT     0.417000        1.0080           0
   11659 TIP3 1251 TIP3 H2   HT     0.417000        1.0080           0
   11660 TIP3 1252 TIP3 OH2  OT    -0.834000       15.9994           0
   11661 TIP3 1252 TIP3 H1   HT     0.417000        1.0080           0
   11662 TIP3 1252 TIP3 H2   HT     0.417000        1.0080           0
   11663 TIP3 1253 TIP3 OH2  OT    -0.834000       15.9994           0
   11664 TIP3 1253 TIP3 H1   HT     0.417000        1.0080           0
   11665 TIP3 1253 TIP3 H2   HT     0.417000        1.0080           0
   11666 TIP3 1254 TIP3 OH2  OT    -0.834000       15.9994           0
   11667 TIP3 1254 TIP3 H1   HT     0.417000        1.0080           0
   11668 TIP3 1254 TIP3 H2   HT     0.417000        1.0080           0
   11669 TIP3 1255 TIP3 OH2  OT    -0.834000       15.9994           0
   11670 TIP3 1255 TIP3 H1   HT     0.417000        1.0080           0
   11671 TIP3 1255 TIP3 H2   HT     0.417000        1.0080           0
   11672 TIP3 1256 TIP3 OH2  OT    -0.834000       15.9994           0
   11673 TIP3 1256 TIP3 H1   HT     0.417000        1.0080           0
   11674 TIP3 1256 TIP3 H2   HT     0.417000        1.0080           0
   11675 TIP3 1257 TIP3 OH2  OT    -0.834000       15.9994           0
   11676 TIP3 1257 TIP3 H1   HT     0.417000        1.0080           0
   11677 TIP3 1257 TIP3 H2   HT     0.417000        1.0080           0
   11678 TIP3 1258 TIP3 OH2  OT    -0.834000       15.9994           0
   11679 TIP3 1258 TIP3 H1   HT     0.417000        1.0080           0
   11680 TIP3 1258 TIP3 H2   HT     0.417000        1.0080           0
   11681 TIP3 1259 TIP3 OH2  OT    -0.834000       15.9994           0
   11682 TIP3 1259 TIP3 H1   HT     0.417000        1.0080           0
   11683 TIP3 1259 TIP3 H2   HT     0.417000        1.0080           0
   11684 TIP3 1260 TIP3 OH2  OT    -0.834000       15.9994           0
   11685 TIP3 1260 TIP3 H1   HT     0.417000        1.0080           0
   11686 TIP3 1260 TIP3 H2   HT     0.417000        1.0080           0
   11687 TIP3 1261 TIP3 OH2  OT    -0.834000       15.9994           0
   11688 TIP3 1261 TIP3 H1   HT     0.417000        1.0080           0
   11689 TIP3 1261 TIP3 H2   HT     0.417000        1.0080           0
   11690 TIP3 1262 TIP3 OH2  OT    -0.834000       15.9994           0
   11691 TIP3 1262 TIP3 H1   HT     0.417000        1.0080           0
   11692 TIP3 1262 TIP3 H2   HT     0.417000        1.0080           0
   11693 TIP3 1263 TIP3 OH2  OT    -0.834000       15.9994           0
   11694 TIP3 1263 TIP3 H1   HT     0.417000        1.0080           0
   11695 TIP3 1263 TIP3 H2   HT     0.417000        1.0080           0
   11696 TIP3 1264 TIP3 OH2  OT    -0.834000       15.9994           0
   11697 TIP3 1264 TIP3 H1   HT     0.417000        1.0080           0
   11698 TIP3 1264 TIP3 H2   HT     0.417000        1.0080           0
   11699 TIP3 1265 TIP3 OH2  OT    -0.834000       15.9994           0
   11700 TIP3 1265 TIP3 H1   HT     0.417000        1.0080           0
   11701 TIP3 1265 TIP3 H2   HT     0.417000        1.0080           0
   11702 TIP3 1266 TIP3 OH2  OT    -0.834000       15.9994           0
   11703 TIP3 1266 TIP3 H1   HT     0.417000        1.0080           0
   11704 TIP3 1266 TIP3 H2   HT     0.417000        1.0080           0
   11705 TIP3 1267 TIP3 OH2  OT    -0.834000       15.9994           0
   11706 TIP3 1267 TIP3 H1   HT     0.417000        1.0080           0
   11707 TIP3 1267 TIP3 H2   HT     0.417000        1.0080           0
   11708 TIP3 1268 TIP3 OH2  OT    -0.834000       15.9994           0
   11709 TIP3 1268 TIP3 H1   HT     0.417000        1.0080           0
   11710 TIP3 1268 TIP3 H2   HT     0.417000        1.0080           0
   11711 TIP3 1269 TIP3 OH2  OT    -0.834000       15.9994           0
   11712 TIP3 1269 TIP3 H1   HT     0.417000        1.0080           0
   11713 TIP3 1269 TIP3 H2   HT     0.417000        1.0080           0
   11714 TIP3 1270 TIP3 OH2  OT    -0.834000       15.9994           0
   11715 TIP3 1270 TIP3 H1   HT     0.417000        1.0080           0
   11716 TIP3 1270 TIP3 H2   HT     0.417000        1.0080           0
   11717 TIP3 1271 TIP3 OH2  OT    -0.834000       15.9994           0
   11718 TIP3 1271 TIP3 H1   HT     0.417000        1.0080           0
   11719 TIP3 1271 TIP3 H2   HT     0.417000        1.0080           0
   11720 TIP3 1272 TIP3 OH2  OT    -0.834000       15.9994           0
   11721 TIP3 1272 TIP3 H1   HT     0.417000        1.0080           0
   11722 TIP3 1272 TIP3 H2   HT     0.417000        1.0080           0
   11723 TIP3 1273 TIP3 OH2  OT    -0.834000       15.9994           0
   11724 TIP3 1273 TIP3 H1   HT     0.417000        1.0080           0
   11725 TIP3 1273 TIP3 H2   HT     0.417000        1.0080           0
   11726 TIP3 1274 TIP3 OH2  OT    -0.834000       15.9994           0
   11727 TIP3 1274 TIP3 H1   HT     0.417000        1.0080           0
   11728 TIP3 1274 TIP3 H2   HT     0.417000        1.0080           0
   11729 TIP3 1275 TIP3 OH2  OT    -0.834000       15.9994           0
   11730 TIP3 1275 TIP3 H1   HT     0.417000        1.0080           0
   11731 TIP3 1275 TIP3 H2   HT     0.417000        1.0080           0
   11732 TIP3 1276 TIP3 OH2  OT    -0.834000       15.9994           0
   11733 TIP3 1276 TIP3 H1   HT     0.417000        1.0080           0
   11734 TIP3 1276 TIP3 H2   HT     0.417000        1.0080           0
   11735 TIP3 1277 TIP3 OH2  OT    -0.834000       15.9994           0
   11736 TIP3 1277 TIP3 H1   HT     0.417000        1.0080           0
   11737 TIP3 1277 TIP3 H2   HT     0.417000        1.0080           0
   11738 TIP3 1278 TIP3 OH2  OT    -0.834000       15.9994           0
   11739 TIP3 1278 TIP3 H1   HT     0.417000        1.0080           0
   11740 TIP3 1278 TIP3 H2   HT     0.417000        1.0080           0
   11741 TIP3 1279 TIP3 OH2  OT    -0.834000       15.9994           0
   11742 TIP3 1279 TIP3 H1   HT     0.417000        1.0080           0
   11743 TIP3 1279 TIP3 H2   HT     0.417000        1.0080           0
   11744 TIP3 1280 TIP3 OH2  OT    -0.834000       15.9994           0
   11745 TIP3 1280 TIP3 H1   HT     0.417000        1.0080           0
   11746 TIP3 1280 TIP3 H2   HT     0.417000        1.0080           0
   11747 TIP3 1281 TIP3 OH2  OT    -0.834000       15.9994           0
   11748 TIP3 1281 TIP3 H1   HT     0.417000        1.0080           0
   11749 TIP3 1281 TIP3 H2   HT     0.417000        1.0080           0
   11750 TIP3 1282 TIP3 OH2  OT    -0.834000       15.9994           0
   11751 TIP3 1282 TIP3 H1   HT     0.417000        1.0080           0
   11752 TIP3 1282 TIP3 H2   HT     0.417000        1.0080           0
   11753 TIP3 1283 TIP3 OH2  OT    -0.834000       15.9994           0
   11754 TIP3 1283 TIP3 H1   HT     0.417000        1.0080           0
   11755 TIP3 1283 TIP3 H2   HT     0.417000        1.0080           0
   11756 TIP3 1284 TIP3 OH2  OT    -0.834000       15.9994           0
   11757 TIP3 1284 TIP3 H1   HT     0.417000        1.0080           0
   11758 TIP3 1284 TIP3 H2   HT     0.417000        1.0080           0
   11759 TIP3 1285 TIP3 OH2  OT    -0.834000       15.9994           0
   11760 TIP3 1285 TIP3 H1   HT     0.417000        1.0080           0
   11761 TIP3 1285 TIP3 H2   HT     0.417000        1.0080           0
   11762 TIP3 1286 TIP3 OH2  OT    -0.834000       15.9994           0
   11763 TIP3 1286 TIP3 H1   HT     0.417000        1.0080           0
   11764 TIP3 1286 TIP3 H2   HT     0.417000        1.0080           0
   11765 TIP3 1287 TIP3 OH2  OT    -0.834000       15.9994           0
   11766 TIP3 1287 TIP3 H1   HT     0.417000        1.0080           0
   11767 TIP3 1287 TIP3 H2   HT     0.417000        1.0080           0
   11768 TIP3 1288 TIP3 OH2  OT    -0.834000       15.9994           0
   11769 TIP3 1288 TIP3 H1   HT     0.417000        1.0080           0
   11770 TIP3 1288 TIP3 H2   HT     0.417000        1.0080           0
   11771 TIP3 1289 TIP3 OH2  OT    -0.834000       15.9994           0
   11772 TIP3 1289 TIP3 H1   HT     0.417000        1.0080           0
   11773 TIP3 1289 TIP3 H2   HT     0.417000        1.0080           0
   11774 TIP3 1290 TIP3 OH2  OT    -0.834000       15.9994           0
   11775 TIP3 1290 TIP3 H1   HT     0.417000        1.0080           0
   11776 TIP3 1290 TIP3 H2   HT     0.417000        1.0080           0
   11777 TIP3 1291 TIP3 OH2  OT    -0.834000       15.9994           0
   11778 TIP3 1291 TIP3 H1   HT     0.417000        1.0080           0
   11779 TIP3 1291 TIP3 H2   HT     0.417000        1.0080           0
   11780 TIP3 1292 TIP3 OH2  OT    -0.834000       15.9994           0
   11781 TIP3 1292 TIP3 H1   HT     0.417000        1.0080           0
   11782 TIP3 1292 TIP3 H2   HT     0.417000        1.0080           0
   11783 TIP3 1293 TIP3 OH2  OT    -0.834000       15.9994           0
   11784 TIP3 1293 TIP3 H1   HT     0.417000        1.0080           0
   11785 TIP3 1293 TIP3 H2   HT     0.417000        1.0080           0
   11786 TIP3 1294 TIP3 OH2  OT    -0.834000       15.9994           0
   11787 TIP3 1294 TIP3 H1   HT     0.417000        1.0080           0
   11788 TIP3 1294 TIP3 H2   HT     0.417000        1.0080           0
   11789 TIP3 1295 TIP3 OH2  OT    -0.834000       15.9994           0
   11790 TIP3 1295 TIP3 H1   HT     0.417000        1.0080           0
   11791 TIP3 1295 TIP3 H2   HT     0.417000        1.0080           0
   11792 TIP3 1296 TIP3 OH2  OT    -0.834000       15.9994           0
   11793 TIP3 1296 TIP3 H1   HT     0.417000        1.0080           0
   11794 TIP3 1296 TIP3 H2   HT     0.417000        1.0080           0
   11795 TIP3 1297 TIP3 OH2  OT    -0.834000       15.9994           0
   11796 TIP3 1297 TIP3 H1   HT     0.417000        1.0080           0
   11797 TIP3 1297 TIP3 H2   HT     0.417000        1.0080           0
   11798 TIP3 1298 TIP3 OH2  OT    -0.834000       15.9994           0
   11799 TIP3 1298 TIP3 H1   HT     0.417000        1.0080           0
   11800 TIP3 1298 TIP3 H2   HT     0.417000        1.0080           0
   11801 TIP3 1299 TIP3 OH2  OT    -0.834000       15.9994           0
   11802 TIP3 1299 TIP3 H1   HT     0.417000        1.0080           0
   11803 TIP3 1299 TIP3 H2   HT     0.417000        1.0080           0
   11804 TIP3 1300 TIP3 OH2  OT    -0.834000       15.9994           0
   11805 TIP3 1300 TIP3 H1   HT     0.417000        1.0080           0
   11806 TIP3 1300 TIP3 H2   HT     0.417000        1.0080           0
   11807 TIP3 1301 TIP3 OH2  OT    -0.834000       15.9994           0
   11808 TIP3 1301 TIP3 H1   HT     0.417000        1.0080           0
   11809 TIP3 1301 TIP3 H2   HT     0.417000        1.0080           0
   11810 TIP3 1302 TIP3 OH2  OT    -0.834000       15.9994           0
   11811 TIP3 1302 TIP3 H1   HT     0.417000        1.0080           0
   11812 TIP3 1302 TIP3 H2   HT     0.417000        1.0080           0
   11813 TIP3 1303 TIP3 OH2  OT    -0.834000       15.9994           0
   11814 TIP3 1303 TIP3 H1   HT     0.417000        1.0080           0
   11815 TIP3 1303 TIP3 H2   HT     0.417000        1.0080           0
   11816 TIP3 1304 TIP3 OH2  OT    -0.834000       15.9994           0
   11817 TIP3 1304 TIP3 H1   HT     0.417000        1.0080           0
   11818 TIP3 1304 TIP3 H2   HT     0.417000        1.0080           0
   11819 TIP3 1305 TIP3 OH2  OT    -0.834000       15.9994           0
   11820 TIP3 1305 TIP3 H1   HT     0.417000        1.0080           0
   11821 TIP3 1305 TIP3 H2   HT     0.417000        1.0080           0
   11822 TIP3 1306 TIP3 OH2  OT    -0.834000       15.9994           0
   11823 TIP3 1306 TIP3 H1   HT     0.417000        1.0080           0
   11824 TIP3 1306 TIP3 H2   HT     0.417000        1.0080           0
   11825 TIP3 1307 TIP3 OH2  OT    -0.834000       15.9994           0
   11826 TIP3 1307 TIP3 H1   HT     0.417000        1.0080           0
   11827 TIP3 1307 TIP3 H2   HT     0.417000        1.0080           0
   11828 TIP3 1308 TIP3 OH2  OT    -0.834000       15.9994           0
   11829 TIP3 1308 TIP3 H1   HT     0.417000        1.0080           0
   11830 TIP3 1308 TIP3 H2   HT     0.417000        1.0080           0
   11831 TIP3 1309 TIP3 OH2  OT    -0.834000       15.9994           0
   11832 TIP3 1309 TIP3 H1   HT     0.417000        1.0080           0
   11833 TIP3 1309 TIP3 H2   HT     0.417000        1.0080           0
   11834 TIP3 1310 TIP3 OH2  OT    -0.834000       15.9994           0
   11835 TIP3 1310 TIP3 H1   HT     0.417000        1.0080           0
   11836 TIP3 1310 TIP3 H2   HT     0.417000        1.0080           0
   11837 TIP3 1311 TIP3 OH2  OT    -0.834000       15.9994           0
   11838 TIP3 1311 TIP3 H1   HT     0.417000        1.0080           0
   11839 TIP3 1311 TIP3 H2   HT     0.417000        1.0080           0
   11840 TIP3 1312 TIP3 OH2  OT    -0.834000       15.9994           0
   11841 TIP3 1312 TIP3 H1   HT     0.417000        1.0080           0
   11842 TIP3 1312 TIP3 H2   HT     0.417000        1.0080           0
   11843 TIP3 1313 TIP3 OH2  OT    -0.834000       15.9994           0
   11844 TIP3 1313 TIP3 H1   HT     0.417000        1.0080           0
   11845 TIP3 1313 TIP3 H2   HT     0.417000        1.0080           0
   11846 TIP3 1314 TIP3 OH2  OT    -0.834000       15.9994           0
   11847 TIP3 1314 TIP3 H1   HT     0.417000        1.0080           0
   11848 TIP3 1314 TIP3 H2   HT     0.417000        1.0080           0
   11849 TIP3 1315 TIP3 OH2  OT    -0.834000       15.9994           0
   11850 TIP3 1315 TIP3 H1   HT     0.417000        1.0080           0
   11851 TIP3 1315 TIP3 H2   HT     0.417000        1.0080           0
   11852 TIP3 1316 TIP3 OH2  OT    -0.834000       15.9994           0
   11853 TIP3 1316 TIP3 H1   HT     0.417000        1.0080           0
   11854 TIP3 1316 TIP3 H2   HT     0.417000        1.0080           0
   11855 TIP3 1317 TIP3 OH2  OT    -0.834000       15.9994           0
   11856 TIP3 1317 TIP3 H1   HT     0.417000        1.0080           0
   11857 TIP3 1317 TIP3 H2   HT     0.417000        1.0080           0
   11858 TIP3 1318 TIP3 OH2  OT    -0.834000       15.9994           0
   11859 TIP3 1318 TIP3 H1   HT     0.417000        1.0080           0
   11860 TIP3 1318 TIP3 H2   HT     0.417000        1.0080           0
   11861 TIP3 1319 TIP3 OH2  OT    -0.834000       15.9994           0
   11862 TIP3 1319 TIP3 H1   HT     0.417000        1.0080           0
   11863 TIP3 1319 TIP3 H2   HT     0.417000        1.0080           0
   11864 TIP3 1320 TIP3 OH2  OT    -0.834000       15.9994           0
   11865 TIP3 1320 TIP3 H1   HT     0.417000        1.0080           0
   11866 TIP3 1320 TIP3 H2   HT     0.417000        1.0080           0
   11867 TIP3 1321 TIP3 OH2  OT    -0.834000       15.9994           0
   11868 TIP3 1321 TIP3 H1   HT     0.417000        1.0080           0
   11869 TIP3 1321 TIP3 H2   HT     0.417000        1.0080           0
   11870 TIP3 1322 TIP3 OH2  OT    -0.834000       15.9994           0
   11871 TIP3 1322 TIP3 H1   HT     0.417000        1.0080           0
   11872 TIP3 1322 TIP3 H2   HT     0.417000        1.0080           0
   11873 TIP3 1323 TIP3 OH2  OT    -0.834000       15.9994           0
   11874 TIP3 1323 TIP3 H1   HT     0.417000        1.0080           0
   11875 TIP3 1323 TIP3 H2   HT     0.417000        1.0080           0
   11876 TIP3 1324 TIP3 OH2  OT    -0.834000       15.9994           0
   11877 TIP3 1324 TIP3 H1   HT     0.417000        1.0080           0
   11878 TIP3 1324 TIP3 H2   HT     0.417000        1.0080           0
   11879 TIP3 1325 TIP3 OH2  OT    -0.834000       15.9994           0
   11880 TIP3 1325 TIP3 H1   HT     0.417000        1.0080           0
   11881 TIP3 1325 TIP3 H2   HT     0.417000        1.0080           0
   11882 TIP3 1326 TIP3 OH2  OT    -0.834000       15.9994           0
   11883 TIP3 1326 TIP3 H1   HT     0.417000        1.0080           0
   11884 TIP3 1326 TIP3 H2   HT     0.417000        1.0080           0
   11885 TIP3 1327 TIP3 OH2  OT    -0.834000       15.9994           0
   11886 TIP3 1327 TIP3 H1   HT     0.417000        1.0080           0
   11887 TIP3 1327 TIP3 H2   HT     0.417000        1.0080           0
   11888 TIP3 1328 TIP3 OH2  OT    -0.834000       15.9994           0
   11889 TIP3 1328 TIP3 H1   HT     0.417000        1.0080           0
   11890 TIP3 1328 TIP3 H2   HT     0.417000        1.0080           0
   11891 TIP3 1329 TIP3 OH2  OT    -0.834000       15.9994           0
   11892 TIP3 1329 TIP3 H1   HT     0.417000        1.0080           0
   11893 TIP3 1329 TIP3 H2   HT     0.417000        1.0080           0
   11894 TIP3 1330 TIP3 OH2  OT    -0.834000       15.9994           0
   11895 TIP3 1330 TIP3 H1   HT     0.417000        1.0080           0
   11896 TIP3 1330 TIP3 H2   HT     0.417000        1.0080           0
   11897 TIP3 1331 TIP3 OH2  OT    -0.834000       15.9994           0
   11898 TIP3 1331 TIP3 H1   HT     0.417000        1.0080           0
   11899 TIP3 1331 TIP3 H2   HT     0.417000        1.0080           0
   11900 TIP3 1332 TIP3 OH2  OT    -0.834000       15.9994           0
   11901 TIP3 1332 TIP3 H1   HT     0.417000        1.0080           0
   11902 TIP3 1332 TIP3 H2   HT     0.417000        1.0080           0
   11903 TIP3 1333 TIP3 OH2  OT    -0.834000       15.9994           0
   11904 TIP3 1333 TIP3 H1   HT     0.417000        1.0080           0
   11905 TIP3 1333 TIP3 H2   HT     0.417000        1.0080           0
   11906 TIP3 1334 TIP3 OH2  OT    -0.834000       15.9994           0
   11907 TIP3 1334 TIP3 H1   HT     0.417000        1.0080           0
   11908 TIP3 1334 TIP3 H2   HT     0.417000        1.0080           0
   11909 TIP3 1335 TIP3 OH2  OT    -0.834000       15.9994           0
   11910 TIP3 1335 TIP3 H1   HT     0.417000        1.0080           0
   11911 TIP3 1335 TIP3 H2   HT     0.417000        1.0080           0
   11912 TIP3 1336 TIP3 OH2  OT    -0.834000       15.9994           0
   11913 TIP3 1336 TIP3 H1   HT     0.417000        1.0080           0
   11914 TIP3 1336 TIP3 H2   HT     0.417000        1.0080           0
   11915 TIP3 1337 TIP3 OH2  OT    -0.834000       15.9994           0
   11916 TIP3 1337 TIP3 H1   HT     0.417000        1.0080           0
   11917 TIP3 1337 TIP3 H2   HT     0.417000        1.0080           0
   11918 TIP3 1338 TIP3 OH2  OT    -0.834000       15.9994           0
   11919 TIP3 1338 TIP3 H1   HT     0.417000        1.0080           0
   11920 TIP3 1338 TIP3 H2   HT     0.417000        1.0080           0
   11921 TIP3 1339 TIP3 OH2  OT    -0.834000       15.9994           0
   11922 TIP3 1339 TIP3 H1   HT     0.417000        1.0080           0
   11923 TIP3 1339 TIP3 H2   HT     0.417000        1.0080           0
   11924 TIP3 1340 TIP3 OH2  OT    -0.834000       15.9994           0
   11925 TIP3 1340 TIP3 H1   HT     0.417000        1.0080           0
   11926 TIP3 1340 TIP3 H2   HT     0.417000        1.0080           0
   11927 TIP3 1341 TIP3 OH2  OT    -0.834000       15.9994           0
   11928 TIP3 1341 TIP3 H1   HT     0.417000        1.0080           0
   11929 TIP3 1341 TIP3 H2   HT     0.417000        1.0080           0
   11930 TIP3 1342 TIP3 OH2  OT    -0.834000       15.9994           0
   11931 TIP3 1342 TIP3 H1   HT     0.417000        1.0080           0
   11932 TIP3 1342 TIP3 H2   HT     0.417000        1.0080           0
   11933 TIP3 1343 TIP3 OH2  OT    -0.834000       15.9994           0
   11934 TIP3 1343 TIP3 H1   HT     0.417000        1.0080           0
   11935 TIP3 1343 TIP3 H2   HT     0.417000        1.0080           0
   11936 TIP3 1344 TIP3 OH2  OT    -0.834000       15.9994           0
   11937 TIP3 1344 TIP3 H1   HT     0.417000        1.0080           0
   11938 TIP3 1344 TIP3 H2   HT     0.417000        1.0080           0
   11939 TIP3 1345 TIP3 OH2  OT    -0.834000       15.9994           0
   11940 TIP3 1345 TIP3 H1   HT     0.417000        1.0080           0
   11941 TIP3 1345 TIP3 H2   HT     0.417000        1.0080           0
   11942 TIP3 1346 TIP3 OH2  OT    -0.834000       15.9994           0
   11943 TIP3 1346 TIP3 H1   HT     0.417000        1.0080           0
   11944 TIP3 1346 TIP3 H2   HT     0.417000        1.0080           0
   11945 TIP3 1347 TIP3 OH2  OT    -0.834000       15.9994           0
   11946 TIP3 1347 TIP3 H1   HT     0.417000        1.0080           0
   11947 TIP3 1347 TIP3 H2   HT     0.417000        1.0080           0
   11948 TIP3 1348 TIP3 OH2  OT    -0.834000       15.9994           0
   11949 TIP3 1348 TIP3 H1   HT     0.417000        1.0080           0
   11950 TIP3 1348 TIP3 H2   HT     0.417000        1.0080           0
   11951 TIP3 1349 TIP3 OH2  OT    -0.834000       15.9994           0
   11952 TIP3 1349 TIP3 H1   HT     0.417000        1.0080           0
   11953 TIP3 1349 TIP3 H2   HT     0.417000        1.0080           0
   11954 TIP3 1350 TIP3 OH2  OT    -0.834000       15.9994           0
   11955 TIP3 1350 TIP3 H1   HT     0.417000        1.0080           0
   11956 TIP3 1350 TIP3 H2   HT     0.417000        1.0080           0
   11957 TIP3 1351 TIP3 OH2  OT    -0.834000       15.9994           0
   11958 TIP3 1351 TIP3 H1   HT     0.417000        1.0080           0
   11959 TIP3 1351 TIP3 H2   HT     0.417000        1.0080           0
   11960 TIP3 1352 TIP3 OH2  OT    -0.834000       15.9994           0
   11961 TIP3 1352 TIP3 H1   HT     0.417000        1.0080           0
   11962 TIP3 1352 TIP3 H2   HT     0.417000        1.0080           0
   11963 TIP3 1353 TIP3 OH2  OT    -0.834000       15.9994           0
   11964 TIP3 1353 TIP3 H1   HT     0.417000        1.0080           0
   11965 TIP3 1353 TIP3 H2   HT     0.417000        1.0080           0
   11966 TIP3 1354 TIP3 OH2  OT    -0.834000       15.9994           0
   11967 TIP3 1354 TIP3 H1   HT     0.417000        1.0080           0
   11968 TIP3 1354 TIP3 H2   HT     0.417000        1.0080           0
   11969 TIP3 1355 TIP3 OH2  OT    -0.834000       15.9994           0
   11970 TIP3 1355 TIP3 H1   HT     0.417000        1.0080           0
   11971 TIP3 1355 TIP3 H2   HT     0.417000        1.0080           0
   11972 TIP3 1356 TIP3 OH2  OT    -0.834000       15.9994           0
   11973 TIP3 1356 TIP3 H1   HT     0.417000        1.0080           0
   11974 TIP3 1356 TIP3 H2   HT     0.417000        1.0080           0
   11975 TIP3 1357 TIP3 OH2  OT    -0.834000       15.9994           0
   11976 TIP3 1357 TIP3 H1   HT     0.417000        1.0080           0
   11977 TIP3 1357 TIP3 H2   HT     0.417000        1.0080           0
   11978 TIP3 1358 TIP3 OH2  OT    -0.834000       15.9994           0
   11979 TIP3 1358 TIP3 H1   HT     0.417000        1.0080           0
   11980 TIP3 1358 TIP3 H2   HT     0.417000        1.0080           0
   11981 TIP3 1359 TIP3 OH2  OT    -0.834000       15.9994           0
   11982 TIP3 1359 TIP3 H1   HT     0.417000        1.0080           0
   11983 TIP3 1359 TIP3 H2   HT     0.417000        1.0080           0
   11984 TIP3 1360 TIP3 OH2  OT    -0.834000       15.9994           0
   11985 TIP3 1360 TIP3 H1   HT     0.417000        1.0080           0
   11986 TIP3 1360 TIP3 H2   HT     0.417000        1.0080           0
   11987 TIP3 1361 TIP3 OH2  OT    -0.834000       15.9994           0
   11988 TIP3 1361 TIP3 H1   HT     0.417000        1.0080           0
   11989 TIP3 1361 TIP3 H2   HT     0.417000        1.0080           0
   11990 TIP3 1362 TIP3 OH2  OT    -0.834000       15.9994           0
   11991 TIP3 1362 TIP3 H1   HT     0.417000        1.0080           0
   11992 TIP3 1362 TIP3 H2   HT     0.417000        1.0080           0
   11993 TIP3 1363 TIP3 OH2  OT    -0.834000       15.9994           0
   11994 TIP3 1363 TIP3 H1   HT     0.417000        1.0080           0
   11995 TIP3 1363 TIP3 H2   HT     0.417000        1.0080           0
   11996 TIP3 1364 TIP3 OH2  OT    -0.834000       15.9994           0
   11997 TIP3 1364 TIP3 H1   HT     0.417000        1.0080           0
   11998 TIP3 1364 TIP3 H2   HT     0.417000        1.0080           0
   11999 TIP3 1365 TIP3 OH2  OT    -0.834000       15.9994           0
   12000 TIP3 1365 TIP3 H1   HT     0.417000        1.0080           0
   12001 TIP3 1365 TIP3 H2   HT     0.417000        1.0080           0
   12002 TIP3 1366 TIP3 OH2  OT    -0.834000       15.9994           0
   12003 TIP3 1366 TIP3 H1   HT     0.417000        1.0080           0
   12004 TIP3 1366 TIP3 H2   HT     0.417000        1.0080           0
   12005 TIP3 1367 TIP3 OH2  OT    -0.834000       15.9994           0
   12006 TIP3 1367 TIP3 H1   HT     0.417000        1.0080           0
   12007 TIP3 1367 TIP3 H2   HT     0.417000        1.0080           0
   12008 TIP3 1368 TIP3 OH2  OT    -0.834000       15.9994           0
   12009 TIP3 1368 TIP3 H1   HT     0.417000        1.0080           0
   12010 TIP3 1368 TIP3 H2   HT     0.417000        1.0080           0
   12011 TIP3 1369 TIP3 OH2  OT    -0.834000       15.9994           0
   12012 TIP3 1369 TIP3 H1   HT     0.417000        1.0080           0
   12013 TIP3 1369 TIP3 H2   HT     0.417000        1.0080           0
   12014 TIP3 1370 TIP3 OH2  OT    -0.834000       15.9994           0
   12015 TIP3 1370 TIP3 H1   HT     0.417000        1.0080           0
   12016 TIP3 1370 TIP3 H2   HT     0.417000        1.0080           0
   12017 TIP3 1371 TIP3 OH2  OT    -0.834000       15.9994           0
   12018 TIP3 1371 TIP3 H1   HT     0.417000        1.0080           0
   12019 TIP3 1371 TIP3 H2   HT     0.417000        1.0080           0
   12020 TIP3 1372 TIP3 OH2  OT    -0.834000       15.9994           0
   12021 TIP3 1372 TIP3 H1   HT     0.417000        1.0080           0
   12022 TIP3 1372 TIP3 H2   HT     0.417000        1.0080           0
   12023 TIP3 1373 TIP3 OH2  OT    -0.834000       15.9994           0
   12024 TIP3 1373 TIP3 H1   HT     0.417000        1.0080           0
   12025 TIP3 1373 TIP3 H2   HT     0.417000        1.0080           0
   12026 TIP3 1374 TIP3 OH2  OT    -0.834000       15.9994           0
   12027 TIP3 1374 TIP3 H1   HT     0.417000        1.0080           0
   12028 TIP3 1374 TIP3 H2   HT     0.417000        1.0080           0
   12029 TIP3 1375 TIP3 OH2  OT    -0.834000       15.9994           0
   12030 TIP3 1375 TIP3 H1   HT     0.417000        1.0080           0
   12031 TIP3 1375 TIP3 H2   HT     0.417000        1.0080           0
   12032 TIP3 1376 TIP3 OH2  OT    -0.834000       15.9994           0
   12033 TIP3 1376 TIP3 H1   HT     0.417000        1.0080           0
   12034 TIP3 1376 TIP3 H2   HT     0.417000        1.0080           0
   12035 TIP3 1377 TIP3 OH2  OT    -0.834000       15.9994           0
   12036 TIP3 1377 TIP3 H1   HT     0.417000        1.0080           0
   12037 TIP3 1377 TIP3 H2   HT     0.417000        1.0080           0
   12038 TIP3 1378 TIP3 OH2  OT    -0.834000       15.9994           0
   12039 TIP3 1378 TIP3 H1   HT     0.417000        1.0080           0
   12040 TIP3 1378 TIP3 H2   HT     0.417000        1.0080           0
   12041 TIP3 1379 TIP3 OH2  OT    -0.834000       15.9994           0
   12042 TIP3 1379 TIP3 H1   HT     0.417000        1.0080           0
   12043 TIP3 1379 TIP3 H2   HT     0.417000        1.0080           0
   12044 TIP3 1380 TIP3 OH2  OT    -0.834000       15.9994           0
   12045 TIP3 1380 TIP3 H1   HT     0.417000        1.0080           0
   12046 TIP3 1380 TIP3 H2   HT     0.417000        1.0080           0
   12047 TIP3 1381 TIP3 OH2  OT    -0.834000       15.9994           0
   12048 TIP3 1381 TIP3 H1   HT     0.417000        1.0080           0
   12049 TIP3 1381 TIP3 H2   HT     0.417000        1.0080           0
   12050 TIP3 1382 TIP3 OH2  OT    -0.834000       15.9994           0
   12051 TIP3 1382 TIP3 H1   HT     0.417000        1.0080           0
   12052 TIP3 1382 TIP3 H2   HT     0.417000        1.0080           0
   12053 TIP3 1383 TIP3 OH2  OT    -0.834000       15.9994           0
   12054 TIP3 1383 TIP3 H1   HT     0.417000        1.0080           0
   12055 TIP3 1383 TIP3 H2   HT     0.417000        1.0080           0
   12056 TIP3 1384 TIP3 OH2  OT    -0.834000       15.9994           0
   12057 TIP3 1384 TIP3 H1   HT     0.417000        1.0080           0
   12058 TIP3 1384 TIP3 H2   HT     0.417000        1.0080           0
   12059 TIP3 1385 TIP3 OH2  OT    -0.834000       15.9994           0
   12060 TIP3 1385 TIP3 H1   HT     0.417000        1.0080           0
   12061 TIP3 1385 TIP3 H2   HT     0.417000        1.0080           0
   12062 TIP3 1386 TIP3 OH2  OT    -0.834000       15.9994           0
   12063 TIP3 1386 TIP3 H1   HT     0.417000        1.0080           0
   12064 TIP3 1386 TIP3 H2   HT     0.417000        1.0080           0
   12065 TIP3 1387 TIP3 OH2  OT    -0.834000       15.9994           0
   12066 TIP3 1387 TIP3 H1   HT     0.417000        1.0080           0
   12067 TIP3 1387 TIP3 H2   HT     0.417000        1.0080           0
   12068 TIP3 1388 TIP3 OH2  OT    -0.834000       15.9994           0
   12069 TIP3 1388 TIP3 H1   HT     0.417000        1.0080           0
   12070 TIP3 1388 TIP3 H2   HT     0.417000        1.0080           0
   12071 TIP3 1389 TIP3 OH2  OT    -0.834000       15.9994           0
   12072 TIP3 1389 TIP3 H1   HT     0.417000        1.0080           0
   12073 TIP3 1389 TIP3 H2   HT     0.417000        1.0080           0
   12074 TIP3 1390 TIP3 OH2  OT    -0.834000       15.9994           0
   12075 TIP3 1390 TIP3 H1   HT     0.417000        1.0080           0
   12076 TIP3 1390 TIP3 H2   HT     0.417000        1.0080           0
   12077 TIP3 1391 TIP3 OH2  OT    -0.834000       15.9994           0
   12078 TIP3 1391 TIP3 H1   HT     0.417000        1.0080           0
   12079 TIP3 1391 TIP3 H2   HT     0.417000        1.0080           0
   12080 TIP3 1392 TIP3 OH2  OT    -0.834000       15.9994           0
   12081 TIP3 1392 TIP3 H1   HT     0.417000        1.0080           0
   12082 TIP3 1392 TIP3 H2   HT     0.417000        1.0080           0
   12083 TIP3 1393 TIP3 OH2  OT    -0.834000       15.9994           0
   12084 TIP3 1393 TIP3 H1   HT     0.417000        1.0080           0
   12085 TIP3 1393 TIP3 H2   HT     0.417000        1.0080           0
   12086 TIP3 1394 TIP3 OH2  OT    -0.834000       15.9994           0
   12087 TIP3 1394 TIP3 H1   HT     0.417000        1.0080           0
   12088 TIP3 1394 TIP3 H2   HT     0.417000        1.0080           0
   12089 TIP3 1395 TIP3 OH2  OT    -0.834000       15.9994           0
   12090 TIP3 1395 TIP3 H1   HT     0.417000        1.0080           0
   12091 TIP3 1395 TIP3 H2   HT     0.417000        1.0080           0
   12092 TIP3 1396 TIP3 OH2  OT    -0.834000       15.9994           0
   12093 TIP3 1396 TIP3 H1   HT     0.417000        1.0080           0
   12094 TIP3 1396 TIP3 H2   HT     0.417000        1.0080           0
   12095 TIP3 1397 TIP3 OH2  OT    -0.834000       15.9994           0
   12096 TIP3 1397 TIP3 H1   HT     0.417000        1.0080           0
   12097 TIP3 1397 TIP3 H2   HT     0.417000        1.0080           0
   12098 TIP3 1398 TIP3 OH2  OT    -0.834000       15.9994           0
   12099 TIP3 1398 TIP3 H1   HT     0.417000        1.0080           0
   12100 TIP3 1398 TIP3 H2   HT     0.417000        1.0080           0
   12101 TIP3 1399 TIP3 OH2  OT    -0.834000       15.9994           0
   12102 TIP3 1399 TIP3 H1   HT     0.417000        1.0080           0
   12103 TIP3 1399 TIP3 H2   HT     0.417000        1.0080           0
   12104 TIP3 1400 TIP3 OH2  OT    -0.834000       15.9994           0
   12105 TIP3 1400 TIP3 H1   HT     0.417000        1.0080           0
   12106 TIP3 1400 TIP3 H2   HT     0.417000        1.0080           0
   12107 TIP3 1401 TIP3 OH2  OT    -0.834000       15.9994           0
   12108 TIP3 1401 TIP3 H1   HT     0.417000        1.0080           0
   12109 TIP3 1401 TIP3 H2   HT     0.417000        1.0080           0
   12110 TIP3 1402 TIP3 OH2  OT    -0.834000       15.9994           0
   12111 TIP3 1402 TIP3 H1   HT     0.417000        1.0080           0
   12112 TIP3 1402 TIP3 H2   HT     0.417000        1.0080           0
   12113 TIP3 1403 TIP3 OH2  OT    -0.834000       15.9994           0
   12114 TIP3 1403 TIP3 H1   HT     0.417000        1.0080           0
   12115 TIP3 1403 TIP3 H2   HT     0.417000        1.0080           0
   12116 TIP3 1404 TIP3 OH2  OT    -0.834000       15.9994           0
   12117 TIP3 1404 TIP3 H1   HT     0.417000        1.0080           0
   12118 TIP3 1404 TIP3 H2   HT     0.417000        1.0080           0
   12119 TIP3 1405 TIP3 OH2  OT    -0.834000       15.9994           0
   12120 TIP3 1405 TIP3 H1   HT     0.417000        1.0080           0
   12121 TIP3 1405 TIP3 H2   HT     0.417000        1.0080           0
   12122 TIP3 1406 TIP3 OH2  OT    -0.834000       15.9994           0
   12123 TIP3 1406 TIP3 H1   HT     0.417000        1.0080           0
   12124 TIP3 1406 TIP3 H2   HT     0.417000        1.0080           0
   12125 TIP3 1407 TIP3 OH2  OT    -0.834000       15.9994           0
   12126 TIP3 1407 TIP3 H1   HT     0.417000        1.0080           0
   12127 TIP3 1407 TIP3 H2   HT     0.417000        1.0080           0
   12128 TIP3 1408 TIP3 OH2  OT    -0.834000       15.9994           0
   12129 TIP3 1408 TIP3 H1   HT     0.417000        1.0080           0
   12130 TIP3 1408 TIP3 H2   HT     0.417000        1.0080           0
   12131 TIP3 1409 TIP3 OH2  OT    -0.834000       15.9994           0
   12132 TIP3 1409 TIP3 H1   HT     0.417000        1.0080           0
   12133 TIP3 1409 TIP3 H2   HT     0.417000        1.0080           0
   12134 TIP3 1410 TIP3 OH2  OT    -0.834000       15.9994           0
   12135 TIP3 1410 TIP3 H1   HT     0.417000        1.0080           0
   12136 TIP3 1410 TIP3 H2   HT     0.417000        1.0080           0
   12137 TIP3 1411 TIP3 OH2  OT    -0.834000       15.9994           0
   12138 TIP3 1411 TIP3 H1   HT     0.417000        1.0080           0
   12139 TIP3 1411 TIP3 H2   HT     0.417000        1.0080           0
   12140 TIP3 1412 TIP3 OH2  OT    -0.834000       15.9994           0
   12141 TIP3 1412 TIP3 H1   HT     0.417000        1.0080           0
   12142 TIP3 1412 TIP3 H2   HT     0.417000        1.0080           0
   12143 TIP3 1413 TIP3 OH2  OT    -0.834000       15.9994           0
   12144 TIP3 1413 TIP3 H1   HT     0.417000        1.0080           0
   12145 TIP3 1413 TIP3 H2   HT     0.417000        1.0080           0
   12146 TIP3 1414 TIP3 OH2  OT    -0.834000       15.9994           0
   12147 TIP3 1414 TIP3 H1   HT     0.417000        1.0080           0
   12148 TIP3 1414 TIP3 H2   HT     0.417000        1.0080           0
   12149 TIP3 1415 TIP3 OH2  OT    -0.834000       15.9994           0
   12150 TIP3 1415 TIP3 H1   HT     0.417000        1.0080           0
   12151 TIP3 1415 TIP3 H2   HT     0.417000        1.0080           0
   12152 TIP3 1416 TIP3 OH2  OT    -0.834000       15.9994           0
   12153 TIP3 1416 TIP3 H1   HT     0.417000        1.0080           0
   12154 TIP3 1416 TIP3 H2   HT     0.417000        1.0080           0
   12155 TIP3 1417 TIP3 OH2  OT    -0.834000       15.9994           0
   12156 TIP3 1417 TIP3 H1   HT     0.417000        1.0080           0
   12157 TIP3 1417 TIP3 H2   HT     0.417000        1.0080           0
   12158 TIP3 1418 TIP3 OH2  OT    -0.834000       15.9994           0
   12159 TIP3 1418 TIP3 H1   HT     0.417000        1.0080           0
   12160 TIP3 1418 TIP3 H2   HT     0.417000        1.0080           0
   12161 TIP3 1419 TIP3 OH2  OT    -0.834000       15.9994           0
   12162 TIP3 1419 TIP3 H1   HT     0.417000        1.0080           0
   12163 TIP3 1419 TIP3 H2   HT     0.417000        1.0080           0
   12164 TIP3 1420 TIP3 OH2  OT    -0.834000       15.9994           0
   12165 TIP3 1420 TIP3 H1   HT     0.417000        1.0080           0
   12166 TIP3 1420 TIP3 H2   HT     0.417000        1.0080           0
   12167 TIP3 1421 TIP3 OH2  OT    -0.834000       15.9994           0
   12168 TIP3 1421 TIP3 H1   HT     0.417000        1.0080           0
   12169 TIP3 1421 TIP3 H2   HT     0.417000        1.0080           0
   12170 TIP3 1422 TIP3 OH2  OT    -0.834000       15.9994           0
   12171 TIP3 1422 TIP3 H1   HT     0.417000        1.0080           0
   12172 TIP3 1422 TIP3 H2   HT     0.417000        1.0080           0
   12173 TIP3 1423 TIP3 OH2  OT    -0.834000       15.9994           0
   12174 TIP3 1423 TIP3 H1   HT     0.417000        1.0080           0
   12175 TIP3 1423 TIP3 H2   HT     0.417000        1.0080           0
   12176 TIP3 1424 TIP3 OH2  OT    -0.834000       15.9994           0
   12177 TIP3 1424 TIP3 H1   HT     0.417000        1.0080           0
   12178 TIP3 1424 TIP3 H2   HT     0.417000        1.0080           0
   12179 TIP3 1425 TIP3 OH2  OT    -0.834000       15.9994           0
   12180 TIP3 1425 TIP3 H1   HT     0.417000        1.0080           0
   12181 TIP3 1425 TIP3 H2   HT     0.417000        1.0080           0
   12182 TIP3 1426 TIP3 OH2  OT    -0.834000       15.9994           0
   12183 TIP3 1426 TIP3 H1   HT     0.417000        1.0080           0
   12184 TIP3 1426 TIP3 H2   HT     0.417000        1.0080           0
   12185 TIP3 1427 TIP3 OH2  OT    -0.834000       15.9994           0
   12186 TIP3 1427 TIP3 H1   HT     0.417000        1.0080           0
   12187 TIP3 1427 TIP3 H2   HT     0.417000        1.0080           0
   12188 TIP3 1428 TIP3 OH2  OT    -0.834000       15.9994           0
   12189 TIP3 1428 TIP3 H1   HT     0.417000        1.0080           0
   12190 TIP3 1428 TIP3 H2   HT     0.417000        1.0080           0
   12191 TIP3 1429 TIP3 OH2  OT    -0.834000       15.9994           0
   12192 TIP3 1429 TIP3 H1   HT     0.417000        1.0080           0
   12193 TIP3 1429 TIP3 H2   HT     0.417000        1.0080           0
   12194 TIP3 1430 TIP3 OH2  OT    -0.834000       15.9994           0
   12195 TIP3 1430 TIP3 H1   HT     0.417000        1.0080           0
   12196 TIP3 1430 TIP3 H2   HT     0.417000        1.0080           0
   12197 TIP3 1431 TIP3 OH2  OT    -0.834000       15.9994           0
   12198 TIP3 1431 TIP3 H1   HT     0.417000        1.0080           0
   12199 TIP3 1431 TIP3 H2   HT     0.417000        1.0080           0
   12200 TIP3 1432 TIP3 OH2  OT    -0.834000       15.9994           0
   12201 TIP3 1432 TIP3 H1   HT     0.417000        1.0080           0
   12202 TIP3 1432 TIP3 H2   HT     0.417000        1.0080           0
   12203 TIP3 1433 TIP3 OH2  OT    -0.834000       15.9994           0
   12204 TIP3 1433 TIP3 H1   HT     0.417000        1.0080           0
   12205 TIP3 1433 TIP3 H2   HT     0.417000        1.0080           0
   12206 TIP3 1434 TIP3 OH2  OT    -0.834000       15.9994           0
   12207 TIP3 1434 TIP3 H1   HT     0.417000        1.0080           0
   12208 TIP3 1434 TIP3 H2   HT     0.417000        1.0080           0
   12209 TIP3 1435 TIP3 OH2  OT    -0.834000       15.9994           0
   12210 TIP3 1435 TIP3 H1   HT     0.417000        1.0080           0
   12211 TIP3 1435 TIP3 H2   HT     0.417000        1.0080           0
   12212 TIP3 1436 TIP3 OH2  OT    -0.834000       15.9994           0
   12213 TIP3 1436 TIP3 H1   HT     0.417000        1.0080           0
   12214 TIP3 1436 TIP3 H2   HT     0.417000        1.0080           0
   12215 TIP3 1437 TIP3 OH2  OT    -0.834000       15.9994           0
   12216 TIP3 1437 TIP3 H1   HT     0.417000        1.0080           0
   12217 TIP3 1437 TIP3 H2   HT     0.417000        1.0080           0
   12218 TIP3 1438 TIP3 OH2  OT    -0.834000       15.9994           0
   12219 TIP3 1438 TIP3 H1   HT     0.417000        1.0080           0
   12220 TIP3 1438 TIP3 H2   HT     0.417000        1.0080           0
   12221 TIP3 1439 TIP3 OH2  OT    -0.834000       15.9994           0
   12222 TIP3 1439 TIP3 H1   HT     0.417000        1.0080           0
   12223 TIP3 1439 TIP3 H2   HT     0.417000        1.0080           0
   12224 TIP3 1440 TIP3 OH2  OT    -0.834000       15.9994           0
   12225 TIP3 1440 TIP3 H1   HT     0.417000        1.0080           0
   12226 TIP3 1440 TIP3 H2   HT     0.417000        1.0080           0
   12227 TIP3 1441 TIP3 OH2  OT    -0.834000       15.9994           0
   12228 TIP3 1441 TIP3 H1   HT     0.417000        1.0080           0
   12229 TIP3 1441 TIP3 H2   HT     0.417000        1.0080           0
   12230 TIP3 1442 TIP3 OH2  OT    -0.834000       15.9994           0
   12231 TIP3 1442 TIP3 H1   HT     0.417000        1.0080           0
   12232 TIP3 1442 TIP3 H2   HT     0.417000        1.0080           0
   12233 TIP3 1443 TIP3 OH2  OT    -0.834000       15.9994           0
   12234 TIP3 1443 TIP3 H1   HT     0.417000        1.0080           0
   12235 TIP3 1443 TIP3 H2   HT     0.417000        1.0080           0
   12236 TIP3 1444 TIP3 OH2  OT    -0.834000       15.9994           0
   12237 TIP3 1444 TIP3 H1   HT     0.417000        1.0080           0
   12238 TIP3 1444 TIP3 H2   HT     0.417000        1.0080           0
   12239 TIP3 1445 TIP3 OH2  OT    -0.834000       15.9994           0
   12240 TIP3 1445 TIP3 H1   HT     0.417000        1.0080           0
   12241 TIP3 1445 TIP3 H2   HT     0.417000        1.0080           0
   12242 TIP3 1446 TIP3 OH2  OT    -0.834000       15.9994           0
   12243 TIP3 1446 TIP3 H1   HT     0.417000        1.0080           0
   12244 TIP3 1446 TIP3 H2   HT     0.417000        1.0080           0
   12245 TIP3 1447 TIP3 OH2  OT    -0.834000       15.9994           0
   12246 TIP3 1447 TIP3 H1   HT     0.417000        1.0080           0
   12247 TIP3 1447 TIP3 H2   HT     0.417000        1.0080           0
   12248 TIP3 1448 TIP3 OH2  OT    -0.834000       15.9994           0
   12249 TIP3 1448 TIP3 H1   HT     0.417000        1.0080           0
   12250 TIP3 1448 TIP3 H2   HT     0.417000        1.0080           0
   12251 TIP3 1449 TIP3 OH2  OT    -0.834000       15.9994           0
   12252 TIP3 1449 TIP3 H1   HT     0.417000        1.0080           0
   12253 TIP3 1449 TIP3 H2   HT     0.417000        1.0080           0
   12254 TIP3 1450 TIP3 OH2  OT    -0.834000       15.9994           0
   12255 TIP3 1450 TIP3 H1   HT     0.417000        1.0080           0
   12256 TIP3 1450 TIP3 H2   HT     0.417000        1.0080           0
   12257 TIP3 1451 TIP3 OH2  OT    -0.834000       15.9994           0
   12258 TIP3 1451 TIP3 H1   HT     0.417000        1.0080           0
   12259 TIP3 1451 TIP3 H2   HT     0.417000        1.0080           0
   12260 TIP3 1452 TIP3 OH2  OT    -0.834000       15.9994           0
   12261 TIP3 1452 TIP3 H1   HT     0.417000        1.0080           0
   12262 TIP3 1452 TIP3 H2   HT     0.417000        1.0080           0
   12263 TIP3 1453 TIP3 OH2  OT    -0.834000       15.9994           0
   12264 TIP3 1453 TIP3 H1   HT     0.417000        1.0080           0
   12265 TIP3 1453 TIP3 H2   HT     0.417000        1.0080           0
   12266 TIP3 1454 TIP3 OH2  OT    -0.834000       15.9994           0
   12267 TIP3 1454 TIP3 H1   HT     0.417000        1.0080           0
   12268 TIP3 1454 TIP3 H2   HT     0.417000        1.0080           0
   12269 TIP3 1455 TIP3 OH2  OT    -0.834000       15.9994           0
   12270 TIP3 1455 TIP3 H1   HT     0.417000        1.0080           0
   12271 TIP3 1455 TIP3 H2   HT     0.417000        1.0080           0
   12272 TIP3 1456 TIP3 OH2  OT    -0.834000       15.9994           0
   12273 TIP3 1456 TIP3 H1   HT     0.417000        1.0080           0
   12274 TIP3 1456 TIP3 H2   HT     0.417000        1.0080           0
   12275 TIP3 1457 TIP3 OH2  OT    -0.834000       15.9994           0
   12276 TIP3 1457 TIP3 H1   HT     0.417000        1.0080           0
   12277 TIP3 1457 TIP3 H2   HT     0.417000        1.0080           0
   12278 TIP3 1458 TIP3 OH2  OT    -0.834000       15.9994           0
   12279 TIP3 1458 TIP3 H1   HT     0.417000        1.0080           0
   12280 TIP3 1458 TIP3 H2   HT     0.417000        1.0080           0
   12281 TIP3 1459 TIP3 OH2  OT    -0.834000       15.9994           0
   12282 TIP3 1459 TIP3 H1   HT     0.417000        1.0080           0
   12283 TIP3 1459 TIP3 H2   HT     0.417000        1.0080           0
   12284 TIP3 1460 TIP3 OH2  OT    -0.834000       15.9994           0
   12285 TIP3 1460 TIP3 H1   HT     0.417000        1.0080           0
   12286 TIP3 1460 TIP3 H2   HT     0.417000        1.0080           0
   12287 TIP3 1461 TIP3 OH2  OT    -0.834000       15.9994           0
   12288 TIP3 1461 TIP3 H1   HT     0.417000        1.0080           0
   12289 TIP3 1461 TIP3 H2   HT     0.417000        1.0080           0
   12290 TIP3 1462 TIP3 OH2  OT    -0.834000       15.9994           0
   12291 TIP3 1462 TIP3 H1   HT     0.417000        1.0080           0
   12292 TIP3 1462 TIP3 H2   HT     0.417000        1.0080           0
   12293 TIP3 1463 TIP3 OH2  OT    -0.834000       15.9994           0
   12294 TIP3 1463 TIP3 H1   HT     0.417000        1.0080           0
   12295 TIP3 1463 TIP3 H2   HT     0.417000        1.0080           0
   12296 TIP3 1464 TIP3 OH2  OT    -0.834000       15.9994           0
   12297 TIP3 1464 TIP3 H1   HT     0.417000        1.0080           0
   12298 TIP3 1464 TIP3 H2   HT     0.417000        1.0080           0
   12299 TIP3 1465 TIP3 OH2  OT    -0.834000       15.9994           0
   12300 TIP3 1465 TIP3 H1   HT     0.417000        1.0080           0
   12301 TIP3 1465 TIP3 H2   HT     0.417000        1.0080           0
   12302 TIP3 1466 TIP3 OH2  OT    -0.834000       15.9994           0
   12303 TIP3 1466 TIP3 H1   HT     0.417000        1.0080           0
   12304 TIP3 1466 TIP3 H2   HT     0.417000        1.0080           0
   12305 TIP3 1467 TIP3 OH2  OT    -0.834000       15.9994           0
   12306 TIP3 1467 TIP3 H1   HT     0.417000        1.0080           0
   12307 TIP3 1467 TIP3 H2   HT     0.417000        1.0080           0
   12308 TIP3 1468 TIP3 OH2  OT    -0.834000       15.9994           0
   12309 TIP3 1468 TIP3 H1   HT     0.417000        1.0080           0
   12310 TIP3 1468 TIP3 H2   HT     0.417000        1.0080           0
   12311 TIP3 1469 TIP3 OH2  OT    -0.834000       15.9994           0
   12312 TIP3 1469 TIP3 H1   HT     0.417000        1.0080           0
   12313 TIP3 1469 TIP3 H2   HT     0.417000        1.0080           0
   12314 TIP3 1470 TIP3 OH2  OT    -0.834000       15.9994           0
   12315 TIP3 1470 TIP3 H1   HT     0.417000        1.0080           0
   12316 TIP3 1470 TIP3 H2   HT     0.417000        1.0080           0
   12317 TIP3 1471 TIP3 OH2  OT    -0.834000       15.9994           0
   12318 TIP3 1471 TIP3 H1   HT     0.417000        1.0080           0
   12319 TIP3 1471 TIP3 H2   HT     0.417000        1.0080           0
   12320 TIP3 1472 TIP3 OH2  OT    -0.834000       15.9994           0
   12321 TIP3 1472 TIP3 H1   HT     0.417000        1.0080           0
   12322 TIP3 1472 TIP3 H2   HT     0.417000        1.0080           0
   12323 TIP3 1473 TIP3 OH2  OT    -0.834000       15.9994           0
   12324 TIP3 1473 TIP3 H1   HT     0.417000        1.0080           0
   12325 TIP3 1473 TIP3 H2   HT     0.417000        1.0080           0
   12326 TIP3 1474 TIP3 OH2  OT    -0.834000       15.9994           0
   12327 TIP3 1474 TIP3 H1   HT     0.417000        1.0080           0
   12328 TIP3 1474 TIP3 H2   HT     0.417000        1.0080           0
   12329 TIP3 1475 TIP3 OH2  OT    -0.834000       15.9994           0
   12330 TIP3 1475 TIP3 H1   HT     0.417000        1.0080           0
   12331 TIP3 1475 TIP3 H2   HT     0.417000        1.0080           0
   12332 TIP3 1476 TIP3 OH2  OT    -0.834000       15.9994           0
   12333 TIP3 1476 TIP3 H1   HT     0.417000        1.0080           0
   12334 TIP3 1476 TIP3 H2   HT     0.417000        1.0080           0
   12335 TIP3 1477 TIP3 OH2  OT    -0.834000       15.9994           0
   12336 TIP3 1477 TIP3 H1   HT     0.417000        1.0080           0
   12337 TIP3 1477 TIP3 H2   HT     0.417000        1.0080           0
   12338 TIP3 1478 TIP3 OH2  OT    -0.834000       15.9994           0
   12339 TIP3 1478 TIP3 H1   HT     0.417000        1.0080           0
   12340 TIP3 1478 TIP3 H2   HT     0.417000        1.0080           0
   12341 TIP3 1479 TIP3 OH2  OT    -0.834000       15.9994           0
   12342 TIP3 1479 TIP3 H1   HT     0.417000        1.0080           0
   12343 TIP3 1479 TIP3 H2   HT     0.417000        1.0080           0
   12344 TIP3 1480 TIP3 OH2  OT    -0.834000       15.9994           0
   12345 TIP3 1480 TIP3 H1   HT     0.417000        1.0080           0
   12346 TIP3 1480 TIP3 H2   HT     0.417000        1.0080           0
   12347 TIP3 1481 TIP3 OH2  OT    -0.834000       15.9994           0
   12348 TIP3 1481 TIP3 H1   HT     0.417000        1.0080           0
   12349 TIP3 1481 TIP3 H2   HT     0.417000        1.0080           0
   12350 TIP3 1482 TIP3 OH2  OT    -0.834000       15.9994           0
   12351 TIP3 1482 TIP3 H1   HT     0.417000        1.0080           0
   12352 TIP3 1482 TIP3 H2   HT     0.417000        1.0080           0
   12353 TIP3 1483 TIP3 OH2  OT    -0.834000       15.9994           0
   12354 TIP3 1483 TIP3 H1   HT     0.417000        1.0080           0
   12355 TIP3 1483 TIP3 H2   HT     0.417000        1.0080           0
   12356 TIP3 1484 TIP3 OH2  OT    -0.834000       15.9994           0
   12357 TIP3 1484 TIP3 H1   HT     0.417000        1.0080           0
   12358 TIP3 1484 TIP3 H2   HT     0.417000        1.0080           0
   12359 TIP3 1485 TIP3 OH2  OT    -0.834000       15.9994           0
   12360 TIP3 1485 TIP3 H1   HT     0.417000        1.0080           0
   12361 TIP3 1485 TIP3 H2   HT     0.417000        1.0080           0
   12362 TIP3 1486 TIP3 OH2  OT    -0.834000       15.9994           0
   12363 TIP3 1486 TIP3 H1   HT     0.417000        1.0080           0
   12364 TIP3 1486 TIP3 H2   HT     0.417000        1.0080           0
   12365 TIP3 1487 TIP3 OH2  OT    -0.834000       15.9994           0
   12366 TIP3 1487 TIP3 H1   HT     0.417000        1.0080           0
   12367 TIP3 1487 TIP3 H2   HT     0.417000        1.0080           0
   12368 TIP3 1488 TIP3 OH2  OT    -0.834000       15.9994           0
   12369 TIP3 1488 TIP3 H1   HT     0.417000        1.0080           0
   12370 TIP3 1488 TIP3 H2   HT     0.417000        1.0080           0
   12371 TIP3 1489 TIP3 OH2  OT    -0.834000       15.9994           0
   12372 TIP3 1489 TIP3 H1   HT     0.417000        1.0080           0
   12373 TIP3 1489 TIP3 H2   HT     0.417000        1.0080           0
   12374 TIP3 1490 TIP3 OH2  OT    -0.834000       15.9994           0
   12375 TIP3 1490 TIP3 H1   HT     0.417000        1.0080           0
   12376 TIP3 1490 TIP3 H2   HT     0.417000        1.0080           0
   12377 TIP3 1491 TIP3 OH2  OT    -0.834000       15.9994           0
   12378 TIP3 1491 TIP3 H1   HT     0.417000        1.0080           0
   12379 TIP3 1491 TIP3 H2   HT     0.417000        1.0080           0
   12380 TIP3 1492 TIP3 OH2  OT    -0.834000       15.9994           0
   12381 TIP3 1492 TIP3 H1   HT     0.417000        1.0080           0
   12382 TIP3 1492 TIP3 H2   HT     0.417000        1.0080           0
   12383 TIP3 1493 TIP3 OH2  OT    -0.834000       15.9994           0
   12384 TIP3 1493 TIP3 H1   HT     0.417000        1.0080           0
   12385 TIP3 1493 TIP3 H2   HT     0.417000        1.0080           0
   12386 TIP3 1494 TIP3 OH2  OT    -0.834000       15.9994           0
   12387 TIP3 1494 TIP3 H1   HT     0.417000        1.0080           0
   12388 TIP3 1494 TIP3 H2   HT     0.417000        1.0080           0
   12389 TIP3 1495 TIP3 OH2  OT    -0.834000       15.9994           0
   12390 TIP3 1495 TIP3 H1   HT     0.417000        1.0080           0
   12391 TIP3 1495 TIP3 H2   HT     0.417000        1.0080           0
   12392 TIP3 1496 TIP3 OH2  OT    -0.834000       15.9994           0
   12393 TIP3 1496 TIP3 H1   HT     0.417000        1.0080           0
   12394 TIP3 1496 TIP3 H2   HT     0.417000        1.0080           0
   12395 TIP3 1497 TIP3 OH2  OT    -0.834000       15.9994           0
   12396 TIP3 1497 TIP3 H1   HT     0.417000        1.0080           0
   12397 TIP3 1497 TIP3 H2   HT     0.417000        1.0080           0
   12398 TIP3 1498 TIP3 OH2  OT    -0.834000       15.9994           0
   12399 TIP3 1498 TIP3 H1   HT     0.417000        1.0080           0
   12400 TIP3 1498 TIP3 H2   HT     0.417000        1.0080           0
   12401 TIP3 1499 TIP3 OH2  OT    -0.834000       15.9994           0
   12402 TIP3 1499 TIP3 H1   HT     0.417000        1.0080           0
   12403 TIP3 1499 TIP3 H2   HT     0.417000        1.0080           0
   12404 TIP3 1500 TIP3 OH2  OT    -0.834000       15.9994           0
   12405 TIP3 1500 TIP3 H1   HT     0.417000        1.0080           0
   12406 TIP3 1500 TIP3 H2   HT     0.417000        1.0080           0
   12407 TIP3 1501 TIP3 OH2  OT    -0.834000       15.9994           0
   12408 TIP3 1501 TIP3 H1   HT     0.417000        1.0080           0
   12409 TIP3 1501 TIP3 H2   HT     0.417000        1.0080           0
   12410 TIP3 1502 TIP3 OH2  OT    -0.834000       15.9994           0
   12411 TIP3 1502 TIP3 H1   HT     0.417000        1.0080           0
   12412 TIP3 1502 TIP3 H2   HT     0.417000        1.0080           0
   12413 TIP3 1503 TIP3 OH2  OT    -0.834000       15.9994           0
   12414 TIP3 1503 TIP3 H1   HT     0.417000        1.0080           0
   12415 TIP3 1503 TIP3 H2   HT     0.417000        1.0080           0
   12416 TIP3 1504 TIP3 OH2  OT    -0.834000       15.9994           0
   12417 TIP3 1504 TIP3 H1   HT     0.417000        1.0080           0
   12418 TIP3 1504 TIP3 H2   HT     0.417000        1.0080           0
   12419 TIP3 1505 TIP3 OH2  OT    -0.834000       15.9994           0
   12420 TIP3 1505 TIP3 H1   HT     0.417000        1.0080           0
   12421 TIP3 1505 TIP3 H2   HT     0.417000        1.0080           0
   12422 TIP3 1506 TIP3 OH2  OT    -0.834000       15.9994           0
   12423 TIP3 1506 TIP3 H1   HT     0.417000        1.0080           0
   12424 TIP3 1506 TIP3 H2   HT     0.417000        1.0080           0
   12425 TIP3 1507 TIP3 OH2  OT    -0.834000       15.9994           0
   12426 TIP3 1507 TIP3 H1   HT     0.417000        1.0080           0
   12427 TIP3 1507 TIP3 H2   HT     0.417000        1.0080           0
   12428 TIP3 1508 TIP3 OH2  OT    -0.834000       15.9994           0
   12429 TIP3 1508 TIP3 H1   HT     0.417000        1.0080           0
   12430 TIP3 1508 TIP3 H2   HT     0.417000        1.0080           0
   12431 TIP3 1509 TIP3 OH2  OT    -0.834000       15.9994           0
   12432 TIP3 1509 TIP3 H1   HT     0.417000        1.0080           0
   12433 TIP3 1509 TIP3 H2   HT     0.417000        1.0080           0
   12434 TIP3 1510 TIP3 OH2  OT    -0.834000       15.9994           0
   12435 TIP3 1510 TIP3 H1   HT     0.417000        1.0080           0
   12436 TIP3 1510 TIP3 H2   HT     0.417000        1.0080           0
   12437 TIP3 1511 TIP3 OH2  OT    -0.834000       15.9994           0
   12438 TIP3 1511 TIP3 H1   HT     0.417000        1.0080           0
   12439 TIP3 1511 TIP3 H2   HT     0.417000        1.0080           0
   12440 TIP3 1512 TIP3 OH2  OT    -0.834000       15.9994           0
   12441 TIP3 1512 TIP3 H1   HT     0.417000        1.0080           0
   12442 TIP3 1512 TIP3 H2   HT     0.417000        1.0080           0
   12443 TIP3 1513 TIP3 OH2  OT    -0.834000       15.9994           0
   12444 TIP3 1513 TIP3 H1   HT     0.417000        1.0080           0
   12445 TIP3 1513 TIP3 H2   HT     0.417000        1.0080           0
   12446 TIP3 1514 TIP3 OH2  OT    -0.834000       15.9994           0
   12447 TIP3 1514 TIP3 H1   HT     0.417000        1.0080           0
   12448 TIP3 1514 TIP3 H2   HT     0.417000        1.0080           0
   12449 TIP3 1515 TIP3 OH2  OT    -0.834000       15.9994           0
   12450 TIP3 1515 TIP3 H1   HT     0.417000        1.0080           0
   12451 TIP3 1515 TIP3 H2   HT     0.417000        1.0080           0
   12452 TIP3 1516 TIP3 OH2  OT    -0.834000       15.9994           0
   12453 TIP3 1516 TIP3 H1   HT     0.417000        1.0080           0
   12454 TIP3 1516 TIP3 H2   HT     0.417000        1.0080           0
   12455 TIP3 1517 TIP3 OH2  OT    -0.834000       15.9994           0
   12456 TIP3 1517 TIP3 H1   HT     0.417000        1.0080           0
   12457 TIP3 1517 TIP3 H2   HT     0.417000        1.0080           0
   12458 TIP3 1518 TIP3 OH2  OT    -0.834000       15.9994           0
   12459 TIP3 1518 TIP3 H1   HT     0.417000        1.0080           0
   12460 TIP3 1518 TIP3 H2   HT     0.417000        1.0080           0
   12461 TIP3 1519 TIP3 OH2  OT    -0.834000       15.9994           0
   12462 TIP3 1519 TIP3 H1   HT     0.417000        1.0080           0
   12463 TIP3 1519 TIP3 H2   HT     0.417000        1.0080           0
   12464 TIP3 1520 TIP3 OH2  OT    -0.834000       15.9994           0
   12465 TIP3 1520 TIP3 H1   HT     0.417000        1.0080           0
   12466 TIP3 1520 TIP3 H2   HT     0.417000        1.0080           0
   12467 TIP3 1521 TIP3 OH2  OT    -0.834000       15.9994           0
   12468 TIP3 1521 TIP3 H1   HT     0.417000        1.0080           0
   12469 TIP3 1521 TIP3 H2   HT     0.417000        1.0080           0
   12470 TIP3 1522 TIP3 OH2  OT    -0.834000       15.9994           0
   12471 TIP3 1522 TIP3 H1   HT     0.417000        1.0080           0
   12472 TIP3 1522 TIP3 H2   HT     0.417000        1.0080           0
   12473 TIP3 1523 TIP3 OH2  OT    -0.834000       15.9994           0
   12474 TIP3 1523 TIP3 H1   HT     0.417000        1.0080           0
   12475 TIP3 1523 TIP3 H2   HT     0.417000        1.0080           0
   12476 TIP3 1524 TIP3 OH2  OT    -0.834000       15.9994           0
   12477 TIP3 1524 TIP3 H1   HT     0.417000        1.0080           0
   12478 TIP3 1524 TIP3 H2   HT     0.417000        1.0080           0
   12479 TIP3 1525 TIP3 OH2  OT    -0.834000       15.9994           0
   12480 TIP3 1525 TIP3 H1   HT     0.417000        1.0080           0
   12481 TIP3 1525 TIP3 H2   HT     0.417000        1.0080           0
   12482 TIP3 1526 TIP3 OH2  OT    -0.834000       15.9994           0
   12483 TIP3 1526 TIP3 H1   HT     0.417000        1.0080           0
   12484 TIP3 1526 TIP3 H2   HT     0.417000        1.0080           0
   12485 TIP3 1527 TIP3 OH2  OT    -0.834000       15.9994           0
   12486 TIP3 1527 TIP3 H1   HT     0.417000        1.0080           0
   12487 TIP3 1527 TIP3 H2   HT     0.417000        1.0080           0
   12488 TIP3 1528 TIP3 OH2  OT    -0.834000       15.9994           0
   12489 TIP3 1528 TIP3 H1   HT     0.417000        1.0080           0
   12490 TIP3 1528 TIP3 H2   HT     0.417000        1.0080           0
   12491 TIP3 1529 TIP3 OH2  OT    -0.834000       15.9994           0
   12492 TIP3 1529 TIP3 H1   HT     0.417000        1.0080           0
   12493 TIP3 1529 TIP3 H2   HT     0.417000        1.0080           0
   12494 TIP3 1530 TIP3 OH2  OT    -0.834000       15.9994           0
   12495 TIP3 1530 TIP3 H1   HT     0.417000        1.0080           0
   12496 TIP3 1530 TIP3 H2   HT     0.417000        1.0080           0
   12497 TIP3 1531 TIP3 OH2  OT    -0.834000       15.9994           0
   12498 TIP3 1531 TIP3 H1   HT     0.417000        1.0080           0
   12499 TIP3 1531 TIP3 H2   HT     0.417000        1.0080           0
   12500 TIP3 1532 TIP3 OH2  OT    -0.834000       15.9994           0
   12501 TIP3 1532 TIP3 H1   HT     0.417000        1.0080           0
   12502 TIP3 1532 TIP3 H2   HT     0.417000        1.0080           0
   12503 TIP3 1533 TIP3 OH2  OT    -0.834000       15.9994           0
   12504 TIP3 1533 TIP3 H1   HT     0.417000        1.0080           0
   12505 TIP3 1533 TIP3 H2   HT     0.417000        1.0080           0
   12506 TIP3 1534 TIP3 OH2  OT    -0.834000       15.9994           0
   12507 TIP3 1534 TIP3 H1   HT     0.417000        1.0080           0
   12508 TIP3 1534 TIP3 H2   HT     0.417000        1.0080           0
   12509 TIP3 1535 TIP3 OH2  OT    -0.834000       15.9994           0
   12510 TIP3 1535 TIP3 H1   HT     0.417000        1.0080           0
   12511 TIP3 1535 TIP3 H2   HT     0.417000        1.0080           0
   12512 TIP3 1536 TIP3 OH2  OT    -0.834000       15.9994           0
   12513 TIP3 1536 TIP3 H1   HT     0.417000        1.0080           0
   12514 TIP3 1536 TIP3 H2   HT     0.417000        1.0080           0
   12515 TIP3 1537 TIP3 OH2  OT    -0.834000       15.9994           0
   12516 TIP3 1537 TIP3 H1   HT     0.417000        1.0080           0
   12517 TIP3 1537 TIP3 H2   HT     0.417000        1.0080           0
   12518 TIP3 1538 TIP3 OH2  OT    -0.834000       15.9994           0
   12519 TIP3 1538 TIP3 H1   HT     0.417000        1.0080           0
   12520 TIP3 1538 TIP3 H2   HT     0.417000        1.0080           0
   12521 TIP3 1539 TIP3 OH2  OT    -0.834000       15.9994           0
   12522 TIP3 1539 TIP3 H1   HT     0.417000        1.0080           0
   12523 TIP3 1539 TIP3 H2   HT     0.417000        1.0080           0
   12524 TIP3 1540 TIP3 OH2  OT    -0.834000       15.9994           0
   12525 TIP3 1540 TIP3 H1   HT     0.417000        1.0080           0
   12526 TIP3 1540 TIP3 H2   HT     0.417000        1.0080           0
   12527 TIP3 1541 TIP3 OH2  OT    -0.834000       15.9994           0
   12528 TIP3 1541 TIP3 H1   HT     0.417000        1.0080           0
   12529 TIP3 1541 TIP3 H2   HT     0.417000        1.0080           0
   12530 TIP3 1542 TIP3 OH2  OT    -0.834000       15.9994           0
   12531 TIP3 1542 TIP3 H1   HT     0.417000        1.0080           0
   12532 TIP3 1542 TIP3 H2   HT     0.417000        1.0080           0
   12533 TIP3 1543 TIP3 OH2  OT    -0.834000       15.9994           0
   12534 TIP3 1543 TIP3 H1   HT     0.417000        1.0080           0
   12535 TIP3 1543 TIP3 H2   HT     0.417000        1.0080           0
   12536 TIP3 1544 TIP3 OH2  OT    -0.834000       15.9994           0
   12537 TIP3 1544 TIP3 H1   HT     0.417000        1.0080           0
   12538 TIP3 1544 TIP3 H2   HT     0.417000        1.0080           0
   12539 TIP3 1545 TIP3 OH2  OT    -0.834000       15.9994           0
   12540 TIP3 1545 TIP3 H1   HT     0.417000        1.0080           0
   12541 TIP3 1545 TIP3 H2   HT     0.417000        1.0080           0
   12542 TIP3 1546 TIP3 OH2  OT    -0.834000       15.9994           0
   12543 TIP3 1546 TIP3 H1   HT     0.417000        1.0080           0
   12544 TIP3 1546 TIP3 H2   HT     0.417000        1.0080           0
   12545 TIP3 1547 TIP3 OH2  OT    -0.834000       15.9994           0
   12546 TIP3 1547 TIP3 H1   HT     0.417000        1.0080           0
   12547 TIP3 1547 TIP3 H2   HT     0.417000        1.0080           0
   12548 TIP3 1548 TIP3 OH2  OT    -0.834000       15.9994           0
   12549 TIP3 1548 TIP3 H1   HT     0.417000        1.0080           0
   12550 TIP3 1548 TIP3 H2   HT     0.417000        1.0080           0
   12551 TIP3 1549 TIP3 OH2  OT    -0.834000       15.9994           0
   12552 TIP3 1549 TIP3 H1   HT     0.417000        1.0080           0
   12553 TIP3 1549 TIP3 H2   HT     0.417000        1.0080           0
   12554 TIP3 1550 TIP3 OH2  OT    -0.834000       15.9994           0
   12555 TIP3 1550 TIP3 H1   HT     0.417000        1.0080           0
   12556 TIP3 1550 TIP3 H2   HT     0.417000        1.0080           0
   12557 TIP3 1551 TIP3 OH2  OT    -0.834000       15.9994           0
   12558 TIP3 1551 TIP3 H1   HT     0.417000        1.0080           0
   12559 TIP3 1551 TIP3 H2   HT     0.417000        1.0080           0
   12560 TIP3 1552 TIP3 OH2  OT    -0.834000       15.9994           0
   12561 TIP3 1552 TIP3 H1   HT     0.417000        1.0080           0
   12562 TIP3 1552 TIP3 H2   HT     0.417000        1.0080           0
   12563 TIP3 1553 TIP3 OH2  OT    -0.834000       15.9994           0
   12564 TIP3 1553 TIP3 H1   HT     0.417000        1.0080           0
   12565 TIP3 1553 TIP3 H2   HT     0.417000        1.0080           0
   12566 TIP3 1554 TIP3 OH2  OT    -0.834000       15.9994           0
   12567 TIP3 1554 TIP3 H1   HT     0.417000        1.0080           0
   12568 TIP3 1554 TIP3 H2   HT     0.417000        1.0080           0
   12569 TIP3 1555 TIP3 OH2  OT    -0.834000       15.9994           0
   12570 TIP3 1555 TIP3 H1   HT     0.417000        1.0080           0
   12571 TIP3 1555 TIP3 H2   HT     0.417000        1.0080           0
   12572 TIP3 1556 TIP3 OH2  OT    -0.834000       15.9994           0
   12573 TIP3 1556 TIP3 H1   HT     0.417000        1.0080           0
   12574 TIP3 1556 TIP3 H2   HT     0.417000        1.0080           0
   12575 TIP3 1557 TIP3 OH2  OT    -0.834000       15.9994           0
   12576 TIP3 1557 TIP3 H1   HT     0.417000        1.0080           0
   12577 TIP3 1557 TIP3 H2   HT     0.417000        1.0080           0
   12578 TIP3 1558 TIP3 OH2  OT    -0.834000       15.9994           0
   12579 TIP3 1558 TIP3 H1   HT     0.417000        1.0080           0
   12580 TIP3 1558 TIP3 H2   HT     0.417000        1.0080           0
   12581 TIP3 1559 TIP3 OH2  OT    -0.834000       15.9994           0
   12582 TIP3 1559 TIP3 H1   HT     0.417000        1.0080           0
   12583 TIP3 1559 TIP3 H2   HT     0.417000        1.0080           0
   12584 TIP3 1560 TIP3 OH2  OT    -0.834000       15.9994           0
   12585 TIP3 1560 TIP3 H1   HT     0.417000        1.0080           0
   12586 TIP3 1560 TIP3 H2   HT     0.417000        1.0080           0
   12587 TIP3 1561 TIP3 OH2  OT    -0.834000       15.9994           0
   12588 TIP3 1561 TIP3 H1   HT     0.417000        1.0080           0
   12589 TIP3 1561 TIP3 H2   HT     0.417000        1.0080           0
   12590 TIP3 1562 TIP3 OH2  OT    -0.834000       15.9994           0
   12591 TIP3 1562 TIP3 H1   HT     0.417000        1.0080           0
   12592 TIP3 1562 TIP3 H2   HT     0.417000        1.0080           0
   12593 TIP3 1563 TIP3 OH2  OT    -0.834000       15.9994           0
   12594 TIP3 1563 TIP3 H1   HT     0.417000        1.0080           0
   12595 TIP3 1563 TIP3 H2   HT     0.417000        1.0080           0
   12596 TIP3 1564 TIP3 OH2  OT    -0.834000       15.9994           0
   12597 TIP3 1564 TIP3 H1   HT     0.417000        1.0080           0
   12598 TIP3 1564 TIP3 H2   HT     0.417000        1.0080           0
   12599 TIP3 1565 TIP3 OH2  OT    -0.834000       15.9994           0
   12600 TIP3 1565 TIP3 H1   HT     0.417000        1.0080           0
   12601 TIP3 1565 TIP3 H2   HT     0.417000        1.0080           0
   12602 TIP3 1566 TIP3 OH2  OT    -0.834000       15.9994           0
   12603 TIP3 1566 TIP3 H1   HT     0.417000        1.0080           0
   12604 TIP3 1566 TIP3 H2   HT     0.417000        1.0080           0
   12605 TIP3 1567 TIP3 OH2  OT    -0.834000       15.9994           0
   12606 TIP3 1567 TIP3 H1   HT     0.417000        1.0080           0
   12607 TIP3 1567 TIP3 H2   HT     0.417000        1.0080           0
   12608 TIP3 1568 TIP3 OH2  OT    -0.834000       15.9994           0
   12609 TIP3 1568 TIP3 H1   HT     0.417000        1.0080           0
   12610 TIP3 1568 TIP3 H2   HT     0.417000        1.0080           0
   12611 TIP3 1569 TIP3 OH2  OT    -0.834000       15.9994           0
   12612 TIP3 1569 TIP3 H1   HT     0.417000        1.0080           0
   12613 TIP3 1569 TIP3 H2   HT     0.417000        1.0080           0
   12614 TIP3 1570 TIP3 OH2  OT    -0.834000       15.9994           0
   12615 TIP3 1570 TIP3 H1   HT     0.417000        1.0080           0
   12616 TIP3 1570 TIP3 H2   HT     0.417000        1.0080           0
   12617 TIP3 1571 TIP3 OH2  OT    -0.834000       15.9994           0
   12618 TIP3 1571 TIP3 H1   HT     0.417000        1.0080           0
   12619 TIP3 1571 TIP3 H2   HT     0.417000        1.0080           0
   12620 TIP3 1572 TIP3 OH2  OT    -0.834000       15.9994           0
   12621 TIP3 1572 TIP3 H1   HT     0.417000        1.0080           0
   12622 TIP3 1572 TIP3 H2   HT     0.417000        1.0080           0
   12623 TIP3 1573 TIP3 OH2  OT    -0.834000       15.9994           0
   12624 TIP3 1573 TIP3 H1   HT     0.417000        1.0080           0
   12625 TIP3 1573 TIP3 H2   HT     0.417000        1.0080           0
   12626 TIP3 1574 TIP3 OH2  OT    -0.834000       15.9994           0
   12627 TIP3 1574 TIP3 H1   HT     0.417000        1.0080           0
   12628 TIP3 1574 TIP3 H2   HT     0.417000        1.0080           0
   12629 TIP3 1575 TIP3 OH2  OT    -0.834000       15.9994           0
   12630 TIP3 1575 TIP3 H1   HT     0.417000        1.0080           0
   12631 TIP3 1575 TIP3 H2   HT     0.417000        1.0080           0
   12632 TIP3 1576 TIP3 OH2  OT    -0.834000       15.9994           0
   12633 TIP3 1576 TIP3 H1   HT     0.417000        1.0080           0
   12634 TIP3 1576 TIP3 H2   HT     0.417000        1.0080           0
   12635 TIP3 1577 TIP3 OH2  OT    -0.834000       15.9994           0
   12636 TIP3 1577 TIP3 H1   HT     0.417000        1.0080           0
   12637 TIP3 1577 TIP3 H2   HT     0.417000        1.0080           0
   12638 TIP3 1578 TIP3 OH2  OT    -0.834000       15.9994           0
   12639 TIP3 1578 TIP3 H1   HT     0.417000        1.0080           0
   12640 TIP3 1578 TIP3 H2   HT     0.417000        1.0080           0
   12641 TIP3 1579 TIP3 OH2  OT    -0.834000       15.9994           0
   12642 TIP3 1579 TIP3 H1   HT     0.417000        1.0080           0
   12643 TIP3 1579 TIP3 H2   HT     0.417000        1.0080           0
   12644 TIP3 1580 TIP3 OH2  OT    -0.834000       15.9994           0
   12645 TIP3 1580 TIP3 H1   HT     0.417000        1.0080           0
   12646 TIP3 1580 TIP3 H2   HT     0.417000        1.0080           0
   12647 TIP3 1581 TIP3 OH2  OT    -0.834000       15.9994           0
   12648 TIP3 1581 TIP3 H1   HT     0.417000        1.0080           0
   12649 TIP3 1581 TIP3 H2   HT     0.417000        1.0080           0
   12650 TIP3 1582 TIP3 OH2  OT    -0.834000       15.9994           0
   12651 TIP3 1582 TIP3 H1   HT     0.417000        1.0080           0
   12652 TIP3 1582 TIP3 H2   HT     0.417000        1.0080           0
   12653 TIP3 1583 TIP3 OH2  OT    -0.834000       15.9994           0
   12654 TIP3 1583 TIP3 H1   HT     0.417000        1.0080           0
   12655 TIP3 1583 TIP3 H2   HT     0.417000        1.0080           0
   12656 TIP3 1584 TIP3 OH2  OT    -0.834000       15.9994           0
   12657 TIP3 1584 TIP3 H1   HT     0.417000        1.0080           0
   12658 TIP3 1584 TIP3 H2   HT     0.417000        1.0080           0
   12659 TIP3 1585 TIP3 OH2  OT    -0.834000       15.9994           0
   12660 TIP3 1585 TIP3 H1   HT     0.417000        1.0080           0
   12661 TIP3 1585 TIP3 H2   HT     0.417000        1.0080           0
   12662 TIP3 1586 TIP3 OH2  OT    -0.834000       15.9994           0
   12663 TIP3 1586 TIP3 H1   HT     0.417000        1.0080           0
   12664 TIP3 1586 TIP3 H2   HT     0.417000        1.0080           0
   12665 TIP3 1587 TIP3 OH2  OT    -0.834000       15.9994           0
   12666 TIP3 1587 TIP3 H1   HT     0.417000        1.0080           0
   12667 TIP3 1587 TIP3 H2   HT     0.417000        1.0080           0
   12668 TIP3 1588 TIP3 OH2  OT    -0.834000       15.9994           0
   12669 TIP3 1588 TIP3 H1   HT     0.417000        1.0080           0
   12670 TIP3 1588 TIP3 H2   HT     0.417000        1.0080           0
   12671 TIP3 1589 TIP3 OH2  OT    -0.834000       15.9994           0
   12672 TIP3 1589 TIP3 H1   HT     0.417000        1.0080           0
   12673 TIP3 1589 TIP3 H2   HT     0.417000        1.0080           0
   12674 TIP3 1590 TIP3 OH2  OT    -0.834000       15.9994           0
   12675 TIP3 1590 TIP3 H1   HT     0.417000        1.0080           0
   12676 TIP3 1590 TIP3 H2   HT     0.417000        1.0080           0
   12677 TIP3 1591 TIP3 OH2  OT    -0.834000       15.9994           0
   12678 TIP3 1591 TIP3 H1   HT     0.417000        1.0080           0
   12679 TIP3 1591 TIP3 H2   HT     0.417000        1.0080           0
   12680 TIP3 1592 TIP3 OH2  OT    -0.834000       15.9994           0
   12681 TIP3 1592 TIP3 H1   HT     0.417000        1.0080           0
   12682 TIP3 1592 TIP3 H2   HT     0.417000        1.0080           0
   12683 TIP3 1593 TIP3 OH2  OT    -0.834000       15.9994           0
   12684 TIP3 1593 TIP3 H1   HT     0.417000        1.0080           0
   12685 TIP3 1593 TIP3 H2   HT     0.417000        1.0080           0
   12686 TIP3 1594 TIP3 OH2  OT    -0.834000       15.9994           0
   12687 TIP3 1594 TIP3 H1   HT     0.417000        1.0080           0
   12688 TIP3 1594 TIP3 H2   HT     0.417000        1.0080           0
   12689 TIP3 1595 TIP3 OH2  OT    -0.834000       15.9994           0
   12690 TIP3 1595 TIP3 H1   HT     0.417000        1.0080           0
   12691 TIP3 1595 TIP3 H2   HT     0.417000        1.0080           0
   12692 TIP3 1596 TIP3 OH2  OT    -0.834000       15.9994           0
   12693 TIP3 1596 TIP3 H1   HT     0.417000        1.0080           0
   12694 TIP3 1596 TIP3 H2   HT     0.417000        1.0080           0
   12695 TIP3 1597 TIP3 OH2  OT    -0.834000       15.9994           0
   12696 TIP3 1597 TIP3 H1   HT     0.417000        1.0080           0
   12697 TIP3 1597 TIP3 H2   HT     0.417000        1.0080           0
   12698 TIP3 1598 TIP3 OH2  OT    -0.834000       15.9994           0
   12699 TIP3 1598 TIP3 H1   HT     0.417000        1.0080           0
   12700 TIP3 1598 TIP3 H2   HT     0.417000        1.0080           0
   12701 TIP3 1599 TIP3 OH2  OT    -0.834000       15.9994           0
   12702 TIP3 1599 TIP3 H1   HT     0.417000        1.0080           0
   12703 TIP3 1599 TIP3 H2   HT     0.417000        1.0080           0
   12704 TIP3 1600 TIP3 OH2  OT    -0.834000       15.9994           0
   12705 TIP3 1600 TIP3 H1   HT     0.417000        1.0080           0
   12706 TIP3 1600 TIP3 H2   HT     0.417000        1.0080           0
   12707 TIP3 1601 TIP3 OH2  OT    -0.834000       15.9994           0
   12708 TIP3 1601 TIP3 H1   HT     0.417000        1.0080           0
   12709 TIP3 1601 TIP3 H2   HT     0.417000        1.0080           0
   12710 TIP3 1602 TIP3 OH2  OT    -0.834000       15.9994           0
   12711 TIP3 1602 TIP3 H1   HT     0.417000        1.0080           0
   12712 TIP3 1602 TIP3 H2   HT     0.417000        1.0080           0
   12713 TIP3 1603 TIP3 OH2  OT    -0.834000       15.9994           0
   12714 TIP3 1603 TIP3 H1   HT     0.417000        1.0080           0
   12715 TIP3 1603 TIP3 H2   HT     0.417000        1.0080           0
   12716 TIP3 1604 TIP3 OH2  OT    -0.834000       15.9994           0
   12717 TIP3 1604 TIP3 H1   HT     0.417000        1.0080           0
   12718 TIP3 1604 TIP3 H2   HT     0.417000        1.0080           0
   12719 TIP3 1605 TIP3 OH2  OT    -0.834000       15.9994           0
   12720 TIP3 1605 TIP3 H1   HT     0.417000        1.0080           0
   12721 TIP3 1605 TIP3 H2   HT     0.417000        1.0080           0
   12722 TIP3 1606 TIP3 OH2  OT    -0.834000       15.9994           0
   12723 TIP3 1606 TIP3 H1   HT     0.417000        1.0080           0
   12724 TIP3 1606 TIP3 H2   HT     0.417000        1.0080           0
   12725 TIP3 1607 TIP3 OH2  OT    -0.834000       15.9994           0
   12726 TIP3 1607 TIP3 H1   HT     0.417000        1.0080           0
   12727 TIP3 1607 TIP3 H2   HT     0.417000        1.0080           0
   12728 TIP3 1608 TIP3 OH2  OT    -0.834000       15.9994           0
   12729 TIP3 1608 TIP3 H1   HT     0.417000        1.0080           0
   12730 TIP3 1608 TIP3 H2   HT     0.417000        1.0080           0
   12731 TIP3 1609 TIP3 OH2  OT    -0.834000       15.9994           0
   12732 TIP3 1609 TIP3 H1   HT     0.417000        1.0080           0
   12733 TIP3 1609 TIP3 H2   HT     0.417000        1.0080           0
   12734 TIP3 1610 TIP3 OH2  OT    -0.834000       15.9994           0
   12735 TIP3 1610 TIP3 H1   HT     0.417000        1.0080           0
   12736 TIP3 1610 TIP3 H2   HT     0.417000        1.0080           0
   12737 TIP3 1611 TIP3 OH2  OT    -0.834000       15.9994           0
   12738 TIP3 1611 TIP3 H1   HT     0.417000        1.0080           0
   12739 TIP3 1611 TIP3 H2   HT     0.417000        1.0080           0
   12740 TIP3 1612 TIP3 OH2  OT    -0.834000       15.9994           0
   12741 TIP3 1612 TIP3 H1   HT     0.417000        1.0080           0
   12742 TIP3 1612 TIP3 H2   HT     0.417000        1.0080           0
   12743 TIP3 1613 TIP3 OH2  OT    -0.834000       15.9994           0
   12744 TIP3 1613 TIP3 H1   HT     0.417000        1.0080           0
   12745 TIP3 1613 TIP3 H2   HT     0.417000        1.0080           0
   12746 TIP3 1614 TIP3 OH2  OT    -0.834000       15.9994           0
   12747 TIP3 1614 TIP3 H1   HT     0.417000        1.0080           0
   12748 TIP3 1614 TIP3 H2   HT     0.417000        1.0080           0
   12749 TIP3 1615 TIP3 OH2  OT    -0.834000       15.9994           0
   12750 TIP3 1615 TIP3 H1   HT     0.417000        1.0080           0
   12751 TIP3 1615 TIP3 H2   HT     0.417000        1.0080           0
   12752 TIP3 1616 TIP3 OH2  OT    -0.834000       15.9994           0
   12753 TIP3 1616 TIP3 H1   HT     0.417000        1.0080           0
   12754 TIP3 1616 TIP3 H2   HT     0.417000        1.0080           0
   12755 TIP3 1617 TIP3 OH2  OT    -0.834000       15.9994           0
   12756 TIP3 1617 TIP3 H1   HT     0.417000        1.0080           0
   12757 TIP3 1617 TIP3 H2   HT     0.417000        1.0080           0
   12758 TIP3 1618 TIP3 OH2  OT    -0.834000       15.9994           0
   12759 TIP3 1618 TIP3 H1   HT     0.417000        1.0080           0
   12760 TIP3 1618 TIP3 H2   HT     0.417000        1.0080           0
   12761 TIP3 1619 TIP3 OH2  OT    -0.834000       15.9994           0
   12762 TIP3 1619 TIP3 H1   HT     0.417000        1.0080           0
   12763 TIP3 1619 TIP3 H2   HT     0.417000        1.0080           0
   12764 TIP3 1620 TIP3 OH2  OT    -0.834000       15.9994           0
   12765 TIP3 1620 TIP3 H1   HT     0.417000        1.0080           0
   12766 TIP3 1620 TIP3 H2   HT     0.417000        1.0080           0
   12767 TIP3 1621 TIP3 OH2  OT    -0.834000       15.9994           0
   12768 TIP3 1621 TIP3 H1   HT     0.417000        1.0080           0
   12769 TIP3 1621 TIP3 H2   HT     0.417000        1.0080           0
   12770 TIP3 1622 TIP3 OH2  OT    -0.834000       15.9994           0
   12771 TIP3 1622 TIP3 H1   HT     0.417000        1.0080           0
   12772 TIP3 1622 TIP3 H2   HT     0.417000        1.0080           0
   12773 TIP3 1623 TIP3 OH2  OT    -0.834000       15.9994           0
   12774 TIP3 1623 TIP3 H1   HT     0.417000        1.0080           0
   12775 TIP3 1623 TIP3 H2   HT     0.417000        1.0080           0
   12776 TIP3 1624 TIP3 OH2  OT    -0.834000       15.9994           0
   12777 TIP3 1624 TIP3 H1   HT     0.417000        1.0080           0
   12778 TIP3 1624 TIP3 H2   HT     0.417000        1.0080           0
   12779 TIP3 1625 TIP3 OH2  OT    -0.834000       15.9994           0
   12780 TIP3 1625 TIP3 H1   HT     0.417000        1.0080           0
   12781 TIP3 1625 TIP3 H2   HT     0.417000        1.0080           0
   12782 TIP3 1626 TIP3 OH2  OT    -0.834000       15.9994           0
   12783 TIP3 1626 TIP3 H1   HT     0.417000        1.0080           0
   12784 TIP3 1626 TIP3 H2   HT     0.417000        1.0080           0
   12785 TIP3 1627 TIP3 OH2  OT    -0.834000       15.9994           0
   12786 TIP3 1627 TIP3 H1   HT     0.417000        1.0080           0
   12787 TIP3 1627 TIP3 H2   HT     0.417000        1.0080           0
   12788 TIP3 1628 TIP3 OH2  OT    -0.834000       15.9994           0
   12789 TIP3 1628 TIP3 H1   HT     0.417000        1.0080           0
   12790 TIP3 1628 TIP3 H2   HT     0.417000        1.0080           0
   12791 TIP3 1629 TIP3 OH2  OT    -0.834000       15.9994           0
   12792 TIP3 1629 TIP3 H1   HT     0.417000        1.0080           0
   12793 TIP3 1629 TIP3 H2   HT     0.417000        1.0080           0
   12794 TIP3 1630 TIP3 OH2  OT    -0.834000       15.9994           0
   12795 TIP3 1630 TIP3 H1   HT     0.417000        1.0080           0
   12796 TIP3 1630 TIP3 H2   HT     0.417000        1.0080           0
   12797 TIP3 1631 TIP3 OH2  OT    -0.834000       15.9994           0
   12798 TIP3 1631 TIP3 H1   HT     0.417000        1.0080           0
   12799 TIP3 1631 TIP3 H2   HT     0.417000        1.0080           0
   12800 TIP3 1632 TIP3 OH2  OT    -0.834000       15.9994           0
   12801 TIP3 1632 TIP3 H1   HT     0.417000        1.0080           0
   12802 TIP3 1632 TIP3 H2   HT     0.417000        1.0080           0
   12803 TIP3 1633 TIP3 OH2  OT    -0.834000       15.9994           0
   12804 TIP3 1633 TIP3 H1   HT     0.417000        1.0080           0
   12805 TIP3 1633 TIP3 H2   HT     0.417000        1.0080           0
   12806 TIP3 1634 TIP3 OH2  OT    -0.834000       15.9994           0
   12807 TIP3 1634 TIP3 H1   HT     0.417000        1.0080           0
   12808 TIP3 1634 TIP3 H2   HT     0.417000        1.0080           0
   12809 TIP3 1635 TIP3 OH2  OT    -0.834000       15.9994           0
   12810 TIP3 1635 TIP3 H1   HT     0.417000        1.0080           0
   12811 TIP3 1635 TIP3 H2   HT     0.417000        1.0080           0
   12812 TIP3 1636 TIP3 OH2  OT    -0.834000       15.9994           0
   12813 TIP3 1636 TIP3 H1   HT     0.417000        1.0080           0
   12814 TIP3 1636 TIP3 H2   HT     0.417000        1.0080           0
   12815 TIP3 1637 TIP3 OH2  OT    -0.834000       15.9994           0
   12816 TIP3 1637 TIP3 H1   HT     0.417000        1.0080           0
   12817 TIP3 1637 TIP3 H2   HT     0.417000        1.0080           0
   12818 TIP3 1638 TIP3 OH2  OT    -0.834000       15.9994           0
   12819 TIP3 1638 TIP3 H1   HT     0.417000        1.0080           0
   12820 TIP3 1638 TIP3 H2   HT     0.417000        1.0080           0
   12821 TIP3 1639 TIP3 OH2  OT    -0.834000       15.9994           0
   12822 TIP3 1639 TIP3 H1   HT     0.417000        1.0080           0
   12823 TIP3 1639 TIP3 H2   HT     0.417000        1.0080           0
   12824 TIP3 1640 TIP3 OH2  OT    -0.834000       15.9994           0
   12825 TIP3 1640 TIP3 H1   HT     0.417000        1.0080           0
   12826 TIP3 1640 TIP3 H2   HT     0.417000        1.0080           0
   12827 TIP3 1641 TIP3 OH2  OT    -0.834000       15.9994           0
   12828 TIP3 1641 TIP3 H1   HT     0.417000        1.0080           0
   12829 TIP3 1641 TIP3 H2   HT     0.417000        1.0080           0
   12830 TIP3 1642 TIP3 OH2  OT    -0.834000       15.9994           0
   12831 TIP3 1642 TIP3 H1   HT     0.417000        1.0080           0
   12832 TIP3 1642 TIP3 H2   HT     0.417000        1.0080           0
   12833 TIP3 1643 TIP3 OH2  OT    -0.834000       15.9994           0
   12834 TIP3 1643 TIP3 H1   HT     0.417000        1.0080           0
   12835 TIP3 1643 TIP3 H2   HT     0.417000        1.0080           0
   12836 TIP3 1644 TIP3 OH2  OT    -0.834000       15.9994           0
   12837 TIP3 1644 TIP3 H1   HT     0.417000        1.0080           0
   12838 TIP3 1644 TIP3 H2   HT     0.417000        1.0080           0
   12839 TIP3 1645 TIP3 OH2  OT    -0.834000       15.9994           0
   12840 TIP3 1645 TIP3 H1   HT     0.417000        1.0080           0
   12841 TIP3 1645 TIP3 H2   HT     0.417000        1.0080           0
   12842 TIP3 1646 TIP3 OH2  OT    -0.834000       15.9994           0
   12843 TIP3 1646 TIP3 H1   HT     0.417000        1.0080           0
   12844 TIP3 1646 TIP3 H2   HT     0.417000        1.0080           0
   12845 TIP3 1647 TIP3 OH2  OT    -0.834000       15.9994           0
   12846 TIP3 1647 TIP3 H1   HT     0.417000        1.0080           0
   12847 TIP3 1647 TIP3 H2   HT     0.417000        1.0080           0
   12848 TIP3 1648 TIP3 OH2  OT    -0.834000       15.9994           0
   12849 TIP3 1648 TIP3 H1   HT     0.417000        1.0080           0
   12850 TIP3 1648 TIP3 H2   HT     0.417000        1.0080           0
   12851 TIP3 1649 TIP3 OH2  OT    -0.834000       15.9994           0
   12852 TIP3 1649 TIP3 H1   HT     0.417000        1.0080           0
   12853 TIP3 1649 TIP3 H2   HT     0.417000        1.0080           0
   12854 TIP3 1650 TIP3 OH2  OT    -0.834000       15.9994           0
   12855 TIP3 1650 TIP3 H1   HT     0.417000        1.0080           0
   12856 TIP3 1650 TIP3 H2   HT     0.417000        1.0080           0
   12857 TIP3 1651 TIP3 OH2  OT    -0.834000       15.9994           0
   12858 TIP3 1651 TIP3 H1   HT     0.417000        1.0080           0
   12859 TIP3 1651 TIP3 H2   HT     0.417000        1.0080           0
   12860 TIP3 1652 TIP3 OH2  OT    -0.834000       15.9994           0
   12861 TIP3 1652 TIP3 H1   HT     0.417000        1.0080           0
   12862 TIP3 1652 TIP3 H2   HT     0.417000        1.0080           0
   12863 TIP3 1653 TIP3 OH2  OT    -0.834000       15.9994           0
   12864 TIP3 1653 TIP3 H1   HT     0.417000        1.0080           0
   12865 TIP3 1653 TIP3 H2   HT     0.417000        1.0080           0
   12866 TIP3 1654 TIP3 OH2  OT    -0.834000       15.9994           0
   12867 TIP3 1654 TIP3 H1   HT     0.417000        1.0080           0
   12868 TIP3 1654 TIP3 H2   HT     0.417000        1.0080           0
   12869 TIP3 1655 TIP3 OH2  OT    -0.834000       15.9994           0
   12870 TIP3 1655 TIP3 H1   HT     0.417000        1.0080           0
   12871 TIP3 1655 TIP3 H2   HT     0.417000        1.0080           0
   12872 TIP3 1656 TIP3 OH2  OT    -0.834000       15.9994           0
   12873 TIP3 1656 TIP3 H1   HT     0.417000        1.0080           0
   12874 TIP3 1656 TIP3 H2   HT     0.417000        1.0080           0
   12875 TIP3 1657 TIP3 OH2  OT    -0.834000       15.9994           0
   12876 TIP3 1657 TIP3 H1   HT     0.417000        1.0080           0
   12877 TIP3 1657 TIP3 H2   HT     0.417000        1.0080           0
   12878 TIP3 1658 TIP3 OH2  OT    -0.834000       15.9994           0
   12879 TIP3 1658 TIP3 H1   HT     0.417000        1.0080           0
   12880 TIP3 1658 TIP3 H2   HT     0.417000        1.0080           0
   12881 TIP3 1659 TIP3 OH2  OT    -0.834000       15.9994           0
   12882 TIP3 1659 TIP3 H1   HT     0.417000        1.0080           0
   12883 TIP3 1659 TIP3 H2   HT     0.417000        1.0080           0
   12884 TIP3 1660 TIP3 OH2  OT    -0.834000       15.9994           0
   12885 TIP3 1660 TIP3 H1   HT     0.417000        1.0080           0
   12886 TIP3 1660 TIP3 H2   HT     0.417000        1.0080           0
   12887 TIP3 1661 TIP3 OH2  OT    -0.834000       15.9994           0
   12888 TIP3 1661 TIP3 H1   HT     0.417000        1.0080           0
   12889 TIP3 1661 TIP3 H2   HT     0.417000        1.0080           0
   12890 TIP3 1662 TIP3 OH2  OT    -0.834000       15.9994           0
   12891 TIP3 1662 TIP3 H1   HT     0.417000        1.0080           0
   12892 TIP3 1662 TIP3 H2   HT     0.417000        1.0080           0
   12893 TIP3 1663 TIP3 OH2  OT    -0.834000       15.9994           0
   12894 TIP3 1663 TIP3 H1   HT     0.417000        1.0080           0
   12895 TIP3 1663 TIP3 H2   HT     0.417000        1.0080           0
   12896 TIP3 1664 TIP3 OH2  OT    -0.834000       15.9994           0
   12897 TIP3 1664 TIP3 H1   HT     0.417000        1.0080           0
   12898 TIP3 1664 TIP3 H2   HT     0.417000        1.0080           0
   12899 TIP3 1665 TIP3 OH2  OT    -0.834000       15.9994           0
   12900 TIP3 1665 TIP3 H1   HT     0.417000        1.0080           0
   12901 TIP3 1665 TIP3 H2   HT     0.417000        1.0080           0
   12902 TIP3 1666 TIP3 OH2  OT    -0.834000       15.9994           0
   12903 TIP3 1666 TIP3 H1   HT     0.417000        1.0080           0
   12904 TIP3 1666 TIP3 H2   HT     0.417000        1.0080           0
   12905 TIP3 1667 TIP3 OH2  OT    -0.834000       15.9994           0
   12906 TIP3 1667 TIP3 H1   HT     0.417000        1.0080           0
   12907 TIP3 1667 TIP3 H2   HT     0.417000        1.0080           0
   12908 TIP3 1668 TIP3 OH2  OT    -0.834000       15.9994           0
   12909 TIP3 1668 TIP3 H1   HT     0.417000        1.0080           0
   12910 TIP3 1668 TIP3 H2   HT     0.417000        1.0080           0
   12911 TIP3 1669 TIP3 OH2  OT    -0.834000       15.9994           0
   12912 TIP3 1669 TIP3 H1   HT     0.417000        1.0080           0
   12913 TIP3 1669 TIP3 H2   HT     0.417000        1.0080           0
   12914 TIP3 1670 TIP3 OH2  OT    -0.834000       15.9994           0
   12915 TIP3 1670 TIP3 H1   HT     0.417000        1.0080           0
   12916 TIP3 1670 TIP3 H2   HT     0.417000        1.0080           0
   12917 TIP3 1671 TIP3 OH2  OT    -0.834000       15.9994           0
   12918 TIP3 1671 TIP3 H1   HT     0.417000        1.0080           0
   12919 TIP3 1671 TIP3 H2   HT     0.417000        1.0080           0
   12920 TIP3 1672 TIP3 OH2  OT    -0.834000       15.9994           0
   12921 TIP3 1672 TIP3 H1   HT     0.417000        1.0080           0
   12922 TIP3 1672 TIP3 H2   HT     0.417000        1.0080           0
   12923 TIP3 1673 TIP3 OH2  OT    -0.834000       15.9994           0
   12924 TIP3 1673 TIP3 H1   HT     0.417000        1.0080           0
   12925 TIP3 1673 TIP3 H2   HT     0.417000        1.0080           0
   12926 TIP3 1674 TIP3 OH2  OT    -0.834000       15.9994           0
   12927 TIP3 1674 TIP3 H1   HT     0.417000        1.0080           0
   12928 TIP3 1674 TIP3 H2   HT     0.417000        1.0080           0
   12929 TIP3 1675 TIP3 OH2  OT    -0.834000       15.9994           0
   12930 TIP3 1675 TIP3 H1   HT     0.417000        1.0080           0
   12931 TIP3 1675 TIP3 H2   HT     0.417000        1.0080           0
   12932 TIP3 1676 TIP3 OH2  OT    -0.834000       15.9994           0
   12933 TIP3 1676 TIP3 H1   HT     0.417000        1.0080           0
   12934 TIP3 1676 TIP3 H2   HT     0.417000        1.0080           0
   12935 TIP3 1677 TIP3 OH2  OT    -0.834000       15.9994           0
   12936 TIP3 1677 TIP3 H1   HT     0.417000        1.0080           0
   12937 TIP3 1677 TIP3 H2   HT     0.417000        1.0080           0
   12938 TIP3 1678 TIP3 OH2  OT    -0.834000       15.9994           0
   12939 TIP3 1678 TIP3 H1   HT     0.417000        1.0080           0
   12940 TIP3 1678 TIP3 H2   HT     0.417000        1.0080           0
   12941 TIP3 1679 TIP3 OH2  OT    -0.834000       15.9994           0
   12942 TIP3 1679 TIP3 H1   HT     0.417000        1.0080           0
   12943 TIP3 1679 TIP3 H2   HT     0.417000        1.0080           0
   12944 TIP3 1680 TIP3 OH2  OT    -0.834000       15.9994           0
   12945 TIP3 1680 TIP3 H1   HT     0.417000        1.0080           0
   12946 TIP3 1680 TIP3 H2   HT     0.417000        1.0080           0
   12947 TIP3 1681 TIP3 OH2  OT    -0.834000       15.9994           0
   12948 TIP3 1681 TIP3 H1   HT     0.417000        1.0080           0
   12949 TIP3 1681 TIP3 H2   HT     0.417000        1.0080           0
   12950 TIP3 1682 TIP3 OH2  OT    -0.834000       15.9994           0
   12951 TIP3 1682 TIP3 H1   HT     0.417000        1.0080           0
   12952 TIP3 1682 TIP3 H2   HT     0.417000        1.0080           0
   12953 TIP3 1683 TIP3 OH2  OT    -0.834000       15.9994           0
   12954 TIP3 1683 TIP3 H1   HT     0.417000        1.0080           0
   12955 TIP3 1683 TIP3 H2   HT     0.417000        1.0080           0
   12956 TIP3 1684 TIP3 OH2  OT    -0.834000       15.9994           0
   12957 TIP3 1684 TIP3 H1   HT     0.417000        1.0080           0
   12958 TIP3 1684 TIP3 H2   HT     0.417000        1.0080           0
   12959 TIP3 1685 TIP3 OH2  OT    -0.834000       15.9994           0
   12960 TIP3 1685 TIP3 H1   HT     0.417000        1.0080           0
   12961 TIP3 1685 TIP3 H2   HT     0.417000        1.0080           0
   12962 TIP3 1686 TIP3 OH2  OT    -0.834000       15.9994           0
   12963 TIP3 1686 TIP3 H1   HT     0.417000        1.0080           0
   12964 TIP3 1686 TIP3 H2   HT     0.417000        1.0080           0
   12965 TIP3 1687 TIP3 OH2  OT    -0.834000       15.9994           0
   12966 TIP3 1687 TIP3 H1   HT     0.417000        1.0080           0
   12967 TIP3 1687 TIP3 H2   HT     0.417000        1.0080           0
   12968 TIP3 1688 TIP3 OH2  OT    -0.834000       15.9994           0
   12969 TIP3 1688 TIP3 H1   HT     0.417000        1.0080           0
   12970 TIP3 1688 TIP3 H2   HT     0.417000        1.0080           0
   12971 TIP3 1689 TIP3 OH2  OT    -0.834000       15.9994           0
   12972 TIP3 1689 TIP3 H1   HT     0.417000        1.0080           0
   12973 TIP3 1689 TIP3 H2   HT     0.417000        1.0080           0
   12974 TIP3 1690 TIP3 OH2  OT    -0.834000       15.9994           0
   12975 TIP3 1690 TIP3 H1   HT     0.417000        1.0080           0
   12976 TIP3 1690 TIP3 H2   HT     0.417000        1.0080           0
   12977 TIP3 1691 TIP3 OH2  OT    -0.834000       15.9994           0
   12978 TIP3 1691 TIP3 H1   HT     0.417000        1.0080           0
   12979 TIP3 1691 TIP3 H2   HT     0.417000        1.0080           0
   12980 TIP3 1692 TIP3 OH2  OT    -0.834000       15.9994           0
   12981 TIP3 1692 TIP3 H1   HT     0.417000        1.0080           0
   12982 TIP3 1692 TIP3 H2   HT     0.417000        1.0080           0
   12983 TIP3 1693 TIP3 OH2  OT    -0.834000       15.9994           0
   12984 TIP3 1693 TIP3 H1   HT     0.417000        1.0080           0
   12985 TIP3 1693 TIP3 H2   HT     0.417000        1.0080           0
   12986 TIP3 1694 TIP3 OH2  OT    -0.834000       15.9994           0
   12987 TIP3 1694 TIP3 H1   HT     0.417000        1.0080           0
   12988 TIP3 1694 TIP3 H2   HT     0.417000        1.0080           0
   12989 TIP3 1695 TIP3 OH2  OT    -0.834000       15.9994           0
   12990 TIP3 1695 TIP3 H1   HT     0.417000        1.0080           0
   12991 TIP3 1695 TIP3 H2   HT     0.417000        1.0080           0
   12992 TIP3 1696 TIP3 OH2  OT    -0.834000       15.9994           0
   12993 TIP3 1696 TIP3 H1   HT     0.417000        1.0080           0
   12994 TIP3 1696 TIP3 H2   HT     0.417000        1.0080           0
   12995 TIP3 1697 TIP3 OH2  OT    -0.834000       15.9994           0
   12996 TIP3 1697 TIP3 H1   HT     0.417000        1.0080           0
   12997 TIP3 1697 TIP3 H2   HT     0.417000        1.0080           0
   12998 TIP3 1698 TIP3 OH2  OT    -0.834000       15.9994           0
   12999 TIP3 1698 TIP3 H1   HT     0.417000        1.0080           0
   13000 TIP3 1698 TIP3 H2   HT     0.417000        1.0080           0
   13001 TIP3 1699 TIP3 OH2  OT    -0.834000       15.9994           0
   13002 TIP3 1699 TIP3 H1   HT     0.417000        1.0080           0
   13003 TIP3 1699 TIP3 H2   HT     0.417000        1.0080           0
   13004 TIP3 1700 TIP3 OH2  OT    -0.834000       15.9994           0
   13005 TIP3 1700 TIP3 H1   HT     0.417000        1.0080           0
   13006 TIP3 1700 TIP3 H2   HT     0.417000        1.0080           0
   13007 TIP3 1701 TIP3 OH2  OT    -0.834000       15.9994           0
   13008 TIP3 1701 TIP3 H1   HT     0.417000        1.0080           0
   13009 TIP3 1701 TIP3 H2   HT     0.417000        1.0080           0
   13010 TIP3 1702 TIP3 OH2  OT    -0.834000       15.9994           0
   13011 TIP3 1702 TIP3 H1   HT     0.417000        1.0080           0
   13012 TIP3 1702 TIP3 H2   HT     0.417000        1.0080           0
   13013 TIP3 1703 TIP3 OH2  OT    -0.834000       15.9994           0
   13014 TIP3 1703 TIP3 H1   HT     0.417000        1.0080           0
   13015 TIP3 1703 TIP3 H2   HT     0.417000        1.0080           0
   13016 TIP3 1704 TIP3 OH2  OT    -0.834000       15.9994           0
   13017 TIP3 1704 TIP3 H1   HT     0.417000        1.0080           0
   13018 TIP3 1704 TIP3 H2   HT     0.417000        1.0080           0
   13019 TIP3 1705 TIP3 OH2  OT    -0.834000       15.9994           0
   13020 TIP3 1705 TIP3 H1   HT     0.417000        1.0080           0
   13021 TIP3 1705 TIP3 H2   HT     0.417000        1.0080           0
   13022 TIP3 1706 TIP3 OH2  OT    -0.834000       15.9994           0
   13023 TIP3 1706 TIP3 H1   HT     0.417000        1.0080           0
   13024 TIP3 1706 TIP3 H2   HT     0.417000        1.0080           0
   13025 TIP3 1707 TIP3 OH2  OT    -0.834000       15.9994           0
   13026 TIP3 1707 TIP3 H1   HT     0.417000        1.0080           0
   13027 TIP3 1707 TIP3 H2   HT     0.417000        1.0080           0
   13028 TIP3 1708 TIP3 OH2  OT    -0.834000       15.9994           0
   13029 TIP3 1708 TIP3 H1   HT     0.417000        1.0080           0
   13030 TIP3 1708 TIP3 H2   HT     0.417000        1.0080           0
   13031 TIP3 1709 TIP3 OH2  OT    -0.834000       15.9994           0
   13032 TIP3 1709 TIP3 H1   HT     0.417000        1.0080           0
   13033 TIP3 1709 TIP3 H2   HT     0.417000        1.0080           0
   13034 TIP3 1710 TIP3 OH2  OT    -0.834000       15.9994           0
   13035 TIP3 1710 TIP3 H1   HT     0.417000        1.0080           0
   13036 TIP3 1710 TIP3 H2   HT     0.417000        1.0080           0
   13037 TIP3 1711 TIP3 OH2  OT    -0.834000       15.9994           0
   13038 TIP3 1711 TIP3 H1   HT     0.417000        1.0080           0
   13039 TIP3 1711 TIP3 H2   HT     0.417000        1.0080           0
   13040 TIP3 1712 TIP3 OH2  OT    -0.834000       15.9994           0
   13041 TIP3 1712 TIP3 H1   HT     0.417000        1.0080           0
   13042 TIP3 1712 TIP3 H2   HT     0.417000        1.0080           0
   13043 TIP3 1713 TIP3 OH2  OT    -0.834000       15.9994           0
   13044 TIP3 1713 TIP3 H1   HT     0.417000        1.0080           0
   13045 TIP3 1713 TIP3 H2   HT     0.417000        1.0080           0
   13046 TIP3 1714 TIP3 OH2  OT    -0.834000       15.9994           0
   13047 TIP3 1714 TIP3 H1   HT     0.417000        1.0080           0
   13048 TIP3 1714 TIP3 H2   HT     0.417000        1.0080           0
   13049 TIP3 1715 TIP3 OH2  OT    -0.834000       15.9994           0
   13050 TIP3 1715 TIP3 H1   HT     0.417000        1.0080           0
   13051 TIP3 1715 TIP3 H2   HT     0.417000        1.0080           0
   13052 TIP3 1716 TIP3 OH2  OT    -0.834000       15.9994           0
   13053 TIP3 1716 TIP3 H1   HT     0.417000        1.0080           0
   13054 TIP3 1716 TIP3 H2   HT     0.417000        1.0080           0
   13055 TIP3 1717 TIP3 OH2  OT    -0.834000       15.9994           0
   13056 TIP3 1717 TIP3 H1   HT     0.417000        1.0080           0
   13057 TIP3 1717 TIP3 H2   HT     0.417000        1.0080           0
   13058 TIP3 1718 TIP3 OH2  OT    -0.834000       15.9994           0
   13059 TIP3 1718 TIP3 H1   HT     0.417000        1.0080           0
   13060 TIP3 1718 TIP3 H2   HT     0.417000        1.0080           0
   13061 TIP3 1719 TIP3 OH2  OT    -0.834000       15.9994           0
   13062 TIP3 1719 TIP3 H1   HT     0.417000        1.0080           0
   13063 TIP3 1719 TIP3 H2   HT     0.417000        1.0080           0
   13064 TIP3 1720 TIP3 OH2  OT    -0.834000       15.9994           0
   13065 TIP3 1720 TIP3 H1   HT     0.417000        1.0080           0
   13066 TIP3 1720 TIP3 H2   HT     0.417000        1.0080           0
   13067 TIP3 1721 TIP3 OH2  OT    -0.834000       15.9994           0
   13068 TIP3 1721 TIP3 H1   HT     0.417000        1.0080           0
   13069 TIP3 1721 TIP3 H2   HT     0.417000        1.0080           0
   13070 TIP3 1722 TIP3 OH2  OT    -0.834000       15.9994           0
   13071 TIP3 1722 TIP3 H1   HT     0.417000        1.0080           0
   13072 TIP3 1722 TIP3 H2   HT     0.417000        1.0080           0
   13073 TIP3 1723 TIP3 OH2  OT    -0.834000       15.9994           0
   13074 TIP3 1723 TIP3 H1   HT     0.417000        1.0080           0
   13075 TIP3 1723 TIP3 H2   HT     0.417000        1.0080           0
   13076 TIP3 1724 TIP3 OH2  OT    -0.834000       15.9994           0
   13077 TIP3 1724 TIP3 H1   HT     0.417000        1.0080           0
   13078 TIP3 1724 TIP3 H2   HT     0.417000        1.0080           0
   13079 TIP3 1725 TIP3 OH2  OT    -0.834000       15.9994           0
   13080 TIP3 1725 TIP3 H1   HT     0.417000        1.0080           0
   13081 TIP3 1725 TIP3 H2   HT     0.417000        1.0080           0
   13082 TIP3 1726 TIP3 OH2  OT    -0.834000       15.9994           0
   13083 TIP3 1726 TIP3 H1   HT     0.417000        1.0080           0
   13084 TIP3 1726 TIP3 H2   HT     0.417000        1.0080           0
   13085 TIP3 1727 TIP3 OH2  OT    -0.834000       15.9994           0
   13086 TIP3 1727 TIP3 H1   HT     0.417000        1.0080           0
   13087 TIP3 1727 TIP3 H2   HT     0.417000        1.0080           0
   13088 TIP3 1728 TIP3 OH2  OT    -0.834000       15.9994           0
   13089 TIP3 1728 TIP3 H1   HT     0.417000        1.0080           0
   13090 TIP3 1728 TIP3 H2   HT     0.417000        1.0080           0
   13091 TIP3 1729 TIP3 OH2  OT    -0.834000       15.9994           0
   13092 TIP3 1729 TIP3 H1   HT     0.417000        1.0080           0
   13093 TIP3 1729 TIP3 H2   HT     0.417000        1.0080           0
   13094 TIP3 1730 TIP3 OH2  OT    -0.834000       15.9994           0
   13095 TIP3 1730 TIP3 H1   HT     0.417000        1.0080           0
   13096 TIP3 1730 TIP3 H2   HT     0.417000        1.0080           0
   13097 TIP3 1731 TIP3 OH2  OT    -0.834000       15.9994           0
   13098 TIP3 1731 TIP3 H1   HT     0.417000        1.0080           0
   13099 TIP3 1731 TIP3 H2   HT     0.417000        1.0080           0
   13100 TIP3 1732 TIP3 OH2  OT    -0.834000       15.9994           0
   13101 TIP3 1732 TIP3 H1   HT     0.417000        1.0080           0
   13102 TIP3 1732 TIP3 H2   HT     0.417000        1.0080           0
   13103 TIP3 1733 TIP3 OH2  OT    -0.834000       15.9994           0
   13104 TIP3 1733 TIP3 H1   HT     0.417000        1.0080           0
   13105 TIP3 1733 TIP3 H2   HT     0.417000        1.0080           0
   13106 TIP3 1734 TIP3 OH2  OT    -0.834000       15.9994           0
   13107 TIP3 1734 TIP3 H1   HT     0.417000        1.0080           0
   13108 TIP3 1734 TIP3 H2   HT     0.417000        1.0080           0
   13109 TIP3 1735 TIP3 OH2  OT    -0.834000       15.9994           0
   13110 TIP3 1735 TIP3 H1   HT     0.417000        1.0080           0
   13111 TIP3 1735 TIP3 H2   HT     0.417000        1.0080           0
   13112 TIP3 1736 TIP3 OH2  OT    -0.834000       15.9994           0
   13113 TIP3 1736 TIP3 H1   HT     0.417000        1.0080           0
   13114 TIP3 1736 TIP3 H2   HT     0.417000        1.0080           0
   13115 TIP3 1737 TIP3 OH2  OT    -0.834000       15.9994           0
   13116 TIP3 1737 TIP3 H1   HT     0.417000        1.0080           0
   13117 TIP3 1737 TIP3 H2   HT     0.417000        1.0080           0
   13118 TIP3 1738 TIP3 OH2  OT    -0.834000       15.9994           0
   13119 TIP3 1738 TIP3 H1   HT     0.417000        1.0080           0
   13120 TIP3 1738 TIP3 H2   HT     0.417000        1.0080           0
   13121 TIP3 1739 TIP3 OH2  OT    -0.834000       15.9994           0
   13122 TIP3 1739 TIP3 H1   HT     0.417000        1.0080           0
   13123 TIP3 1739 TIP3 H2   HT     0.417000        1.0080           0
   13124 TIP3 1740 TIP3 OH2  OT    -0.834000       15.9994           0
   13125 TIP3 1740 TIP3 H1   HT     0.417000        1.0080           0
   13126 TIP3 1740 TIP3 H2   HT     0.417000        1.0080           0
   13127 TIP3 1741 TIP3 OH2  OT    -0.834000       15.9994           0
   13128 TIP3 1741 TIP3 H1   HT     0.417000        1.0080           0
   13129 TIP3 1741 TIP3 H2   HT     0.417000        1.0080           0
   13130 TIP3 1742 TIP3 OH2  OT    -0.834000       15.9994           0
   13131 TIP3 1742 TIP3 H1   HT     0.417000        1.0080           0
   13132 TIP3 1742 TIP3 H2   HT     0.417000        1.0080           0
   13133 TIP3 1743 TIP3 OH2  OT    -0.834000       15.9994           0
   13134 TIP3 1743 TIP3 H1   HT     0.417000        1.0080           0
   13135 TIP3 1743 TIP3 H2   HT     0.417000        1.0080           0
   13136 TIP3 1744 TIP3 OH2  OT    -0.834000       15.9994           0
   13137 TIP3 1744 TIP3 H1   HT     0.417000        1.0080           0
   13138 TIP3 1744 TIP3 H2   HT     0.417000        1.0080           0
   13139 TIP3 1745 TIP3 OH2  OT    -0.834000       15.9994           0
   13140 TIP3 1745 TIP3 H1   HT     0.417000        1.0080           0
   13141 TIP3 1745 TIP3 H2   HT     0.417000        1.0080           0
   13142 TIP3 1746 TIP3 OH2  OT    -0.834000       15.9994           0
   13143 TIP3 1746 TIP3 H1   HT     0.417000        1.0080           0
   13144 TIP3 1746 TIP3 H2   HT     0.417000        1.0080           0
   13145 TIP3 1747 TIP3 OH2  OT    -0.834000       15.9994           0
   13146 TIP3 1747 TIP3 H1   HT     0.417000        1.0080           0
   13147 TIP3 1747 TIP3 H2   HT     0.417000        1.0080           0
   13148 TIP3 1748 TIP3 OH2  OT    -0.834000       15.9994           0
   13149 TIP3 1748 TIP3 H1   HT     0.417000        1.0080           0
   13150 TIP3 1748 TIP3 H2   HT     0.417000        1.0080           0
   13151 TIP3 1749 TIP3 OH2  OT    -0.834000       15.9994           0
   13152 TIP3 1749 TIP3 H1   HT     0.417000        1.0080           0
   13153 TIP3 1749 TIP3 H2   HT     0.417000        1.0080           0
   13154 TIP3 1750 TIP3 OH2  OT    -0.834000       15.9994           0
   13155 TIP3 1750 TIP3 H1   HT     0.417000        1.0080           0
   13156 TIP3 1750 TIP3 H2   HT     0.417000        1.0080           0
   13157 TIP3 1751 TIP3 OH2  OT    -0.834000       15.9994           0
   13158 TIP3 1751 TIP3 H1   HT     0.417000        1.0080           0
   13159 TIP3 1751 TIP3 H2   HT     0.417000        1.0080           0
   13160 TIP3 1752 TIP3 OH2  OT    -0.834000       15.9994           0
   13161 TIP3 1752 TIP3 H1   HT     0.417000        1.0080           0
   13162 TIP3 1752 TIP3 H2   HT     0.417000        1.0080           0
   13163 TIP3 1753 TIP3 OH2  OT    -0.834000       15.9994           0
   13164 TIP3 1753 TIP3 H1   HT     0.417000        1.0080           0
   13165 TIP3 1753 TIP3 H2   HT     0.417000        1.0080           0
   13166 TIP3 1754 TIP3 OH2  OT    -0.834000       15.9994           0
   13167 TIP3 1754 TIP3 H1   HT     0.417000        1.0080           0
   13168 TIP3 1754 TIP3 H2   HT     0.417000        1.0080           0
   13169 TIP3 1755 TIP3 OH2  OT    -0.834000       15.9994           0
   13170 TIP3 1755 TIP3 H1   HT     0.417000        1.0080           0
   13171 TIP3 1755 TIP3 H2   HT     0.417000        1.0080           0
   13172 TIP3 1756 TIP3 OH2  OT    -0.834000       15.9994           0
   13173 TIP3 1756 TIP3 H1   HT     0.417000        1.0080           0
   13174 TIP3 1756 TIP3 H2   HT     0.417000        1.0080           0
   13175 TIP3 1757 TIP3 OH2  OT    -0.834000       15.9994           0
   13176 TIP3 1757 TIP3 H1   HT     0.417000        1.0080           0
   13177 TIP3 1757 TIP3 H2   HT     0.417000        1.0080           0
   13178 TIP3 1758 TIP3 OH2  OT    -0.834000       15.9994           0
   13179 TIP3 1758 TIP3 H1   HT     0.417000        1.0080           0
   13180 TIP3 1758 TIP3 H2   HT     0.417000        1.0080           0
   13181 TIP3 1759 TIP3 OH2  OT    -0.834000       15.9994           0
   13182 TIP3 1759 TIP3 H1   HT     0.417000        1.0080           0
   13183 TIP3 1759 TIP3 H2   HT     0.417000        1.0080           0
   13184 TIP3 1760 TIP3 OH2  OT    -0.834000       15.9994           0
   13185 TIP3 1760 TIP3 H1   HT     0.417000        1.0080           0
   13186 TIP3 1760 TIP3 H2   HT     0.417000        1.0080           0
   13187 TIP3 1761 TIP3 OH2  OT    -0.834000       15.9994           0
   13188 TIP3 1761 TIP3 H1   HT     0.417000        1.0080           0
   13189 TIP3 1761 TIP3 H2   HT     0.417000        1.0080           0
   13190 TIP3 1762 TIP3 OH2  OT    -0.834000       15.9994           0
   13191 TIP3 1762 TIP3 H1   HT     0.417000        1.0080           0
   13192 TIP3 1762 TIP3 H2   HT     0.417000        1.0080           0
   13193 TIP3 1763 TIP3 OH2  OT    -0.834000       15.9994           0
   13194 TIP3 1763 TIP3 H1   HT     0.417000        1.0080           0
   13195 TIP3 1763 TIP3 H2   HT     0.417000        1.0080           0
   13196 TIP3 1764 TIP3 OH2  OT    -0.834000       15.9994           0
   13197 TIP3 1764 TIP3 H1   HT     0.417000        1.0080           0
   13198 TIP3 1764 TIP3 H2   HT     0.417000        1.0080           0
   13199 TIP3 1765 TIP3 OH2  OT    -0.834000       15.9994           0
   13200 TIP3 1765 TIP3 H1   HT     0.417000        1.0080           0
   13201 TIP3 1765 TIP3 H2   HT     0.417000        1.0080           0
   13202 TIP3 1766 TIP3 OH2  OT    -0.834000       15.9994           0
   13203 TIP3 1766 TIP3 H1   HT     0.417000        1.0080           0
   13204 TIP3 1766 TIP3 H2   HT     0.417000        1.0080           0
   13205 TIP3 1767 TIP3 OH2  OT    -0.834000       15.9994           0
   13206 TIP3 1767 TIP3 H1   HT     0.417000        1.0080           0
   13207 TIP3 1767 TIP3 H2   HT     0.417000        1.0080           0
   13208 TIP3 1768 TIP3 OH2  OT    -0.834000       15.9994           0
   13209 TIP3 1768 TIP3 H1   HT     0.417000        1.0080           0
   13210 TIP3 1768 TIP3 H2   HT     0.417000        1.0080           0
   13211 TIP3 1769 TIP3 OH2  OT    -0.834000       15.9994           0
   13212 TIP3 1769 TIP3 H1   HT     0.417000        1.0080           0
   13213 TIP3 1769 TIP3 H2   HT     0.417000        1.0080           0
   13214 TIP3 1770 TIP3 OH2  OT    -0.834000       15.9994           0
   13215 TIP3 1770 TIP3 H1   HT     0.417000        1.0080           0
   13216 TIP3 1770 TIP3 H2   HT     0.417000        1.0080           0
   13217 TIP3 1771 TIP3 OH2  OT    -0.834000       15.9994           0
   13218 TIP3 1771 TIP3 H1   HT     0.417000        1.0080           0
   13219 TIP3 1771 TIP3 H2   HT     0.417000        1.0080           0
   13220 TIP3 1772 TIP3 OH2  OT    -0.834000       15.9994           0
   13221 TIP3 1772 TIP3 H1   HT     0.417000        1.0080           0
   13222 TIP3 1772 TIP3 H2   HT     0.417000        1.0080           0
   13223 TIP3 1773 TIP3 OH2  OT    -0.834000       15.9994           0
   13224 TIP3 1773 TIP3 H1   HT     0.417000        1.0080           0
   13225 TIP3 1773 TIP3 H2   HT     0.417000        1.0080           0
   13226 TIP3 1774 TIP3 OH2  OT    -0.834000       15.9994           0
   13227 TIP3 1774 TIP3 H1   HT     0.417000        1.0080           0
   13228 TIP3 1774 TIP3 H2   HT     0.417000        1.0080           0
   13229 TIP3 1775 TIP3 OH2  OT    -0.834000       15.9994           0
   13230 TIP3 1775 TIP3 H1   HT     0.417000        1.0080           0
   13231 TIP3 1775 TIP3 H2   HT     0.417000        1.0080           0
   13232 TIP3 1776 TIP3 OH2  OT    -0.834000       15.9994           0
   13233 TIP3 1776 TIP3 H1   HT     0.417000        1.0080           0
   13234 TIP3 1776 TIP3 H2   HT     0.417000        1.0080           0
   13235 TIP3 1777 TIP3 OH2  OT    -0.834000       15.9994           0
   13236 TIP3 1777 TIP3 H1   HT     0.417000        1.0080           0
   13237 TIP3 1777 TIP3 H2   HT     0.417000        1.0080           0
   13238 TIP3 1778 TIP3 OH2  OT    -0.834000       15.9994           0
   13239 TIP3 1778 TIP3 H1   HT     0.417000        1.0080           0
   13240 TIP3 1778 TIP3 H2   HT     0.417000        1.0080           0
   13241 TIP3 1779 TIP3 OH2  OT    -0.834000       15.9994           0
   13242 TIP3 1779 TIP3 H1   HT     0.417000        1.0080           0
   13243 TIP3 1779 TIP3 H2   HT     0.417000        1.0080           0
   13244 TIP3 1780 TIP3 OH2  OT    -0.834000       15.9994           0
   13245 TIP3 1780 TIP3 H1   HT     0.417000        1.0080           0
   13246 TIP3 1780 TIP3 H2   HT     0.417000        1.0080           0
   13247 TIP3 1781 TIP3 OH2  OT    -0.834000       15.9994           0
   13248 TIP3 1781 TIP3 H1   HT     0.417000        1.0080           0
   13249 TIP3 1781 TIP3 H2   HT     0.417000        1.0080           0
   13250 TIP3 1782 TIP3 OH2  OT    -0.834000       15.9994           0
   13251 TIP3 1782 TIP3 H1   HT     0.417000        1.0080           0
   13252 TIP3 1782 TIP3 H2   HT     0.417000        1.0080           0
   13253 TIP3 1783 TIP3 OH2  OT    -0.834000       15.9994           0
   13254 TIP3 1783 TIP3 H1   HT     0.417000        1.0080           0
   13255 TIP3 1783 TIP3 H2   HT     0.417000        1.0080           0
   13256 TIP3 1784 TIP3 OH2  OT    -0.834000       15.9994           0
   13257 TIP3 1784 TIP3 H1   HT     0.417000        1.0080           0
   13258 TIP3 1784 TIP3 H2   HT     0.417000        1.0080           0
   13259 TIP3 1785 TIP3 OH2  OT    -0.834000       15.9994           0
   13260 TIP3 1785 TIP3 H1   HT     0.417000        1.0080           0
   13261 TIP3 1785 TIP3 H2   HT     0.417000        1.0080           0
   13262 TIP3 1786 TIP3 OH2  OT    -0.834000       15.9994           0
   13263 TIP3 1786 TIP3 H1   HT     0.417000        1.0080           0
   13264 TIP3 1786 TIP3 H2   HT     0.417000        1.0080           0
   13265 TIP3 1787 TIP3 OH2  OT    -0.834000       15.9994           0
   13266 TIP3 1787 TIP3 H1   HT     0.417000        1.0080           0
   13267 TIP3 1787 TIP3 H2   HT     0.417000        1.0080           0
   13268 TIP3 1788 TIP3 OH2  OT    -0.834000       15.9994           0
   13269 TIP3 1788 TIP3 H1   HT     0.417000        1.0080           0
   13270 TIP3 1788 TIP3 H2   HT     0.417000        1.0080           0
   13271 TIP3 1789 TIP3 OH2  OT    -0.834000       15.9994           0
   13272 TIP3 1789 TIP3 H1   HT     0.417000        1.0080           0
   13273 TIP3 1789 TIP3 H2   HT     0.417000        1.0080           0
   13274 TIP3 1790 TIP3 OH2  OT    -0.834000       15.9994           0
   13275 TIP3 1790 TIP3 H1   HT     0.417000        1.0080           0
   13276 TIP3 1790 TIP3 H2   HT     0.417000        1.0080           0
   13277 TIP3 1791 TIP3 OH2  OT    -0.834000       15.9994           0
   13278 TIP3 1791 TIP3 H1   HT     0.417000        1.0080           0
   13279 TIP3 1791 TIP3 H2   HT     0.417000        1.0080           0
   13280 TIP3 1792 TIP3 OH2  OT    -0.834000       15.9994           0
   13281 TIP3 1792 TIP3 H1   HT     0.417000        1.0080           0
   13282 TIP3 1792 TIP3 H2   HT     0.417000        1.0080           0
   13283 TIP3 1793 TIP3 OH2  OT    -0.834000       15.9994           0
   13284 TIP3 1793 TIP3 H1   HT     0.417000        1.0080           0
   13285 TIP3 1793 TIP3 H2   HT     0.417000        1.0080           0
   13286 TIP3 1794 TIP3 OH2  OT    -0.834000       15.9994           0
   13287 TIP3 1794 TIP3 H1   HT     0.417000        1.0080           0
   13288 TIP3 1794 TIP3 H2   HT     0.417000        1.0080           0
   13289 TIP3 1795 TIP3 OH2  OT    -0.834000       15.9994           0
   13290 TIP3 1795 TIP3 H1   HT     0.417000        1.0080           0
   13291 TIP3 1795 TIP3 H2   HT     0.417000        1.0080           0
   13292 TIP3 1796 TIP3 OH2  OT    -0.834000       15.9994           0
   13293 TIP3 1796 TIP3 H1   HT     0.417000        1.0080           0
   13294 TIP3 1796 TIP3 H2   HT     0.417000        1.0080           0
   13295 TIP3 1797 TIP3 OH2  OT    -0.834000       15.9994           0
   13296 TIP3 1797 TIP3 H1   HT     0.417000        1.0080           0
   13297 TIP3 1797 TIP3 H2   HT     0.417000        1.0080           0
   13298 TIP3 1798 TIP3 OH2  OT    -0.834000       15.9994           0
   13299 TIP3 1798 TIP3 H1   HT     0.417000        1.0080           0
   13300 TIP3 1798 TIP3 H2   HT     0.417000        1.0080           0
   13301 TIP3 1799 TIP3 OH2  OT    -0.834000       15.9994           0
   13302 TIP3 1799 TIP3 H1   HT     0.417000        1.0080           0
   13303 TIP3 1799 TIP3 H2   HT     0.417000        1.0080           0
   13304 TIP3 1800 TIP3 OH2  OT    -0.834000       15.9994           0
   13305 TIP3 1800 TIP3 H1   HT     0.417000        1.0080           0
   13306 TIP3 1800 TIP3 H2   HT     0.417000        1.0080           0
   13307 TIP3 1801 TIP3 OH2  OT    -0.834000       15.9994           0
   13308 TIP3 1801 TIP3 H1   HT     0.417000        1.0080           0
   13309 TIP3 1801 TIP3 H2   HT     0.417000        1.0080           0
   13310 TIP3 1802 TIP3 OH2  OT    -0.834000       15.9994           0
   13311 TIP3 1802 TIP3 H1   HT     0.417000        1.0080           0
   13312 TIP3 1802 TIP3 H2   HT     0.417000        1.0080           0
   13313 TIP3 1803 TIP3 OH2  OT    -0.834000       15.9994           0
   13314 TIP3 1803 TIP3 H1   HT     0.417000        1.0080           0
   13315 TIP3 1803 TIP3 H2   HT     0.417000        1.0080           0
   13316 TIP3 1804 TIP3 OH2  OT    -0.834000       15.9994           0
   13317 TIP3 1804 TIP3 H1   HT     0.417000        1.0080           0
   13318 TIP3 1804 TIP3 H2   HT     0.417000        1.0080           0
   13319 TIP3 1805 TIP3 OH2  OT    -0.834000       15.9994           0
   13320 TIP3 1805 TIP3 H1   HT     0.417000        1.0080           0
   13321 TIP3 1805 TIP3 H2   HT     0.417000        1.0080           0
   13322 TIP3 1806 TIP3 OH2  OT    -0.834000       15.9994           0
   13323 TIP3 1806 TIP3 H1   HT     0.417000        1.0080           0
   13324 TIP3 1806 TIP3 H2   HT     0.417000        1.0080           0
   13325 TIP3 1807 TIP3 OH2  OT    -0.834000       15.9994           0
   13326 TIP3 1807 TIP3 H1   HT     0.417000        1.0080           0
   13327 TIP3 1807 TIP3 H2   HT     0.417000        1.0080           0
   13328 TIP3 1808 TIP3 OH2  OT    -0.834000       15.9994           0
   13329 TIP3 1808 TIP3 H1   HT     0.417000        1.0080           0
   13330 TIP3 1808 TIP3 H2   HT     0.417000        1.0080           0
   13331 TIP3 1809 TIP3 OH2  OT    -0.834000       15.9994           0
   13332 TIP3 1809 TIP3 H1   HT     0.417000        1.0080           0
   13333 TIP3 1809 TIP3 H2   HT     0.417000        1.0080           0
   13334 TIP3 1810 TIP3 OH2  OT    -0.834000       15.9994           0
   13335 TIP3 1810 TIP3 H1   HT     0.417000        1.0080           0
   13336 TIP3 1810 TIP3 H2   HT     0.417000        1.0080           0
   13337 TIP3 1811 TIP3 OH2  OT    -0.834000       15.9994           0
   13338 TIP3 1811 TIP3 H1   HT     0.417000        1.0080           0
   13339 TIP3 1811 TIP3 H2   HT     0.417000        1.0080           0
   13340 TIP3 1812 TIP3 OH2  OT    -0.834000       15.9994           0
   13341 TIP3 1812 TIP3 H1   HT     0.417000        1.0080           0
   13342 TIP3 1812 TIP3 H2   HT     0.417000        1.0080           0
   13343 TIP3 1813 TIP3 OH2  OT    -0.834000       15.9994           0
   13344 TIP3 1813 TIP3 H1   HT     0.417000        1.0080           0
   13345 TIP3 1813 TIP3 H2   HT     0.417000        1.0080           0
   13346 TIP3 1814 TIP3 OH2  OT    -0.834000       15.9994           0
   13347 TIP3 1814 TIP3 H1   HT     0.417000        1.0080           0
   13348 TIP3 1814 TIP3 H2   HT     0.417000        1.0080           0
   13349 TIP3 1815 TIP3 OH2  OT    -0.834000       15.9994           0
   13350 TIP3 1815 TIP3 H1   HT     0.417000        1.0080           0
   13351 TIP3 1815 TIP3 H2   HT     0.417000        1.0080           0
   13352 TIP3 1816 TIP3 OH2  OT    -0.834000       15.9994           0
   13353 TIP3 1816 TIP3 H1   HT     0.417000        1.0080           0
   13354 TIP3 1816 TIP3 H2   HT     0.417000        1.0080           0
   13355 TIP3 1817 TIP3 OH2  OT    -0.834000       15.9994           0
   13356 TIP3 1817 TIP3 H1   HT     0.417000        1.0080           0
   13357 TIP3 1817 TIP3 H2   HT     0.417000        1.0080           0
   13358 TIP3 1818 TIP3 OH2  OT    -0.834000       15.9994           0
   13359 TIP3 1818 TIP3 H1   HT     0.417000        1.0080           0
   13360 TIP3 1818 TIP3 H2   HT     0.417000        1.0080           0
   13361 TIP3 1819 TIP3 OH2  OT    -0.834000       15.9994           0
   13362 TIP3 1819 TIP3 H1   HT     0.417000        1.0080           0
   13363 TIP3 1819 TIP3 H2   HT     0.417000        1.0080           0
   13364 TIP3 1820 TIP3 OH2  OT    -0.834000       15.9994           0
   13365 TIP3 1820 TIP3 H1   HT     0.417000        1.0080           0
   13366 TIP3 1820 TIP3 H2   HT     0.417000        1.0080           0
   13367 TIP3 1821 TIP3 OH2  OT    -0.834000       15.9994           0
   13368 TIP3 1821 TIP3 H1   HT     0.417000        1.0080           0
   13369 TIP3 1821 TIP3 H2   HT     0.417000        1.0080           0
   13370 TIP3 1822 TIP3 OH2  OT    -0.834000       15.9994           0
   13371 TIP3 1822 TIP3 H1   HT     0.417000        1.0080           0
   13372 TIP3 1822 TIP3 H2   HT     0.417000        1.0080           0
   13373 TIP3 1823 TIP3 OH2  OT    -0.834000       15.9994           0
   13374 TIP3 1823 TIP3 H1   HT     0.417000        1.0080           0
   13375 TIP3 1823 TIP3 H2   HT     0.417000        1.0080           0
   13376 TIP3 1824 TIP3 OH2  OT    -0.834000       15.9994           0
   13377 TIP3 1824 TIP3 H1   HT     0.417000        1.0080           0
   13378 TIP3 1824 TIP3 H2   HT     0.417000        1.0080           0
   13379 TIP3 1825 TIP3 OH2  OT    -0.834000       15.9994           0
   13380 TIP3 1825 TIP3 H1   HT     0.417000        1.0080           0
   13381 TIP3 1825 TIP3 H2   HT     0.417000        1.0080           0
   13382 TIP3 1826 TIP3 OH2  OT    -0.834000       15.9994           0
   13383 TIP3 1826 TIP3 H1   HT     0.417000        1.0080           0
   13384 TIP3 1826 TIP3 H2   HT     0.417000        1.0080           0
   13385 TIP3 1827 TIP3 OH2  OT    -0.834000       15.9994           0
   13386 TIP3 1827 TIP3 H1   HT     0.417000        1.0080           0
   13387 TIP3 1827 TIP3 H2   HT     0.417000        1.0080           0
   13388 TIP3 1828 TIP3 OH2  OT    -0.834000       15.9994           0
   13389 TIP3 1828 TIP3 H1   HT     0.417000        1.0080           0
   13390 TIP3 1828 TIP3 H2   HT     0.417000        1.0080           0
   13391 TIP3 1829 TIP3 OH2  OT    -0.834000       15.9994           0
   13392 TIP3 1829 TIP3 H1   HT     0.417000        1.0080           0
   13393 TIP3 1829 TIP3 H2   HT     0.417000        1.0080           0
   13394 TIP3 1830 TIP3 OH2  OT    -0.834000       15.9994           0
   13395 TIP3 1830 TIP3 H1   HT     0.417000        1.0080           0
   13396 TIP3 1830 TIP3 H2   HT     0.417000        1.0080           0
   13397 TIP3 1831 TIP3 OH2  OT    -0.834000       15.9994           0
   13398 TIP3 1831 TIP3 H1   HT     0.417000        1.0080           0
   13399 TIP3 1831 TIP3 H2   HT     0.417000        1.0080           0
   13400 TIP3 1832 TIP3 OH2  OT    -0.834000       15.9994           0
   13401 TIP3 1832 TIP3 H1   HT     0.417000        1.0080           0
   13402 TIP3 1832 TIP3 H2   HT     0.417000        1.0080           0
   13403 TIP3 1833 TIP3 OH2  OT    -0.834000       15.9994           0
   13404 TIP3 1833 TIP3 H1   HT     0.417000        1.0080           0
   13405 TIP3 1833 TIP3 H2   HT     0.417000        1.0080           0
   13406 TIP3 1834 TIP3 OH2  OT    -0.834000       15.9994           0
   13407 TIP3 1834 TIP3 H1   HT     0.417000        1.0080           0
   13408 TIP3 1834 TIP3 H2   HT     0.417000        1.0080           0
   13409 TIP3 1835 TIP3 OH2  OT    -0.834000       15.9994           0
   13410 TIP3 1835 TIP3 H1   HT     0.417000        1.0080           0
   13411 TIP3 1835 TIP3 H2   HT     0.417000        1.0080           0
   13412 TIP3 1836 TIP3 OH2  OT    -0.834000       15.9994           0
   13413 TIP3 1836 TIP3 H1   HT     0.417000        1.0080           0
   13414 TIP3 1836 TIP3 H2   HT     0.417000        1.0080           0
   13415 TIP3 1837 TIP3 OH2  OT    -0.834000       15.9994           0
   13416 TIP3 1837 TIP3 H1   HT     0.417000        1.0080           0
   13417 TIP3 1837 TIP3 H2   HT     0.417000        1.0080           0
   13418 TIP3 1838 TIP3 OH2  OT    -0.834000       15.9994           0
   13419 TIP3 1838 TIP3 H1   HT     0.417000        1.0080           0
   13420 TIP3 1838 TIP3 H2   HT     0.417000        1.0080           0
   13421 TIP3 1839 TIP3 OH2  OT    -0.834000       15.9994           0
   13422 TIP3 1839 TIP3 H1   HT     0.417000        1.0080           0
   13423 TIP3 1839 TIP3 H2   HT     0.417000        1.0080           0
   13424 TIP3 1840 TIP3 OH2  OT    -0.834000       15.9994           0
   13425 TIP3 1840 TIP3 H1   HT     0.417000        1.0080           0
   13426 TIP3 1840 TIP3 H2   HT     0.417000        1.0080           0
   13427 TIP3 1841 TIP3 OH2  OT    -0.834000       15.9994           0
   13428 TIP3 1841 TIP3 H1   HT     0.417000        1.0080           0
   13429 TIP3 1841 TIP3 H2   HT     0.417000        1.0080           0
   13430 TIP3 1842 TIP3 OH2  OT    -0.834000       15.9994           0
   13431 TIP3 1842 TIP3 H1   HT     0.417000        1.0080           0
   13432 TIP3 1842 TIP3 H2   HT     0.417000        1.0080           0
   13433 TIP3 1843 TIP3 OH2  OT    -0.834000       15.9994           0
   13434 TIP3 1843 TIP3 H1   HT     0.417000        1.0080           0
   13435 TIP3 1843 TIP3 H2   HT     0.417000        1.0080           0
   13436 TIP3 1844 TIP3 OH2  OT    -0.834000       15.9994           0
   13437 TIP3 1844 TIP3 H1   HT     0.417000        1.0080           0
   13438 TIP3 1844 TIP3 H2   HT     0.417000        1.0080           0
   13439 TIP3 1845 TIP3 OH2  OT    -0.834000       15.9994           0
   13440 TIP3 1845 TIP3 H1   HT     0.417000        1.0080           0
   13441 TIP3 1845 TIP3 H2   HT     0.417000        1.0080           0
   13442 TIP3 1846 TIP3 OH2  OT    -0.834000       15.9994           0
   13443 TIP3 1846 TIP3 H1   HT     0.417000        1.0080           0
   13444 TIP3 1846 TIP3 H2   HT     0.417000        1.0080           0
   13445 TIP3 1847 TIP3 OH2  OT    -0.834000       15.9994           0
   13446 TIP3 1847 TIP3 H1   HT     0.417000        1.0080           0
   13447 TIP3 1847 TIP3 H2   HT     0.417000        1.0080           0
   13448 TIP3 1848 TIP3 OH2  OT    -0.834000       15.9994           0
   13449 TIP3 1848 TIP3 H1   HT     0.417000        1.0080           0
   13450 TIP3 1848 TIP3 H2   HT     0.417000        1.0080           0
   13451 TIP3 1849 TIP3 OH2  OT    -0.834000       15.9994           0
   13452 TIP3 1849 TIP3 H1   HT     0.417000        1.0080           0
   13453 TIP3 1849 TIP3 H2   HT     0.417000        1.0080           0
   13454 TIP3 1850 TIP3 OH2  OT    -0.834000       15.9994           0
   13455 TIP3 1850 TIP3 H1   HT     0.417000        1.0080           0
   13456 TIP3 1850 TIP3 H2   HT     0.417000        1.0080           0
   13457 TIP3 1851 TIP3 OH2  OT    -0.834000       15.9994           0
   13458 TIP3 1851 TIP3 H1   HT     0.417000        1.0080           0
   13459 TIP3 1851 TIP3 H2   HT     0.417000        1.0080           0
   13460 TIP3 1852 TIP3 OH2  OT    -0.834000       15.9994           0
   13461 TIP3 1852 TIP3 H1   HT     0.417000        1.0080           0
   13462 TIP3 1852 TIP3 H2   HT     0.417000        1.0080           0
   13463 TIP3 1853 TIP3 OH2  OT    -0.834000       15.9994           0
   13464 TIP3 1853 TIP3 H1   HT     0.417000        1.0080           0
   13465 TIP3 1853 TIP3 H2   HT     0.417000        1.0080           0
   13466 TIP3 1854 TIP3 OH2  OT    -0.834000       15.9994           0
   13467 TIP3 1854 TIP3 H1   HT     0.417000        1.0080           0
   13468 TIP3 1854 TIP3 H2   HT     0.417000        1.0080           0
   13469 TIP3 1855 TIP3 OH2  OT    -0.834000       15.9994           0
   13470 TIP3 1855 TIP3 H1   HT     0.417000        1.0080           0
   13471 TIP3 1855 TIP3 H2   HT     0.417000        1.0080           0
   13472 TIP3 1856 TIP3 OH2  OT    -0.834000       15.9994           0
   13473 TIP3 1856 TIP3 H1   HT     0.417000        1.0080           0
   13474 TIP3 1856 TIP3 H2   HT     0.417000        1.0080           0
   13475 TIP3 1857 TIP3 OH2  OT    -0.834000       15.9994           0
   13476 TIP3 1857 TIP3 H1   HT     0.417000        1.0080           0
   13477 TIP3 1857 TIP3 H2   HT     0.417000        1.0080           0
   13478 TIP3 1858 TIP3 OH2  OT    -0.834000       15.9994           0
   13479 TIP3 1858 TIP3 H1   HT     0.417000        1.0080           0
   13480 TIP3 1858 TIP3 H2   HT     0.417000        1.0080           0
   13481 TIP3 1859 TIP3 OH2  OT    -0.834000       15.9994           0
   13482 TIP3 1859 TIP3 H1   HT     0.417000        1.0080           0
   13483 TIP3 1859 TIP3 H2   HT     0.417000        1.0080           0
   13484 TIP3 1860 TIP3 OH2  OT    -0.834000       15.9994           0
   13485 TIP3 1860 TIP3 H1   HT     0.417000        1.0080           0
   13486 TIP3 1860 TIP3 H2   HT     0.417000        1.0080           0
   13487 TIP3 1861 TIP3 OH2  OT    -0.834000       15.9994           0
   13488 TIP3 1861 TIP3 H1   HT     0.417000        1.0080           0
   13489 TIP3 1861 TIP3 H2   HT     0.417000        1.0080           0
   13490 TIP3 1862 TIP3 OH2  OT    -0.834000       15.9994           0
   13491 TIP3 1862 TIP3 H1   HT     0.417000        1.0080           0
   13492 TIP3 1862 TIP3 H2   HT     0.417000        1.0080           0
   13493 TIP3 1863 TIP3 OH2  OT    -0.834000       15.9994           0
   13494 TIP3 1863 TIP3 H1   HT     0.417000        1.0080           0
   13495 TIP3 1863 TIP3 H2   HT     0.417000        1.0080           0
   13496 TIP3 1864 TIP3 OH2  OT    -0.834000       15.9994           0
   13497 TIP3 1864 TIP3 H1   HT     0.417000        1.0080           0
   13498 TIP3 1864 TIP3 H2   HT     0.417000        1.0080           0
   13499 TIP3 1865 TIP3 OH2  OT    -0.834000       15.9994           0
   13500 TIP3 1865 TIP3 H1   HT     0.417000        1.0080           0
   13501 TIP3 1865 TIP3 H2   HT     0.417000        1.0080           0
   13502 TIP3 1866 TIP3 OH2  OT    -0.834000       15.9994           0
   13503 TIP3 1866 TIP3 H1   HT     0.417000        1.0080           0
   13504 TIP3 1866 TIP3 H2   HT     0.417000        1.0080           0
   13505 TIP3 1867 TIP3 OH2  OT    -0.834000       15.9994           0
   13506 TIP3 1867 TIP3 H1   HT     0.417000        1.0080           0
   13507 TIP3 1867 TIP3 H2   HT     0.417000        1.0080           0
   13508 TIP3 1868 TIP3 OH2  OT    -0.834000       15.9994           0
   13509 TIP3 1868 TIP3 H1   HT     0.417000        1.0080           0
   13510 TIP3 1868 TIP3 H2   HT     0.417000        1.0080           0
   13511 TIP3 1869 TIP3 OH2  OT    -0.834000       15.9994           0
   13512 TIP3 1869 TIP3 H1   HT     0.417000        1.0080           0
   13513 TIP3 1869 TIP3 H2   HT     0.417000        1.0080           0
   13514 TIP3 1870 TIP3 OH2  OT    -0.834000       15.9994           0
   13515 TIP3 1870 TIP3 H1   HT     0.417000        1.0080           0
   13516 TIP3 1870 TIP3 H2   HT     0.417000        1.0080           0
   13517 TIP3 1871 TIP3 OH2  OT    -0.834000       15.9994           0
   13518 TIP3 1871 TIP3 H1   HT     0.417000        1.0080           0
   13519 TIP3 1871 TIP3 H2   HT     0.417000        1.0080           0
   13520 TIP3 1872 TIP3 OH2  OT    -0.834000       15.9994           0
   13521 TIP3 1872 TIP3 H1   HT     0.417000        1.0080           0
   13522 TIP3 1872 TIP3 H2   HT     0.417000        1.0080           0
   13523 TIP3 1873 TIP3 OH2  OT    -0.834000       15.9994           0
   13524 TIP3 1873 TIP3 H1   HT     0.417000        1.0080           0
   13525 TIP3 1873 TIP3 H2   HT     0.417000        1.0080           0
   13526 TIP3 1874 TIP3 OH2  OT    -0.834000       15.9994           0
   13527 TIP3 1874 TIP3 H1   HT     0.417000        1.0080           0
   13528 TIP3 1874 TIP3 H2   HT     0.417000        1.0080           0
   13529 TIP3 1875 TIP3 OH2  OT    -0.834000       15.9994           0
   13530 TIP3 1875 TIP3 H1   HT     0.417000        1.0080           0
   13531 TIP3 1875 TIP3 H2   HT     0.417000        1.0080           0
   13532 TIP3 1876 TIP3 OH2  OT    -0.834000       15.9994           0
   13533 TIP3 1876 TIP3 H1   HT     0.417000        1.0080           0
   13534 TIP3 1876 TIP3 H2   HT     0.417000        1.0080           0
   13535 TIP3 1877 TIP3 OH2  OT    -0.834000       15.9994           0
   13536 TIP3 1877 TIP3 H1   HT     0.417000        1.0080           0
   13537 TIP3 1877 TIP3 H2   HT     0.417000        1.0080           0
   13538 TIP3 1878 TIP3 OH2  OT    -0.834000       15.9994           0
   13539 TIP3 1878 TIP3 H1   HT     0.417000        1.0080           0
   13540 TIP3 1878 TIP3 H2   HT     0.417000        1.0080           0
   13541 TIP3 1879 TIP3 OH2  OT    -0.834000       15.9994           0
   13542 TIP3 1879 TIP3 H1   HT     0.417000        1.0080           0
   13543 TIP3 1879 TIP3 H2   HT     0.417000        1.0080           0
   13544 TIP3 1880 TIP3 OH2  OT    -0.834000       15.9994           0
   13545 TIP3 1880 TIP3 H1   HT     0.417000        1.0080           0
   13546 TIP3 1880 TIP3 H2   HT     0.417000        1.0080           0
   13547 TIP3 1881 TIP3 OH2  OT    -0.834000       15.9994           0
   13548 TIP3 1881 TIP3 H1   HT     0.417000        1.0080           0
   13549 TIP3 1881 TIP3 H2   HT     0.417000        1.0080           0
   13550 TIP3 1882 TIP3 OH2  OT    -0.834000       15.9994           0
   13551 TIP3 1882 TIP3 H1   HT     0.417000        1.0080           0
   13552 TIP3 1882 TIP3 H2   HT     0.417000        1.0080           0
   13553 TIP3 1883 TIP3 OH2  OT    -0.834000       15.9994           0
   13554 TIP3 1883 TIP3 H1   HT     0.417000        1.0080           0
   13555 TIP3 1883 TIP3 H2   HT     0.417000        1.0080           0
   13556 TIP3 1884 TIP3 OH2  OT    -0.834000       15.9994           0
   13557 TIP3 1884 TIP3 H1   HT     0.417000        1.0080           0
   13558 TIP3 1884 TIP3 H2   HT     0.417000        1.0080           0
   13559 TIP3 1885 TIP3 OH2  OT    -0.834000       15.9994           0
   13560 TIP3 1885 TIP3 H1   HT     0.417000        1.0080           0
   13561 TIP3 1885 TIP3 H2   HT     0.417000        1.0080           0
   13562 TIP3 1886 TIP3 OH2  OT    -0.834000       15.9994           0
   13563 TIP3 1886 TIP3 H1   HT     0.417000        1.0080           0
   13564 TIP3 1886 TIP3 H2   HT     0.417000        1.0080           0
   13565 TIP3 1887 TIP3 OH2  OT    -0.834000       15.9994           0
   13566 TIP3 1887 TIP3 H1   HT     0.417000        1.0080           0
   13567 TIP3 1887 TIP3 H2   HT     0.417000        1.0080           0
   13568 TIP3 1888 TIP3 OH2  OT    -0.834000       15.9994           0
   13569 TIP3 1888 TIP3 H1   HT     0.417000        1.0080           0
   13570 TIP3 1888 TIP3 H2   HT     0.417000        1.0080           0
   13571 TIP3 1889 TIP3 OH2  OT    -0.834000       15.9994           0
   13572 TIP3 1889 TIP3 H1   HT     0.417000        1.0080           0
   13573 TIP3 1889 TIP3 H2   HT     0.417000        1.0080           0
   13574 TIP3 1890 TIP3 OH2  OT    -0.834000       15.9994           0
   13575 TIP3 1890 TIP3 H1   HT     0.417000        1.0080           0
   13576 TIP3 1890 TIP3 H2   HT     0.417000        1.0080           0
   13577 TIP3 1891 TIP3 OH2  OT    -0.834000       15.9994           0
   13578 TIP3 1891 TIP3 H1   HT     0.417000        1.0080           0
   13579 TIP3 1891 TIP3 H2   HT     0.417000        1.0080           0
   13580 TIP3 1892 TIP3 OH2  OT    -0.834000       15.9994           0
   13581 TIP3 1892 TIP3 H1   HT     0.417000        1.0080           0
   13582 TIP3 1892 TIP3 H2   HT     0.417000        1.0080           0
   13583 TIP3 1893 TIP3 OH2  OT    -0.834000       15.9994           0
   13584 TIP3 1893 TIP3 H1   HT     0.417000        1.0080           0
   13585 TIP3 1893 TIP3 H2   HT     0.417000        1.0080           0
   13586 TIP3 1894 TIP3 OH2  OT    -0.834000       15.9994           0
   13587 TIP3 1894 TIP3 H1   HT     0.417000        1.0080           0
   13588 TIP3 1894 TIP3 H2   HT     0.417000        1.0080           0
   13589 TIP3 1895 TIP3 OH2  OT    -0.834000       15.9994           0
   13590 TIP3 1895 TIP3 H1   HT     0.417000        1.0080           0
   13591 TIP3 1895 TIP3 H2   HT     0.417000        1.0080           0
   13592 TIP3 1896 TIP3 OH2  OT    -0.834000       15.9994           0
   13593 TIP3 1896 TIP3 H1   HT     0.417000        1.0080           0
   13594 TIP3 1896 TIP3 H2   HT     0.417000        1.0080           0
   13595 TIP3 1897 TIP3 OH2  OT    -0.834000       15.9994           0
   13596 TIP3 1897 TIP3 H1   HT     0.417000        1.0080           0
   13597 TIP3 1897 TIP3 H2   HT     0.417000        1.0080           0
   13598 TIP3 1898 TIP3 OH2  OT    -0.834000       15.9994           0
   13599 TIP3 1898 TIP3 H1   HT     0.417000        1.0080           0
   13600 TIP3 1898 TIP3 H2   HT     0.417000        1.0080           0
   13601 TIP3 1899 TIP3 OH2  OT    -0.834000       15.9994           0
   13602 TIP3 1899 TIP3 H1   HT     0.417000        1.0080           0
   13603 TIP3 1899 TIP3 H2   HT     0.417000        1.0080           0
   13604 TIP3 1900 TIP3 OH2  OT    -0.834000       15.9994           0
   13605 TIP3 1900 TIP3 H1   HT     0.417000        1.0080           0
   13606 TIP3 1900 TIP3 H2   HT     0.417000        1.0080           0
   13607 TIP3 1901 TIP3 OH2  OT    -0.834000       15.9994           0
   13608 TIP3 1901 TIP3 H1   HT     0.417000        1.0080           0
   13609 TIP3 1901 TIP3 H2   HT     0.417000        1.0080           0
   13610 TIP3 1902 TIP3 OH2  OT    -0.834000       15.9994           0
   13611 TIP3 1902 TIP3 H1   HT     0.417000        1.0080           0
   13612 TIP3 1902 TIP3 H2   HT     0.417000        1.0080           0
   13613 TIP3 1903 TIP3 OH2  OT    -0.834000       15.9994           0
   13614 TIP3 1903 TIP3 H1   HT     0.417000        1.0080           0
   13615 TIP3 1903 TIP3 H2   HT     0.417000        1.0080           0
   13616 TIP3 1904 TIP3 OH2  OT    -0.834000       15.9994           0
   13617 TIP3 1904 TIP3 H1   HT     0.417000        1.0080           0
   13618 TIP3 1904 TIP3 H2   HT     0.417000        1.0080           0
   13619 TIP3 1905 TIP3 OH2  OT    -0.834000       15.9994           0
   13620 TIP3 1905 TIP3 H1   HT     0.417000        1.0080           0
   13621 TIP3 1905 TIP3 H2   HT     0.417000        1.0080           0
   13622 TIP3 1906 TIP3 OH2  OT    -0.834000       15.9994           0
   13623 TIP3 1906 TIP3 H1   HT     0.417000        1.0080           0
   13624 TIP3 1906 TIP3 H2   HT     0.417000        1.0080           0
   13625 TIP3 1907 TIP3 OH2  OT    -0.834000       15.9994           0
   13626 TIP3 1907 TIP3 H1   HT     0.417000        1.0080           0
   13627 TIP3 1907 TIP3 H2   HT     0.417000        1.0080           0
   13628 TIP3 1908 TIP3 OH2  OT    -0.834000       15.9994           0
   13629 TIP3 1908 TIP3 H1   HT     0.417000        1.0080           0
   13630 TIP3 1908 TIP3 H2   HT     0.417000        1.0080           0
   13631 TIP3 1909 TIP3 OH2  OT    -0.834000       15.9994           0
   13632 TIP3 1909 TIP3 H1   HT     0.417000        1.0080           0
   13633 TIP3 1909 TIP3 H2   HT     0.417000        1.0080           0
   13634 TIP3 1910 TIP3 OH2  OT    -0.834000       15.9994           0
   13635 TIP3 1910 TIP3 H1   HT     0.417000        1.0080           0
   13636 TIP3 1910 TIP3 H2   HT     0.417000        1.0080           0
   13637 TIP3 1911 TIP3 OH2  OT    -0.834000       15.9994           0
   13638 TIP3 1911 TIP3 H1   HT     0.417000        1.0080           0
   13639 TIP3 1911 TIP3 H2   HT     0.417000        1.0080           0
   13640 TIP3 1912 TIP3 OH2  OT    -0.834000       15.9994           0
   13641 TIP3 1912 TIP3 H1   HT     0.417000        1.0080           0
   13642 TIP3 1912 TIP3 H2   HT     0.417000        1.0080           0
   13643 TIP3 1913 TIP3 OH2  OT    -0.834000       15.9994           0
   13644 TIP3 1913 TIP3 H1   HT     0.417000        1.0080           0
   13645 TIP3 1913 TIP3 H2   HT     0.417000        1.0080           0
   13646 TIP3 1914 TIP3 OH2  OT    -0.834000       15.9994           0
   13647 TIP3 1914 TIP3 H1   HT     0.417000        1.0080           0
   13648 TIP3 1914 TIP3 H2   HT     0.417000        1.0080           0
   13649 TIP3 1915 TIP3 OH2  OT    -0.834000       15.9994           0
   13650 TIP3 1915 TIP3 H1   HT     0.417000        1.0080           0
   13651 TIP3 1915 TIP3 H2   HT     0.417000        1.0080           0
   13652 TIP3 1916 TIP3 OH2  OT    -0.834000       15.9994           0
   13653 TIP3 1916 TIP3 H1   HT     0.417000        1.0080           0
   13654 TIP3 1916 TIP3 H2   HT     0.417000        1.0080           0
   13655 TIP3 1917 TIP3 OH2  OT    -0.834000       15.9994           0
   13656 TIP3 1917 TIP3 H1   HT     0.417000        1.0080           0
   13657 TIP3 1917 TIP3 H2   HT     0.417000        1.0080           0
   13658 TIP3 1918 TIP3 OH2  OT    -0.834000       15.9994           0
   13659 TIP3 1918 TIP3 H1   HT     0.417000        1.0080           0
   13660 TIP3 1918 TIP3 H2   HT     0.417000        1.0080           0
   13661 TIP3 1919 TIP3 OH2  OT    -0.834000       15.9994           0
   13662 TIP3 1919 TIP3 H1   HT     0.417000        1.0080           0
   13663 TIP3 1919 TIP3 H2   HT     0.417000        1.0080           0
   13664 TIP3 1920 TIP3 OH2  OT    -0.834000       15.9994           0
   13665 TIP3 1920 TIP3 H1   HT     0.417000        1.0080           0
   13666 TIP3 1920 TIP3 H2   HT     0.417000        1.0080           0
   13667 TIP3 1921 TIP3 OH2  OT    -0.834000       15.9994           0
   13668 TIP3 1921 TIP3 H1   HT     0.417000        1.0080           0
   13669 TIP3 1921 TIP3 H2   HT     0.417000        1.0080           0
   13670 TIP3 1922 TIP3 OH2  OT    -0.834000       15.9994           0
   13671 TIP3 1922 TIP3 H1   HT     0.417000        1.0080           0
   13672 TIP3 1922 TIP3 H2   HT     0.417000        1.0080           0
   13673 TIP3 1923 TIP3 OH2  OT    -0.834000       15.9994           0
   13674 TIP3 1923 TIP3 H1   HT     0.417000        1.0080           0
   13675 TIP3 1923 TIP3 H2   HT     0.417000        1.0080           0
   13676 TIP3 1924 TIP3 OH2  OT    -0.834000       15.9994           0
   13677 TIP3 1924 TIP3 H1   HT     0.417000        1.0080           0
   13678 TIP3 1924 TIP3 H2   HT     0.417000        1.0080           0
   13679 TIP3 1925 TIP3 OH2  OT    -0.834000       15.9994           0
   13680 TIP3 1925 TIP3 H1   HT     0.417000        1.0080           0
   13681 TIP3 1925 TIP3 H2   HT     0.417000        1.0080           0
   13682 TIP3 1926 TIP3 OH2  OT    -0.834000       15.9994           0
   13683 TIP3 1926 TIP3 H1   HT     0.417000        1.0080           0
   13684 TIP3 1926 TIP3 H2   HT     0.417000        1.0080           0
   13685 TIP3 1927 TIP3 OH2  OT    -0.834000       15.9994           0
   13686 TIP3 1927 TIP3 H1   HT     0.417000        1.0080           0
   13687 TIP3 1927 TIP3 H2   HT     0.417000        1.0080           0
   13688 TIP3 1928 TIP3 OH2  OT    -0.834000       15.9994           0
   13689 TIP3 1928 TIP3 H1   HT     0.417000        1.0080           0
   13690 TIP3 1928 TIP3 H2   HT     0.417000        1.0080           0
   13691 TIP3 1929 TIP3 OH2  OT    -0.834000       15.9994           0
   13692 TIP3 1929 TIP3 H1   HT     0.417000        1.0080           0
   13693 TIP3 1929 TIP3 H2   HT     0.417000        1.0080           0
   13694 TIP3 1930 TIP3 OH2  OT    -0.834000       15.9994           0
   13695 TIP3 1930 TIP3 H1   HT     0.417000        1.0080           0
   13696 TIP3 1930 TIP3 H2   HT     0.417000        1.0080           0
   13697 TIP3 1931 TIP3 OH2  OT    -0.834000       15.9994           0
   13698 TIP3 1931 TIP3 H1   HT     0.417000        1.0080           0
   13699 TIP3 1931 TIP3 H2   HT     0.417000        1.0080           0
   13700 TIP3 1932 TIP3 OH2  OT    -0.834000       15.9994           0
   13701 TIP3 1932 TIP3 H1   HT     0.417000        1.0080           0
   13702 TIP3 1932 TIP3 H2   HT     0.417000        1.0080           0
   13703 TIP3 1933 TIP3 OH2  OT    -0.834000       15.9994           0
   13704 TIP3 1933 TIP3 H1   HT     0.417000        1.0080           0
   13705 TIP3 1933 TIP3 H2   HT     0.417000        1.0080           0
   13706 TIP3 1934 TIP3 OH2  OT    -0.834000       15.9994           0
   13707 TIP3 1934 TIP3 H1   HT     0.417000        1.0080           0
   13708 TIP3 1934 TIP3 H2   HT     0.417000        1.0080           0
   13709 TIP3 1935 TIP3 OH2  OT    -0.834000       15.9994           0
   13710 TIP3 1935 TIP3 H1   HT     0.417000        1.0080           0
   13711 TIP3 1935 TIP3 H2   HT     0.417000        1.0080           0
   13712 TIP3 1936 TIP3 OH2  OT    -0.834000       15.9994           0
   13713 TIP3 1936 TIP3 H1   HT     0.417000        1.0080           0
   13714 TIP3 1936 TIP3 H2   HT     0.417000        1.0080           0
   13715 TIP3 1937 TIP3 OH2  OT    -0.834000       15.9994           0
   13716 TIP3 1937 TIP3 H1   HT     0.417000        1.0080           0
   13717 TIP3 1937 TIP3 H2   HT     0.417000        1.0080           0
   13718 TIP3 1938 TIP3 OH2  OT    -0.834000       15.9994           0
   13719 TIP3 1938 TIP3 H1   HT     0.417000        1.0080           0
   13720 TIP3 1938 TIP3 H2   HT     0.417000        1.0080           0
   13721 TIP3 1939 TIP3 OH2  OT    -0.834000       15.9994           0
   13722 TIP3 1939 TIP3 H1   HT     0.417000        1.0080           0
   13723 TIP3 1939 TIP3 H2   HT     0.417000        1.0080           0
   13724 TIP3 1940 TIP3 OH2  OT    -0.834000       15.9994           0
   13725 TIP3 1940 TIP3 H1   HT     0.417000        1.0080           0
   13726 TIP3 1940 TIP3 H2   HT     0.417000        1.0080           0
   13727 TIP3 1941 TIP3 OH2  OT    -0.834000       15.9994           0
   13728 TIP3 1941 TIP3 H1   HT     0.417000        1.0080           0
   13729 TIP3 1941 TIP3 H2   HT     0.417000        1.0080           0
   13730 TIP3 1942 TIP3 OH2  OT    -0.834000       15.9994           0
   13731 TIP3 1942 TIP3 H1   HT     0.417000        1.0080           0
   13732 TIP3 1942 TIP3 H2   HT     0.417000        1.0080           0
   13733 TIP3 1943 TIP3 OH2  OT    -0.834000       15.9994           0
   13734 TIP3 1943 TIP3 H1   HT     0.417000        1.0080           0
   13735 TIP3 1943 TIP3 H2   HT     0.417000        1.0080           0
   13736 TIP3 1944 TIP3 OH2  OT    -0.834000       15.9994           0
   13737 TIP3 1944 TIP3 H1   HT     0.417000        1.0080           0
   13738 TIP3 1944 TIP3 H2   HT     0.417000        1.0080           0
   13739 TIP3 1945 TIP3 OH2  OT    -0.834000       15.9994           0
   13740 TIP3 1945 TIP3 H1   HT     0.417000        1.0080           0
   13741 TIP3 1945 TIP3 H2   HT     0.417000        1.0080           0
   13742 TIP3 1946 TIP3 OH2  OT    -0.834000       15.9994           0
   13743 TIP3 1946 TIP3 H1   HT     0.417000        1.0080           0
   13744 TIP3 1946 TIP3 H2   HT     0.417000        1.0080           0
   13745 TIP3 1947 TIP3 OH2  OT    -0.834000       15.9994           0
   13746 TIP3 1947 TIP3 H1   HT     0.417000        1.0080           0
   13747 TIP3 1947 TIP3 H2   HT     0.417000        1.0080           0
   13748 TIP3 1948 TIP3 OH2  OT    -0.834000       15.9994           0
   13749 TIP3 1948 TIP3 H1   HT     0.417000        1.0080           0
   13750 TIP3 1948 TIP3 H2   HT     0.417000        1.0080           0
   13751 TIP3 1949 TIP3 OH2  OT    -0.834000       15.9994           0
   13752 TIP3 1949 TIP3 H1   HT     0.417000        1.0080           0
   13753 TIP3 1949 TIP3 H2   HT     0.417000        1.0080           0
   13754 TIP3 1950 TIP3 OH2  OT    -0.834000       15.9994           0
   13755 TIP3 1950 TIP3 H1   HT     0.417000        1.0080           0
   13756 TIP3 1950 TIP3 H2   HT     0.417000        1.0080           0
   13757 TIP3 1951 TIP3 OH2  OT    -0.834000       15.9994           0
   13758 TIP3 1951 TIP3 H1   HT     0.417000        1.0080           0
   13759 TIP3 1951 TIP3 H2   HT     0.417000        1.0080           0
   13760 TIP3 1952 TIP3 OH2  OT    -0.834000       15.9994           0
   13761 TIP3 1952 TIP3 H1   HT     0.417000        1.0080           0
   13762 TIP3 1952 TIP3 H2   HT     0.417000        1.0080           0
   13763 TIP3 1953 TIP3 OH2  OT    -0.834000       15.9994           0
   13764 TIP3 1953 TIP3 H1   HT     0.417000        1.0080           0
   13765 TIP3 1953 TIP3 H2   HT     0.417000        1.0080           0
   13766 TIP3 1954 TIP3 OH2  OT    -0.834000       15.9994           0
   13767 TIP3 1954 TIP3 H1   HT     0.417000        1.0080           0
   13768 TIP3 1954 TIP3 H2   HT     0.417000        1.0080           0
   13769 TIP3 1955 TIP3 OH2  OT    -0.834000       15.9994           0
   13770 TIP3 1955 TIP3 H1   HT     0.417000        1.0080           0
   13771 TIP3 1955 TIP3 H2   HT     0.417000        1.0080           0
   13772 TIP3 1956 TIP3 OH2  OT    -0.834000       15.9994           0
   13773 TIP3 1956 TIP3 H1   HT     0.417000        1.0080           0
   13774 TIP3 1956 TIP3 H2   HT     0.417000        1.0080           0
   13775 TIP3 1957 TIP3 OH2  OT    -0.834000       15.9994           0
   13776 TIP3 1957 TIP3 H1   HT     0.417000        1.0080           0
   13777 TIP3 1957 TIP3 H2   HT     0.417000        1.0080           0
   13778 TIP3 1958 TIP3 OH2  OT    -0.834000       15.9994           0
   13779 TIP3 1958 TIP3 H1   HT     0.417000        1.0080           0
   13780 TIP3 1958 TIP3 H2   HT     0.417000        1.0080           0
   13781 TIP3 1959 TIP3 OH2  OT    -0.834000       15.9994           0
   13782 TIP3 1959 TIP3 H1   HT     0.417000        1.0080           0
   13783 TIP3 1959 TIP3 H2   HT     0.417000        1.0080           0
   13784 TIP3 1960 TIP3 OH2  OT    -0.834000       15.9994           0
   13785 TIP3 1960 TIP3 H1   HT     0.417000        1.0080           0
   13786 TIP3 1960 TIP3 H2   HT     0.417000        1.0080           0
   13787 TIP3 1961 TIP3 OH2  OT    -0.834000       15.9994           0
   13788 TIP3 1961 TIP3 H1   HT     0.417000        1.0080           0
   13789 TIP3 1961 TIP3 H2   HT     0.417000        1.0080           0
   13790 TIP3 1962 TIP3 OH2  OT    -0.834000       15.9994           0
   13791 TIP3 1962 TIP3 H1   HT     0.417000        1.0080           0
   13792 TIP3 1962 TIP3 H2   HT     0.417000        1.0080           0
   13793 TIP3 1963 TIP3 OH2  OT    -0.834000       15.9994           0
   13794 TIP3 1963 TIP3 H1   HT     0.417000        1.0080           0
   13795 TIP3 1963 TIP3 H2   HT     0.417000        1.0080           0
   13796 TIP3 1964 TIP3 OH2  OT    -0.834000       15.9994           0
   13797 TIP3 1964 TIP3 H1   HT     0.417000        1.0080           0
   13798 TIP3 1964 TIP3 H2   HT     0.417000        1.0080           0
   13799 TIP3 1965 TIP3 OH2  OT    -0.834000       15.9994           0
   13800 TIP3 1965 TIP3 H1   HT     0.417000        1.0080           0
   13801 TIP3 1965 TIP3 H2   HT     0.417000        1.0080           0
   13802 TIP3 1966 TIP3 OH2  OT    -0.834000       15.9994           0
   13803 TIP3 1966 TIP3 H1   HT     0.417000        1.0080           0
   13804 TIP3 1966 TIP3 H2   HT     0.417000        1.0080           0
   13805 TIP3 1967 TIP3 OH2  OT    -0.834000       15.9994           0
   13806 TIP3 1967 TIP3 H1   HT     0.417000        1.0080           0
   13807 TIP3 1967 TIP3 H2   HT     0.417000        1.0080           0
   13808 TIP3 1968 TIP3 OH2  OT    -0.834000       15.9994           0
   13809 TIP3 1968 TIP3 H1   HT     0.417000        1.0080           0
   13810 TIP3 1968 TIP3 H2   HT     0.417000        1.0080           0
   13811 TIP3 1969 TIP3 OH2  OT    -0.834000       15.9994           0
   13812 TIP3 1969 TIP3 H1   HT     0.417000        1.0080           0
   13813 TIP3 1969 TIP3 H2   HT     0.417000        1.0080           0
   13814 TIP3 1970 TIP3 OH2  OT    -0.834000       15.9994           0
   13815 TIP3 1970 TIP3 H1   HT     0.417000        1.0080           0
   13816 TIP3 1970 TIP3 H2   HT     0.417000        1.0080           0
   13817 TIP3 1971 TIP3 OH2  OT    -0.834000       15.9994           0
   13818 TIP3 1971 TIP3 H1   HT     0.417000        1.0080           0
   13819 TIP3 1971 TIP3 H2   HT     0.417000        1.0080           0
   13820 TIP3 1972 TIP3 OH2  OT    -0.834000       15.9994           0
   13821 TIP3 1972 TIP3 H1   HT     0.417000        1.0080           0
   13822 TIP3 1972 TIP3 H2   HT     0.417000        1.0080           0
   13823 TIP3 1973 TIP3 OH2  OT    -0.834000       15.9994           0
   13824 TIP3 1973 TIP3 H1   HT     0.417000        1.0080           0
   13825 TIP3 1973 TIP3 H2   HT     0.417000        1.0080           0
   13826 TIP3 1974 TIP3 OH2  OT    -0.834000       15.9994           0
   13827 TIP3 1974 TIP3 H1   HT     0.417000        1.0080           0
   13828 TIP3 1974 TIP3 H2   HT     0.417000        1.0080           0
   13829 TIP3 1975 TIP3 OH2  OT    -0.834000       15.9994           0
   13830 TIP3 1975 TIP3 H1   HT     0.417000        1.0080           0
   13831 TIP3 1975 TIP3 H2   HT     0.417000        1.0080           0
   13832 TIP3 1976 TIP3 OH2  OT    -0.834000       15.9994           0
   13833 TIP3 1976 TIP3 H1   HT     0.417000        1.0080           0
   13834 TIP3 1976 TIP3 H2   HT     0.417000        1.0080           0
   13835 TIP3 1977 TIP3 OH2  OT    -0.834000       15.9994           0
   13836 TIP3 1977 TIP3 H1   HT     0.417000        1.0080           0
   13837 TIP3 1977 TIP3 H2   HT     0.417000        1.0080           0
   13838 TIP3 1978 TIP3 OH2  OT    -0.834000       15.9994           0
   13839 TIP3 1978 TIP3 H1   HT     0.417000        1.0080           0
   13840 TIP3 1978 TIP3 H2   HT     0.417000        1.0080           0
   13841 TIP3 1979 TIP3 OH2  OT    -0.834000       15.9994           0
   13842 TIP3 1979 TIP3 H1   HT     0.417000        1.0080           0
   13843 TIP3 1979 TIP3 H2   HT     0.417000        1.0080           0
   13844 TIP3 1980 TIP3 OH2  OT    -0.834000       15.9994           0
   13845 TIP3 1980 TIP3 H1   HT     0.417000        1.0080           0
   13846 TIP3 1980 TIP3 H2   HT     0.417000        1.0080           0
   13847 TIP3 1981 TIP3 OH2  OT    -0.834000       15.9994           0
   13848 TIP3 1981 TIP3 H1   HT     0.417000        1.0080           0
   13849 TIP3 1981 TIP3 H2   HT     0.417000        1.0080           0
   13850 TIP3 1982 TIP3 OH2  OT    -0.834000       15.9994           0
   13851 TIP3 1982 TIP3 H1   HT     0.417000        1.0080           0
   13852 TIP3 1982 TIP3 H2   HT     0.417000        1.0080           0
   13853 TIP3 1983 TIP3 OH2  OT    -0.834000       15.9994           0
   13854 TIP3 1983 TIP3 H1   HT     0.417000        1.0080           0
   13855 TIP3 1983 TIP3 H2   HT     0.417000        1.0080           0
   13856 TIP3 1984 TIP3 OH2  OT    -0.834000       15.9994           0
   13857 TIP3 1984 TIP3 H1   HT     0.417000        1.0080           0
   13858 TIP3 1984 TIP3 H2   HT     0.417000        1.0080           0
   13859 TIP3 1985 TIP3 OH2  OT    -0.834000       15.9994           0
   13860 TIP3 1985 TIP3 H1   HT     0.417000        1.0080           0
   13861 TIP3 1985 TIP3 H2   HT     0.417000        1.0080           0
   13862 TIP3 1986 TIP3 OH2  OT    -0.834000       15.9994           0
   13863 TIP3 1986 TIP3 H1   HT     0.417000        1.0080           0
   13864 TIP3 1986 TIP3 H2   HT     0.417000        1.0080           0
   13865 TIP3 1987 TIP3 OH2  OT    -0.834000       15.9994           0
   13866 TIP3 1987 TIP3 H1   HT     0.417000        1.0080           0
   13867 TIP3 1987 TIP3 H2   HT     0.417000        1.0080           0
   13868 TIP3 1988 TIP3 OH2  OT    -0.834000       15.9994           0
   13869 TIP3 1988 TIP3 H1   HT     0.417000        1.0080           0
   13870 TIP3 1988 TIP3 H2   HT     0.417000        1.0080           0
   13871 TIP3 1989 TIP3 OH2  OT    -0.834000       15.9994           0
   13872 TIP3 1989 TIP3 H1   HT     0.417000        1.0080           0
   13873 TIP3 1989 TIP3 H2   HT     0.417000        1.0080           0
   13874 TIP3 1990 TIP3 OH2  OT    -0.834000       15.9994           0
   13875 TIP3 1990 TIP3 H1   HT     0.417000        1.0080           0
   13876 TIP3 1990 TIP3 H2   HT     0.417000        1.0080           0
   13877 TIP3 1991 TIP3 OH2  OT    -0.834000       15.9994           0
   13878 TIP3 1991 TIP3 H1   HT     0.417000        1.0080           0
   13879 TIP3 1991 TIP3 H2   HT     0.417000        1.0080           0
   13880 TIP3 1992 TIP3 OH2  OT    -0.834000       15.9994           0
   13881 TIP3 1992 TIP3 H1   HT     0.417000        1.0080           0
   13882 TIP3 1992 TIP3 H2   HT     0.417000        1.0080           0
   13883 TIP3 1993 TIP3 OH2  OT    -0.834000       15.9994           0
   13884 TIP3 1993 TIP3 H1   HT     0.417000        1.0080           0
   13885 TIP3 1993 TIP3 H2   HT     0.417000        1.0080           0
   13886 TIP3 1994 TIP3 OH2  OT    -0.834000       15.9994           0
   13887 TIP3 1994 TIP3 H1   HT     0.417000        1.0080           0
   13888 TIP3 1994 TIP3 H2   HT     0.417000        1.0080           0
   13889 TIP3 1995 TIP3 OH2  OT    -0.834000       15.9994           0
   13890 TIP3 1995 TIP3 H1   HT     0.417000        1.0080           0
   13891 TIP3 1995 TIP3 H2   HT     0.417000        1.0080           0
   13892 TIP3 1996 TIP3 OH2  OT    -0.834000       15.9994           0
   13893 TIP3 1996 TIP3 H1   HT     0.417000        1.0080           0
   13894 TIP3 1996 TIP3 H2   HT     0.417000        1.0080           0
   13895 TIP3 1997 TIP3 OH2  OT    -0.834000       15.9994           0
   13896 TIP3 1997 TIP3 H1   HT     0.417000        1.0080           0
   13897 TIP3 1997 TIP3 H2   HT     0.417000        1.0080           0
   13898 TIP3 1998 TIP3 OH2  OT    -0.834000       15.9994           0
   13899 TIP3 1998 TIP3 H1   HT     0.417000        1.0080           0
   13900 TIP3 1998 TIP3 H2   HT     0.417000        1.0080           0
   13901 TIP3 1999 TIP3 OH2  OT    -0.834000       15.9994           0
   13902 TIP3 1999 TIP3 H1   HT     0.417000        1.0080           0
   13903 TIP3 1999 TIP3 H2   HT     0.417000        1.0080           0
   13904 TIP3 2000 TIP3 OH2  OT    -0.834000       15.9994           0
   13905 TIP3 2000 TIP3 H1   HT     0.417000        1.0080           0
   13906 TIP3 2000 TIP3 H2   HT     0.417000        1.0080           0
   13907 TIP3 2001 TIP3 OH2  OT    -0.834000       15.9994           0
   13908 TIP3 2001 TIP3 H1   HT     0.417000        1.0080           0
   13909 TIP3 2001 TIP3 H2   HT     0.417000        1.0080           0
   13910 TIP3 2002 TIP3 OH2  OT    -0.834000       15.9994           0
   13911 TIP3 2002 TIP3 H1   HT     0.417000        1.0080           0
   13912 TIP3 2002 TIP3 H2   HT     0.417000        1.0080           0
   13913 TIP3 2003 TIP3 OH2  OT    -0.834000       15.9994           0
   13914 TIP3 2003 TIP3 H1   HT     0.417000        1.0080           0
   13915 TIP3 2003 TIP3 H2   HT     0.417000        1.0080           0
   13916 TIP3 2004 TIP3 OH2  OT    -0.834000       15.9994           0
   13917 TIP3 2004 TIP3 H1   HT     0.417000        1.0080           0
   13918 TIP3 2004 TIP3 H2   HT     0.417000        1.0080           0
   13919 TIP3 2005 TIP3 OH2  OT    -0.834000       15.9994           0
   13920 TIP3 2005 TIP3 H1   HT     0.417000        1.0080           0
   13921 TIP3 2005 TIP3 H2   HT     0.417000        1.0080           0
   13922 TIP3 2006 TIP3 OH2  OT    -0.834000       15.9994           0
   13923 TIP3 2006 TIP3 H1   HT     0.417000        1.0080           0
   13924 TIP3 2006 TIP3 H2   HT     0.417000        1.0080           0
   13925 TIP3 2007 TIP3 OH2  OT    -0.834000       15.9994           0
   13926 TIP3 2007 TIP3 H1   HT     0.417000        1.0080           0
   13927 TIP3 2007 TIP3 H2   HT     0.417000        1.0080           0
   13928 TIP3 2008 TIP3 OH2  OT    -0.834000       15.9994           0
   13929 TIP3 2008 TIP3 H1   HT     0.417000        1.0080           0
   13930 TIP3 2008 TIP3 H2   HT     0.417000        1.0080           0
   13931 TIP3 2009 TIP3 OH2  OT    -0.834000       15.9994           0
   13932 TIP3 2009 TIP3 H1   HT     0.417000        1.0080           0
   13933 TIP3 2009 TIP3 H2   HT     0.417000        1.0080           0
   13934 TIP3 2010 TIP3 OH2  OT    -0.834000       15.9994           0
   13935 TIP3 2010 TIP3 H1   HT     0.417000        1.0080           0
   13936 TIP3 2010 TIP3 H2   HT     0.417000        1.0080           0
   13937 TIP3 2011 TIP3 OH2  OT    -0.834000       15.9994           0
   13938 TIP3 2011 TIP3 H1   HT     0.417000        1.0080           0
   13939 TIP3 2011 TIP3 H2   HT     0.417000        1.0080           0
   13940 TIP3 2012 TIP3 OH2  OT    -0.834000       15.9994           0
   13941 TIP3 2012 TIP3 H1   HT     0.417000        1.0080           0
   13942 TIP3 2012 TIP3 H2   HT     0.417000        1.0080           0
   13943 TIP3 2013 TIP3 OH2  OT    -0.834000       15.9994           0
   13944 TIP3 2013 TIP3 H1   HT     0.417000        1.0080           0
   13945 TIP3 2013 TIP3 H2   HT     0.417000        1.0080           0
   13946 TIP3 2014 TIP3 OH2  OT    -0.834000       15.9994           0
   13947 TIP3 2014 TIP3 H1   HT     0.417000        1.0080           0
   13948 TIP3 2014 TIP3 H2   HT     0.417000        1.0080           0
   13949 TIP3 2015 TIP3 OH2  OT    -0.834000       15.9994           0
   13950 TIP3 2015 TIP3 H1   HT     0.417000        1.0080           0
   13951 TIP3 2015 TIP3 H2   HT     0.417000        1.0080           0
   13952 TIP3 2016 TIP3 OH2  OT    -0.834000       15.9994           0
   13953 TIP3 2016 TIP3 H1   HT     0.417000        1.0080           0
   13954 TIP3 2016 TIP3 H2   HT     0.417000        1.0080           0
   13955 TIP3 2017 TIP3 OH2  OT    -0.834000       15.9994           0
   13956 TIP3 2017 TIP3 H1   HT     0.417000        1.0080           0
   13957 TIP3 2017 TIP3 H2   HT     0.417000        1.0080           0
   13958 TIP3 2018 TIP3 OH2  OT    -0.834000       15.9994           0
   13959 TIP3 2018 TIP3 H1   HT     0.417000        1.0080           0
   13960 TIP3 2018 TIP3 H2   HT     0.417000        1.0080           0
   13961 TIP3 2019 TIP3 OH2  OT    -0.834000       15.9994           0
   13962 TIP3 2019 TIP3 H1   HT     0.417000        1.0080           0
   13963 TIP3 2019 TIP3 H2   HT     0.417000        1.0080           0
   13964 TIP3 2020 TIP3 OH2  OT    -0.834000       15.9994           0
   13965 TIP3 2020 TIP3 H1   HT     0.417000        1.0080           0
   13966 TIP3 2020 TIP3 H2   HT     0.417000        1.0080           0
   13967 TIP3 2021 TIP3 OH2  OT    -0.834000       15.9994           0
   13968 TIP3 2021 TIP3 H1   HT     0.417000        1.0080           0
   13969 TIP3 2021 TIP3 H2   HT     0.417000        1.0080           0
   13970 TIP3 2022 TIP3 OH2  OT    -0.834000       15.9994           0
   13971 TIP3 2022 TIP3 H1   HT     0.417000        1.0080           0
   13972 TIP3 2022 TIP3 H2   HT     0.417000        1.0080           0
   13973 TIP3 2023 TIP3 OH2  OT    -0.834000       15.9994           0
   13974 TIP3 2023 TIP3 H1   HT     0.417000        1.0080           0
   13975 TIP3 2023 TIP3 H2   HT     0.417000        1.0080           0
   13976 TIP3 2024 TIP3 OH2  OT    -0.834000       15.9994           0
   13977 TIP3 2024 TIP3 H1   HT     0.417000        1.0080           0
   13978 TIP3 2024 TIP3 H2   HT     0.417000        1.0080           0
   13979 TIP3 2025 TIP3 OH2  OT    -0.834000       15.9994           0
   13980 TIP3 2025 TIP3 H1   HT     0.417000        1.0080           0
   13981 TIP3 2025 TIP3 H2   HT     0.417000        1.0080           0
   13982 TIP3 2026 TIP3 OH2  OT    -0.834000       15.9994           0
   13983 TIP3 2026 TIP3 H1   HT     0.417000        1.0080           0
   13984 TIP3 2026 TIP3 H2   HT     0.417000        1.0080           0
   13985 TIP3 2027 TIP3 OH2  OT    -0.834000       15.9994           0
   13986 TIP3 2027 TIP3 H1   HT     0.417000        1.0080           0
   13987 TIP3 2027 TIP3 H2   HT     0.417000        1.0080           0
   13988 TIP3 2028 TIP3 OH2  OT    -0.834000       15.9994           0
   13989 TIP3 2028 TIP3 H1   HT     0.417000        1.0080           0
   13990 TIP3 2028 TIP3 H2   HT     0.417000        1.0080           0
   13991 TIP3 2029 TIP3 OH2  OT    -0.834000       15.9994           0
   13992 TIP3 2029 TIP3 H1   HT     0.417000        1.0080           0
   13993 TIP3 2029 TIP3 H2   HT     0.417000        1.0080           0
   13994 TIP3 2030 TIP3 OH2  OT    -0.834000       15.9994           0
   13995 TIP3 2030 TIP3 H1   HT     0.417000        1.0080           0
   13996 TIP3 2030 TIP3 H2   HT     0.417000        1.0080           0
   13997 TIP3 2031 TIP3 OH2  OT    -0.834000       15.9994           0
   13998 TIP3 2031 TIP3 H1   HT     0.417000        1.0080           0
   13999 TIP3 2031 TIP3 H2   HT     0.417000        1.0080           0
   14000 TIP3 2032 TIP3 OH2  OT    -0.834000       15.9994           0
   14001 TIP3 2032 TIP3 H1   HT     0.417000        1.0080           0
   14002 TIP3 2032 TIP3 H2   HT     0.417000        1.0080           0
   14003 TIP3 2033 TIP3 OH2  OT    -0.834000       15.9994           0
   14004 TIP3 2033 TIP3 H1   HT     0.417000        1.0080           0
   14005 TIP3 2033 TIP3 H2   HT     0.417000        1.0080           0
   14006 TIP3 2034 TIP3 OH2  OT    -0.834000       15.9994           0
   14007 TIP3 2034 TIP3 H1   HT     0.417000        1.0080           0
   14008 TIP3 2034 TIP3 H2   HT     0.417000        1.0080           0
   14009 TIP3 2035 TIP3 OH2  OT    -0.834000       15.9994           0
   14010 TIP3 2035 TIP3 H1   HT     0.417000        1.0080           0
   14011 TIP3 2035 TIP3 H2   HT     0.417000        1.0080           0
   14012 TIP3 2036 TIP3 OH2  OT    -0.834000       15.9994           0
   14013 TIP3 2036 TIP3 H1   HT     0.417000        1.0080           0
   14014 TIP3 2036 TIP3 H2   HT     0.417000        1.0080           0
   14015 TIP3 2037 TIP3 OH2  OT    -0.834000       15.9994           0
   14016 TIP3 2037 TIP3 H1   HT     0.417000        1.0080           0
   14017 TIP3 2037 TIP3 H2   HT     0.417000        1.0080           0
   14018 TIP3 2038 TIP3 OH2  OT    -0.834000       15.9994           0
   14019 TIP3 2038 TIP3 H1   HT     0.417000        1.0080           0
   14020 TIP3 2038 TIP3 H2   HT     0.417000        1.0080           0
   14021 TIP3 2039 TIP3 OH2  OT    -0.834000       15.9994           0
   14022 TIP3 2039 TIP3 H1   HT     0.417000        1.0080           0
   14023 TIP3 2039 TIP3 H2   HT     0.417000        1.0080           0
   14024 TIP3 2040 TIP3 OH2  OT    -0.834000       15.9994           0
   14025 TIP3 2040 TIP3 H1   HT     0.417000        1.0080           0
   14026 TIP3 2040 TIP3 H2   HT     0.417000        1.0080           0
   14027 TIP3 2041 TIP3 OH2  OT    -0.834000       15.9994           0
   14028 TIP3 2041 TIP3 H1   HT     0.417000        1.0080           0
   14029 TIP3 2041 TIP3 H2   HT     0.417000        1.0080           0
   14030 TIP3 2042 TIP3 OH2  OT    -0.834000       15.9994           0
   14031 TIP3 2042 TIP3 H1   HT     0.417000        1.0080           0
   14032 TIP3 2042 TIP3 H2   HT     0.417000        1.0080           0
   14033 TIP3 2043 TIP3 OH2  OT    -0.834000       15.9994           0
   14034 TIP3 2043 TIP3 H1   HT     0.417000        1.0080           0
   14035 TIP3 2043 TIP3 H2   HT     0.417000        1.0080           0
   14036 TIP3 2044 TIP3 OH2  OT    -0.834000       15.9994           0
   14037 TIP3 2044 TIP3 H1   HT     0.417000        1.0080           0
   14038 TIP3 2044 TIP3 H2   HT     0.417000        1.0080           0
   14039 TIP3 2045 TIP3 OH2  OT    -0.834000       15.9994           0
   14040 TIP3 2045 TIP3 H1   HT     0.417000        1.0080           0
   14041 TIP3 2045 TIP3 H2   HT     0.417000        1.0080           0
   14042 TIP3 2046 TIP3 OH2  OT    -0.834000       15.9994           0
   14043 TIP3 2046 TIP3 H1   HT     0.417000        1.0080           0
   14044 TIP3 2046 TIP3 H2   HT     0.417000        1.0080           0
   14045 TIP3 2047 TIP3 OH2  OT    -0.834000       15.9994           0
   14046 TIP3 2047 TIP3 H1   HT     0.417000        1.0080           0
   14047 TIP3 2047 TIP3 H2   HT     0.417000        1.0080           0
   14048 TIP3 2048 TIP3 OH2  OT    -0.834000       15.9994           0
   14049 TIP3 2048 TIP3 H1   HT     0.417000        1.0080           0
   14050 TIP3 2048 TIP3 H2   HT     0.417000        1.0080           0
   14051 TIP3 2049 TIP3 OH2  OT    -0.834000       15.9994           0
   14052 TIP3 2049 TIP3 H1   HT     0.417000        1.0080           0
   14053 TIP3 2049 TIP3 H2   HT     0.417000        1.0080           0
   14054 TIP3 2050 TIP3 OH2  OT    -0.834000       15.9994           0
   14055 TIP3 2050 TIP3 H1   HT     0.417000        1.0080           0
   14056 TIP3 2050 TIP3 H2   HT     0.417000        1.0080           0
   14057 TIP3 2051 TIP3 OH2  OT    -0.834000       15.9994           0
   14058 TIP3 2051 TIP3 H1   HT     0.417000        1.0080           0
   14059 TIP3 2051 TIP3 H2   HT     0.417000        1.0080           0
   14060 TIP3 2052 TIP3 OH2  OT    -0.834000       15.9994           0
   14061 TIP3 2052 TIP3 H1   HT     0.417000        1.0080           0
   14062 TIP3 2052 TIP3 H2   HT     0.417000        1.0080           0
   14063 TIP3 2053 TIP3 OH2  OT    -0.834000       15.9994           0
   14064 TIP3 2053 TIP3 H1   HT     0.417000        1.0080           0
   14065 TIP3 2053 TIP3 H2   HT     0.417000        1.0080           0
   14066 TIP3 2054 TIP3 OH2  OT    -0.834000       15.9994           0
   14067 TIP3 2054 TIP3 H1   HT     0.417000        1.0080           0
   14068 TIP3 2054 TIP3 H2   HT     0.417000        1.0080           0
   14069 TIP3 2055 TIP3 OH2  OT    -0.834000       15.9994           0
   14070 TIP3 2055 TIP3 H1   HT     0.417000        1.0080           0
   14071 TIP3 2055 TIP3 H2   HT     0.417000        1.0080           0
   14072 TIP3 2056 TIP3 OH2  OT    -0.834000       15.9994           0
   14073 TIP3 2056 TIP3 H1   HT     0.417000        1.0080           0
   14074 TIP3 2056 TIP3 H2   HT     0.417000        1.0080           0
   14075 TIP3 2057 TIP3 OH2  OT    -0.834000       15.9994           0
   14076 TIP3 2057 TIP3 H1   HT     0.417000        1.0080           0
   14077 TIP3 2057 TIP3 H2   HT     0.417000        1.0080           0
   14078 TIP3 2058 TIP3 OH2  OT    -0.834000       15.9994           0
   14079 TIP3 2058 TIP3 H1   HT     0.417000        1.0080           0
   14080 TIP3 2058 TIP3 H2   HT     0.417000        1.0080           0
   14081 TIP3 2059 TIP3 OH2  OT    -0.834000       15.9994           0
   14082 TIP3 2059 TIP3 H1   HT     0.417000        1.0080           0
   14083 TIP3 2059 TIP3 H2   HT     0.417000        1.0080           0
   14084 TIP3 2060 TIP3 OH2  OT    -0.834000       15.9994           0
   14085 TIP3 2060 TIP3 H1   HT     0.417000        1.0080           0
   14086 TIP3 2060 TIP3 H2   HT     0.417000        1.0080           0
   14087 TIP3 2061 TIP3 OH2  OT    -0.834000       15.9994           0
   14088 TIP3 2061 TIP3 H1   HT     0.417000        1.0080           0
   14089 TIP3 2061 TIP3 H2   HT     0.417000        1.0080           0
   14090 TIP3 2062 TIP3 OH2  OT    -0.834000       15.9994           0
   14091 TIP3 2062 TIP3 H1   HT     0.417000        1.0080           0
   14092 TIP3 2062 TIP3 H2   HT     0.417000        1.0080           0
   14093 TIP3 2063 TIP3 OH2  OT    -0.834000       15.9994           0
   14094 TIP3 2063 TIP3 H1   HT     0.417000        1.0080           0
   14095 TIP3 2063 TIP3 H2   HT     0.417000        1.0080           0
   14096 TIP3 2064 TIP3 OH2  OT    -0.834000       15.9994           0
   14097 TIP3 2064 TIP3 H1   HT     0.417000        1.0080           0
   14098 TIP3 2064 TIP3 H2   HT     0.417000        1.0080           0
   14099 TIP3 2065 TIP3 OH2  OT    -0.834000       15.9994           0
   14100 TIP3 2065 TIP3 H1   HT     0.417000        1.0080           0
   14101 TIP3 2065 TIP3 H2   HT     0.417000        1.0080           0
   14102 TIP3 2066 TIP3 OH2  OT    -0.834000       15.9994           0
   14103 TIP3 2066 TIP3 H1   HT     0.417000        1.0080           0
   14104 TIP3 2066 TIP3 H2   HT     0.417000        1.0080           0
   14105 TIP3 2067 TIP3 OH2  OT    -0.834000       15.9994           0
   14106 TIP3 2067 TIP3 H1   HT     0.417000        1.0080           0
   14107 TIP3 2067 TIP3 H2   HT     0.417000        1.0080           0
   14108 TIP3 2068 TIP3 OH2  OT    -0.834000       15.9994           0
   14109 TIP3 2068 TIP3 H1   HT     0.417000        1.0080           0
   14110 TIP3 2068 TIP3 H2   HT     0.417000        1.0080           0
   14111 TIP3 2069 TIP3 OH2  OT    -0.834000       15.9994           0
   14112 TIP3 2069 TIP3 H1   HT     0.417000        1.0080           0
   14113 TIP3 2069 TIP3 H2   HT     0.417000        1.0080           0
   14114 TIP3 2070 TIP3 OH2  OT    -0.834000       15.9994           0
   14115 TIP3 2070 TIP3 H1   HT     0.417000        1.0080           0
   14116 TIP3 2070 TIP3 H2   HT     0.417000        1.0080           0
   14117 TIP3 2071 TIP3 OH2  OT    -0.834000       15.9994           0
   14118 TIP3 2071 TIP3 H1   HT     0.417000        1.0080           0
   14119 TIP3 2071 TIP3 H2   HT     0.417000        1.0080           0
   14120 TIP3 2072 TIP3 OH2  OT    -0.834000       15.9994           0
   14121 TIP3 2072 TIP3 H1   HT     0.417000        1.0080           0
   14122 TIP3 2072 TIP3 H2   HT     0.417000        1.0080           0
   14123 TIP3 2073 TIP3 OH2  OT    -0.834000       15.9994           0
   14124 TIP3 2073 TIP3 H1   HT     0.417000        1.0080           0
   14125 TIP3 2073 TIP3 H2   HT     0.417000        1.0080           0
   14126 TIP3 2074 TIP3 OH2  OT    -0.834000       15.9994           0
   14127 TIP3 2074 TIP3 H1   HT     0.417000        1.0080           0
   14128 TIP3 2074 TIP3 H2   HT     0.417000        1.0080           0
   14129 TIP3 2075 TIP3 OH2  OT    -0.834000       15.9994           0
   14130 TIP3 2075 TIP3 H1   HT     0.417000        1.0080           0
   14131 TIP3 2075 TIP3 H2   HT     0.417000        1.0080           0
   14132 TIP3 2076 TIP3 OH2  OT    -0.834000       15.9994           0
   14133 TIP3 2076 TIP3 H1   HT     0.417000        1.0080           0
   14134 TIP3 2076 TIP3 H2   HT     0.417000        1.0080           0
   14135 TIP3 2077 TIP3 OH2  OT    -0.834000       15.9994           0
   14136 TIP3 2077 TIP3 H1   HT     0.417000        1.0080           0
   14137 TIP3 2077 TIP3 H2   HT     0.417000        1.0080           0
   14138 TIP3 2078 TIP3 OH2  OT    -0.834000       15.9994           0
   14139 TIP3 2078 TIP3 H1   HT     0.417000        1.0080           0
   14140 TIP3 2078 TIP3 H2   HT     0.417000        1.0080           0
   14141 TIP3 2079 TIP3 OH2  OT    -0.834000       15.9994           0
   14142 TIP3 2079 TIP3 H1   HT     0.417000        1.0080           0
   14143 TIP3 2079 TIP3 H2   HT     0.417000        1.0080           0
   14144 TIP3 2080 TIP3 OH2  OT    -0.834000       15.9994           0
   14145 TIP3 2080 TIP3 H1   HT     0.417000        1.0080           0
   14146 TIP3 2080 TIP3 H2   HT     0.417000        1.0080           0
   14147 TIP3 2081 TIP3 OH2  OT    -0.834000       15.9994           0
   14148 TIP3 2081 TIP3 H1   HT     0.417000        1.0080           0
   14149 TIP3 2081 TIP3 H2   HT     0.417000        1.0080           0
   14150 TIP3 2082 TIP3 OH2  OT    -0.834000       15.9994           0
   14151 TIP3 2082 TIP3 H1   HT     0.417000        1.0080           0
   14152 TIP3 2082 TIP3 H2   HT     0.417000        1.0080           0
   14153 TIP3 2083 TIP3 OH2  OT    -0.834000       15.9994           0
   14154 TIP3 2083 TIP3 H1   HT     0.417000        1.0080           0
   14155 TIP3 2083 TIP3 H2   HT     0.417000        1.0080           0
   14156 TIP3 2084 TIP3 OH2  OT    -0.834000       15.9994           0
   14157 TIP3 2084 TIP3 H1   HT     0.417000        1.0080           0
   14158 TIP3 2084 TIP3 H2   HT     0.417000        1.0080           0
   14159 TIP3 2085 TIP3 OH2  OT    -0.834000       15.9994           0
   14160 TIP3 2085 TIP3 H1   HT     0.417000        1.0080           0
   14161 TIP3 2085 TIP3 H2   HT     0.417000        1.0080           0
   14162 TIP3 2086 TIP3 OH2  OT    -0.834000       15.9994           0
   14163 TIP3 2086 TIP3 H1   HT     0.417000        1.0080           0
   14164 TIP3 2086 TIP3 H2   HT     0.417000        1.0080           0
   14165 TIP3 2087 TIP3 OH2  OT    -0.834000       15.9994           0
   14166 TIP3 2087 TIP3 H1   HT     0.417000        1.0080           0
   14167 TIP3 2087 TIP3 H2   HT     0.417000        1.0080           0
   14168 TIP3 2088 TIP3 OH2  OT    -0.834000       15.9994           0
   14169 TIP3 2088 TIP3 H1   HT     0.417000        1.0080           0
   14170 TIP3 2088 TIP3 H2   HT     0.417000        1.0080           0
   14171 TIP3 2089 TIP3 OH2  OT    -0.834000       15.9994           0
   14172 TIP3 2089 TIP3 H1   HT     0.417000        1.0080           0
   14173 TIP3 2089 TIP3 H2   HT     0.417000        1.0080           0
   14174 TIP3 2090 TIP3 OH2  OT    -0.834000       15.9994           0
   14175 TIP3 2090 TIP3 H1   HT     0.417000        1.0080           0
   14176 TIP3 2090 TIP3 H2   HT     0.417000        1.0080           0
   14177 TIP3 2091 TIP3 OH2  OT    -0.834000       15.9994           0
   14178 TIP3 2091 TIP3 H1   HT     0.417000        1.0080           0
   14179 TIP3 2091 TIP3 H2   HT     0.417000        1.0080           0
   14180 TIP3 2092 TIP3 OH2  OT    -0.834000       15.9994           0
   14181 TIP3 2092 TIP3 H1   HT     0.417000        1.0080           0
   14182 TIP3 2092 TIP3 H2   HT     0.417000        1.0080           0
   14183 TIP3 2093 TIP3 OH2  OT    -0.834000       15.9994           0
   14184 TIP3 2093 TIP3 H1   HT     0.417000        1.0080           0
   14185 TIP3 2093 TIP3 H2   HT     0.417000        1.0080           0
   14186 TIP3 2094 TIP3 OH2  OT    -0.834000       15.9994           0
   14187 TIP3 2094 TIP3 H1   HT     0.417000        1.0080           0
   14188 TIP3 2094 TIP3 H2   HT     0.417000        1.0080           0
   14189 TIP3 2095 TIP3 OH2  OT    -0.834000       15.9994           0
   14190 TIP3 2095 TIP3 H1   HT     0.417000        1.0080           0
   14191 TIP3 2095 TIP3 H2   HT     0.417000        1.0080           0
   14192 TIP3 2096 TIP3 OH2  OT    -0.834000       15.9994           0
   14193 TIP3 2096 TIP3 H1   HT     0.417000        1.0080           0
   14194 TIP3 2096 TIP3 H2   HT     0.417000        1.0080           0
   14195 TIP3 2097 TIP3 OH2  OT    -0.834000       15.9994           0
   14196 TIP3 2097 TIP3 H1   HT     0.417000        1.0080           0
   14197 TIP3 2097 TIP3 H2   HT     0.417000        1.0080           0
   14198 TIP3 2098 TIP3 OH2  OT    -0.834000       15.9994           0
   14199 TIP3 2098 TIP3 H1   HT     0.417000        1.0080           0
   14200 TIP3 2098 TIP3 H2   HT     0.417000        1.0080           0
   14201 TIP3 2099 TIP3 OH2  OT    -0.834000       15.9994           0
   14202 TIP3 2099 TIP3 H1   HT     0.417000        1.0080           0
   14203 TIP3 2099 TIP3 H2   HT     0.417000        1.0080           0
   14204 TIP3 2100 TIP3 OH2  OT    -0.834000       15.9994           0
   14205 TIP3 2100 TIP3 H1   HT     0.417000        1.0080           0
   14206 TIP3 2100 TIP3 H2   HT     0.417000        1.0080           0
   14207 TIP3 2101 TIP3 OH2  OT    -0.834000       15.9994           0
   14208 TIP3 2101 TIP3 H1   HT     0.417000        1.0080           0
   14209 TIP3 2101 TIP3 H2   HT     0.417000        1.0080           0
   14210 TIP3 2102 TIP3 OH2  OT    -0.834000       15.9994           0
   14211 TIP3 2102 TIP3 H1   HT     0.417000        1.0080           0
   14212 TIP3 2102 TIP3 H2   HT     0.417000        1.0080           0
   14213 TIP3 2103 TIP3 OH2  OT    -0.834000       15.9994           0
   14214 TIP3 2103 TIP3 H1   HT     0.417000        1.0080           0
   14215 TIP3 2103 TIP3 H2   HT     0.417000        1.0080           0
   14216 TIP3 2104 TIP3 OH2  OT    -0.834000       15.9994           0
   14217 TIP3 2104 TIP3 H1   HT     0.417000        1.0080           0
   14218 TIP3 2104 TIP3 H2   HT     0.417000        1.0080           0
   14219 TIP3 2105 TIP3 OH2  OT    -0.834000       15.9994           0
   14220 TIP3 2105 TIP3 H1   HT     0.417000        1.0080           0
   14221 TIP3 2105 TIP3 H2   HT     0.417000        1.0080           0
   14222 TIP3 2106 TIP3 OH2  OT    -0.834000       15.9994           0
   14223 TIP3 2106 TIP3 H1   HT     0.417000        1.0080           0
   14224 TIP3 2106 TIP3 H2   HT     0.417000        1.0080           0
   14225 TIP3 2107 TIP3 OH2  OT    -0.834000       15.9994           0
   14226 TIP3 2107 TIP3 H1   HT     0.417000        1.0080           0
   14227 TIP3 2107 TIP3 H2   HT     0.417000        1.0080           0
   14228 TIP3 2108 TIP3 OH2  OT    -0.834000       15.9994           0
   14229 TIP3 2108 TIP3 H1   HT     0.417000        1.0080           0
   14230 TIP3 2108 TIP3 H2   HT     0.417000        1.0080           0
   14231 TIP3 2109 TIP3 OH2  OT    -0.834000       15.9994           0
   14232 TIP3 2109 TIP3 H1   HT     0.417000        1.0080           0
   14233 TIP3 2109 TIP3 H2   HT     0.417000        1.0080           0
   14234 TIP3 2110 TIP3 OH2  OT    -0.834000       15.9994           0
   14235 TIP3 2110 TIP3 H1   HT     0.417000        1.0080           0
   14236 TIP3 2110 TIP3 H2   HT     0.417000        1.0080           0
   14237 TIP3 2111 TIP3 OH2  OT    -0.834000       15.9994           0
   14238 TIP3 2111 TIP3 H1   HT     0.417000        1.0080           0
   14239 TIP3 2111 TIP3 H2   HT     0.417000        1.0080           0
   14240 TIP3 2112 TIP3 OH2  OT    -0.834000       15.9994           0
   14241 TIP3 2112 TIP3 H1   HT     0.417000        1.0080           0
   14242 TIP3 2112 TIP3 H2   HT     0.417000        1.0080           0
   14243 TIP3 2113 TIP3 OH2  OT    -0.834000       15.9994           0
   14244 TIP3 2113 TIP3 H1   HT     0.417000        1.0080           0
   14245 TIP3 2113 TIP3 H2   HT     0.417000        1.0080           0
   14246 TIP3 2114 TIP3 OH2  OT    -0.834000       15.9994           0
   14247 TIP3 2114 TIP3 H1   HT     0.417000        1.0080           0
   14248 TIP3 2114 TIP3 H2   HT     0.417000        1.0080           0
   14249 TIP3 2115 TIP3 OH2  OT    -0.834000       15.9994           0
   14250 TIP3 2115 TIP3 H1   HT     0.417000        1.0080           0
   14251 TIP3 2115 TIP3 H2   HT     0.417000        1.0080           0
   14252 TIP3 2116 TIP3 OH2  OT    -0.834000       15.9994           0
   14253 TIP3 2116 TIP3 H1   HT     0.417000        1.0080           0
   14254 TIP3 2116 TIP3 H2   HT     0.417000        1.0080           0
   14255 TIP3 2117 TIP3 OH2  OT    -0.834000       15.9994           0
   14256 TIP3 2117 TIP3 H1   HT     0.417000        1.0080           0
   14257 TIP3 2117 TIP3 H2   HT     0.417000        1.0080           0
   14258 TIP3 2118 TIP3 OH2  OT    -0.834000       15.9994           0
   14259 TIP3 2118 TIP3 H1   HT     0.417000        1.0080           0
   14260 TIP3 2118 TIP3 H2   HT     0.417000        1.0080           0
   14261 TIP3 2119 TIP3 OH2  OT    -0.834000       15.9994           0
   14262 TIP3 2119 TIP3 H1   HT     0.417000        1.0080           0
   14263 TIP3 2119 TIP3 H2   HT     0.417000        1.0080           0
   14264 TIP3 2120 TIP3 OH2  OT    -0.834000       15.9994           0
   14265 TIP3 2120 TIP3 H1   HT     0.417000        1.0080           0
   14266 TIP3 2120 TIP3 H2   HT     0.417000        1.0080           0
   14267 TIP3 2121 TIP3 OH2  OT    -0.834000       15.9994           0
   14268 TIP3 2121 TIP3 H1   HT     0.417000        1.0080           0
   14269 TIP3 2121 TIP3 H2   HT     0.417000        1.0080           0
   14270 TIP3 2122 TIP3 OH2  OT    -0.834000       15.9994           0
   14271 TIP3 2122 TIP3 H1   HT     0.417000        1.0080           0
   14272 TIP3 2122 TIP3 H2   HT     0.417000        1.0080           0
   14273 TIP3 2123 TIP3 OH2  OT    -0.834000       15.9994           0
   14274 TIP3 2123 TIP3 H1   HT     0.417000        1.0080           0
   14275 TIP3 2123 TIP3 H2   HT     0.417000        1.0080           0
   14276 TIP3 2124 TIP3 OH2  OT    -0.834000       15.9994           0
   14277 TIP3 2124 TIP3 H1   HT     0.417000        1.0080           0
   14278 TIP3 2124 TIP3 H2   HT     0.417000        1.0080           0
   14279 TIP3 2125 TIP3 OH2  OT    -0.834000       15.9994           0
   14280 TIP3 2125 TIP3 H1   HT     0.417000        1.0080           0
   14281 TIP3 2125 TIP3 H2   HT     0.417000        1.0080           0
   14282 TIP3 2126 TIP3 OH2  OT    -0.834000       15.9994           0
   14283 TIP3 2126 TIP3 H1   HT     0.417000        1.0080           0
   14284 TIP3 2126 TIP3 H2   HT     0.417000        1.0080           0
   14285 TIP3 2127 TIP3 OH2  OT    -0.834000       15.9994           0
   14286 TIP3 2127 TIP3 H1   HT     0.417000        1.0080           0
   14287 TIP3 2127 TIP3 H2   HT     0.417000        1.0080           0
   14288 TIP3 2128 TIP3 OH2  OT    -0.834000       15.9994           0
   14289 TIP3 2128 TIP3 H1   HT     0.417000        1.0080           0
   14290 TIP3 2128 TIP3 H2   HT     0.417000        1.0080           0
   14291 TIP3 2129 TIP3 OH2  OT    -0.834000       15.9994           0
   14292 TIP3 2129 TIP3 H1   HT     0.417000        1.0080           0
   14293 TIP3 2129 TIP3 H2   HT     0.417000        1.0080           0
   14294 TIP3 2130 TIP3 OH2  OT    -0.834000       15.9994           0
   14295 TIP3 2130 TIP3 H1   HT     0.417000        1.0080           0
   14296 TIP3 2130 TIP3 H2   HT     0.417000        1.0080           0
   14297 TIP3 2131 TIP3 OH2  OT    -0.834000       15.9994           0
   14298 TIP3 2131 TIP3 H1   HT     0.417000        1.0080           0
   14299 TIP3 2131 TIP3 H2   HT     0.417000        1.0080           0
   14300 TIP3 2132 TIP3 OH2  OT    -0.834000       15.9994           0
   14301 TIP3 2132 TIP3 H1   HT     0.417000        1.0080           0
   14302 TIP3 2132 TIP3 H2   HT     0.417000        1.0080           0
   14303 TIP3 2133 TIP3 OH2  OT    -0.834000       15.9994           0
   14304 TIP3 2133 TIP3 H1   HT     0.417000        1.0080           0
   14305 TIP3 2133 TIP3 H2   HT     0.417000        1.0080           0
   14306 TIP3 2134 TIP3 OH2  OT    -0.834000       15.9994           0
   14307 TIP3 2134 TIP3 H1   HT     0.417000        1.0080           0
   14308 TIP3 2134 TIP3 H2   HT     0.417000        1.0080           0
   14309 TIP3 2135 TIP3 OH2  OT    -0.834000       15.9994           0
   14310 TIP3 2135 TIP3 H1   HT     0.417000        1.0080           0
   14311 TIP3 2135 TIP3 H2   HT     0.417000        1.0080           0
   14312 TIP3 2136 TIP3 OH2  OT    -0.834000       15.9994           0
   14313 TIP3 2136 TIP3 H1   HT     0.417000        1.0080           0
   14314 TIP3 2136 TIP3 H2   HT     0.417000        1.0080           0
   14315 TIP3 2137 TIP3 OH2  OT    -0.834000       15.9994           0
   14316 TIP3 2137 TIP3 H1   HT     0.417000        1.0080           0
   14317 TIP3 2137 TIP3 H2   HT     0.417000        1.0080           0
   14318 TIP3 2138 TIP3 OH2  OT    -0.834000       15.9994           0
   14319 TIP3 2138 TIP3 H1   HT     0.417000        1.0080           0
   14320 TIP3 2138 TIP3 H2   HT     0.417000        1.0080           0
   14321 TIP3 2139 TIP3 OH2  OT    -0.834000       15.9994           0
   14322 TIP3 2139 TIP3 H1   HT     0.417000        1.0080           0
   14323 TIP3 2139 TIP3 H2   HT     0.417000        1.0080           0
   14324 TIP3 2140 TIP3 OH2  OT    -0.834000       15.9994           0
   14325 TIP3 2140 TIP3 H1   HT     0.417000        1.0080           0
   14326 TIP3 2140 TIP3 H2   HT     0.417000        1.0080           0
   14327 TIP3 2141 TIP3 OH2  OT    -0.834000       15.9994           0
   14328 TIP3 2141 TIP3 H1   HT     0.417000        1.0080           0
   14329 TIP3 2141 TIP3 H2   HT     0.417000        1.0080           0
   14330 TIP3 2142 TIP3 OH2  OT    -0.834000       15.9994           0
   14331 TIP3 2142 TIP3 H1   HT     0.417000        1.0080           0
   14332 TIP3 2142 TIP3 H2   HT     0.417000        1.0080           0
   14333 TIP3 2143 TIP3 OH2  OT    -0.834000       15.9994           0
   14334 TIP3 2143 TIP3 H1   HT     0.417000        1.0080           0
   14335 TIP3 2143 TIP3 H2   HT     0.417000        1.0080           0
   14336 TIP3 2144 TIP3 OH2  OT    -0.834000       15.9994           0
   14337 TIP3 2144 TIP3 H1   HT     0.417000        1.0080           0
   14338 TIP3 2144 TIP3 H2   HT     0.417000        1.0080           0
   14339 TIP3 2145 TIP3 OH2  OT    -0.834000       15.9994           0
   14340 TIP3 2145 TIP3 H1   HT     0.417000        1.0080           0
   14341 TIP3 2145 TIP3 H2   HT     0.417000        1.0080           0
   14342 TIP3 2146 TIP3 OH2  OT    -0.834000       15.9994           0
   14343 TIP3 2146 TIP3 H1   HT     0.417000        1.0080           0
   14344 TIP3 2146 TIP3 H2   HT     0.417000        1.0080           0
   14345 TIP3 2147 TIP3 OH2  OT    -0.834000       15.9994           0
   14346 TIP3 2147 TIP3 H1   HT     0.417000        1.0080           0
   14347 TIP3 2147 TIP3 H2   HT     0.417000        1.0080           0
   14348 TIP3 2148 TIP3 OH2  OT    -0.834000       15.9994           0
   14349 TIP3 2148 TIP3 H1   HT     0.417000        1.0080           0
   14350 TIP3 2148 TIP3 H2   HT     0.417000        1.0080           0
   14351 TIP3 2149 TIP3 OH2  OT    -0.834000       15.9994           0
   14352 TIP3 2149 TIP3 H1   HT     0.417000        1.0080           0
   14353 TIP3 2149 TIP3 H2   HT     0.417000        1.0080           0
   14354 TIP3 2150 TIP3 OH2  OT    -0.834000       15.9994           0
   14355 TIP3 2150 TIP3 H1   HT     0.417000        1.0080           0
   14356 TIP3 2150 TIP3 H2   HT     0.417000        1.0080           0
   14357 TIP3 2151 TIP3 OH2  OT    -0.834000       15.9994           0
   14358 TIP3 2151 TIP3 H1   HT     0.417000        1.0080           0
   14359 TIP3 2151 TIP3 H2   HT     0.417000        1.0080           0
   14360 TIP3 2152 TIP3 OH2  OT    -0.834000       15.9994           0
   14361 TIP3 2152 TIP3 H1   HT     0.417000        1.0080           0
   14362 TIP3 2152 TIP3 H2   HT     0.417000        1.0080           0
   14363 TIP3 2153 TIP3 OH2  OT    -0.834000       15.9994           0
   14364 TIP3 2153 TIP3 H1   HT     0.417000        1.0080           0
   14365 TIP3 2153 TIP3 H2   HT     0.417000        1.0080           0
   14366 TIP3 2154 TIP3 OH2  OT    -0.834000       15.9994           0
   14367 TIP3 2154 TIP3 H1   HT     0.417000        1.0080           0
   14368 TIP3 2154 TIP3 H2   HT     0.417000        1.0080           0
   14369 TIP3 2155 TIP3 OH2  OT    -0.834000       15.9994           0
   14370 TIP3 2155 TIP3 H1   HT     0.417000        1.0080           0
   14371 TIP3 2155 TIP3 H2   HT     0.417000        1.0080           0
   14372 TIP3 2156 TIP3 OH2  OT    -0.834000       15.9994           0
   14373 TIP3 2156 TIP3 H1   HT     0.417000        1.0080           0
   14374 TIP3 2156 TIP3 H2   HT     0.417000        1.0080           0
   14375 TIP3 2157 TIP3 OH2  OT    -0.834000       15.9994           0
   14376 TIP3 2157 TIP3 H1   HT     0.417000        1.0080           0
   14377 TIP3 2157 TIP3 H2   HT     0.417000        1.0080           0
   14378 TIP3 2158 TIP3 OH2  OT    -0.834000       15.9994           0
   14379 TIP3 2158 TIP3 H1   HT     0.417000        1.0080           0
   14380 TIP3 2158 TIP3 H2   HT     0.417000        1.0080           0
   14381 TIP3 2159 TIP3 OH2  OT    -0.834000       15.9994           0
   14382 TIP3 2159 TIP3 H1   HT     0.417000        1.0080           0
   14383 TIP3 2159 TIP3 H2   HT     0.417000        1.0080           0
   14384 TIP3 2160 TIP3 OH2  OT    -0.834000       15.9994           0
   14385 TIP3 2160 TIP3 H1   HT     0.417000        1.0080           0
   14386 TIP3 2160 TIP3 H2   HT     0.417000        1.0080           0
   14387 TIP3 2161 TIP3 OH2  OT    -0.834000       15.9994           0
   14388 TIP3 2161 TIP3 H1   HT     0.417000        1.0080           0
   14389 TIP3 2161 TIP3 H2   HT     0.417000        1.0080           0
   14390 TIP3 2162 TIP3 OH2  OT    -0.834000       15.9994           0
   14391 TIP3 2162 TIP3 H1   HT     0.417000        1.0080           0
   14392 TIP3 2162 TIP3 H2   HT     0.417000        1.0080           0
   14393 TIP3 2163 TIP3 OH2  OT    -0.834000       15.9994           0
   14394 TIP3 2163 TIP3 H1   HT     0.417000        1.0080           0
   14395 TIP3 2163 TIP3 H2   HT     0.417000        1.0080           0
   14396 TIP3 2164 TIP3 OH2  OT    -0.834000       15.9994           0
   14397 TIP3 2164 TIP3 H1   HT     0.417000        1.0080           0
   14398 TIP3 2164 TIP3 H2   HT     0.417000        1.0080           0
   14399 TIP3 2165 TIP3 OH2  OT    -0.834000       15.9994           0
   14400 TIP3 2165 TIP3 H1   HT     0.417000        1.0080           0
   14401 TIP3 2165 TIP3 H2   HT     0.417000        1.0080           0
   14402 TIP3 2166 TIP3 OH2  OT    -0.834000       15.9994           0
   14403 TIP3 2166 TIP3 H1   HT     0.417000        1.0080           0
   14404 TIP3 2166 TIP3 H2   HT     0.417000        1.0080           0
   14405 TIP3 2167 TIP3 OH2  OT    -0.834000       15.9994           0
   14406 TIP3 2167 TIP3 H1   HT     0.417000        1.0080           0
   14407 TIP3 2167 TIP3 H2   HT     0.417000        1.0080           0
   14408 TIP3 2168 TIP3 OH2  OT    -0.834000       15.9994           0
   14409 TIP3 2168 TIP3 H1   HT     0.417000        1.0080           0
   14410 TIP3 2168 TIP3 H2   HT     0.417000        1.0080           0
   14411 TIP3 2169 TIP3 OH2  OT    -0.834000       15.9994           0
   14412 TIP3 2169 TIP3 H1   HT     0.417000        1.0080           0
   14413 TIP3 2169 TIP3 H2   HT     0.417000        1.0080           0
   14414 TIP3 2170 TIP3 OH2  OT    -0.834000       15.9994           0
   14415 TIP3 2170 TIP3 H1   HT     0.417000        1.0080           0
   14416 TIP3 2170 TIP3 H2   HT     0.417000        1.0080           0
   14417 TIP3 2171 TIP3 OH2  OT    -0.834000       15.9994           0
   14418 TIP3 2171 TIP3 H1   HT     0.417000        1.0080           0
   14419 TIP3 2171 TIP3 H2   HT     0.417000        1.0080           0
   14420 TIP3 2172 TIP3 OH2  OT    -0.834000       15.9994           0
   14421 TIP3 2172 TIP3 H1   HT     0.417000        1.0080           0
   14422 TIP3 2172 TIP3 H2   HT     0.417000        1.0080           0
   14423 TIP3 2173 TIP3 OH2  OT    -0.834000       15.9994           0
   14424 TIP3 2173 TIP3 H1   HT     0.417000        1.0080           0
   14425 TIP3 2173 TIP3 H2   HT     0.417000        1.0080           0
   14426 TIP3 2174 TIP3 OH2  OT    -0.834000       15.9994           0
   14427 TIP3 2174 TIP3 H1   HT     0.417000        1.0080           0
   14428 TIP3 2174 TIP3 H2   HT     0.417000        1.0080           0
   14429 TIP3 2175 TIP3 OH2  OT    -0.834000       15.9994           0
   14430 TIP3 2175 TIP3 H1   HT     0.417000        1.0080           0
   14431 TIP3 2175 TIP3 H2   HT     0.417000        1.0080           0
   14432 TIP3 2176 TIP3 OH2  OT    -0.834000       15.9994           0
   14433 TIP3 2176 TIP3 H1   HT     0.417000        1.0080           0
   14434 TIP3 2176 TIP3 H2   HT     0.417000        1.0080           0
   14435 TIP3 2177 TIP3 OH2  OT    -0.834000       15.9994           0
   14436 TIP3 2177 TIP3 H1   HT     0.417000        1.0080           0
   14437 TIP3 2177 TIP3 H2   HT     0.417000        1.0080           0
   14438 TIP3 2178 TIP3 OH2  OT    -0.834000       15.9994           0
   14439 TIP3 2178 TIP3 H1   HT     0.417000        1.0080           0
   14440 TIP3 2178 TIP3 H2   HT     0.417000        1.0080           0
   14441 TIP3 2179 TIP3 OH2  OT    -0.834000       15.9994           0
   14442 TIP3 2179 TIP3 H1   HT     0.417000        1.0080           0
   14443 TIP3 2179 TIP3 H2   HT     0.417000        1.0080           0
   14444 TIP3 2180 TIP3 OH2  OT    -0.834000       15.9994           0
   14445 TIP3 2180 TIP3 H1   HT     0.417000        1.0080           0
   14446 TIP3 2180 TIP3 H2   HT     0.417000        1.0080           0
   14447 TIP3 2181 TIP3 OH2  OT    -0.834000       15.9994           0
   14448 TIP3 2181 TIP3 H1   HT     0.417000        1.0080           0
   14449 TIP3 2181 TIP3 H2   HT     0.417000        1.0080           0
   14450 TIP3 2182 TIP3 OH2  OT    -0.834000       15.9994           0
   14451 TIP3 2182 TIP3 H1   HT     0.417000        1.0080           0
   14452 TIP3 2182 TIP3 H2   HT     0.417000        1.0080           0
   14453 TIP3 2183 TIP3 OH2  OT    -0.834000       15.9994           0
   14454 TIP3 2183 TIP3 H1   HT     0.417000        1.0080           0
   14455 TIP3 2183 TIP3 H2   HT     0.417000        1.0080           0
   14456 TIP3 2184 TIP3 OH2  OT    -0.834000       15.9994           0
   14457 TIP3 2184 TIP3 H1   HT     0.417000        1.0080           0
   14458 TIP3 2184 TIP3 H2   HT     0.417000        1.0080           0
   14459 TIP3 2185 TIP3 OH2  OT    -0.834000       15.9994           0
   14460 TIP3 2185 TIP3 H1   HT     0.417000        1.0080           0
   14461 TIP3 2185 TIP3 H2   HT     0.417000        1.0080           0
   14462 TIP3 2186 TIP3 OH2  OT    -0.834000       15.9994           0
   14463 TIP3 2186 TIP3 H1   HT     0.417000        1.0080           0
   14464 TIP3 2186 TIP3 H2   HT     0.417000        1.0080           0
   14465 TIP3 2187 TIP3 OH2  OT    -0.834000       15.9994           0
   14466 TIP3 2187 TIP3 H1   HT     0.417000        1.0080           0
   14467 TIP3 2187 TIP3 H2   HT     0.417000        1.0080           0
   14468 TIP3 2188 TIP3 OH2  OT    -0.834000       15.9994           0
   14469 TIP3 2188 TIP3 H1   HT     0.417000        1.0080           0
   14470 TIP3 2188 TIP3 H2   HT     0.417000        1.0080           0
   14471 TIP3 2189 TIP3 OH2  OT    -0.834000       15.9994           0
   14472 TIP3 2189 TIP3 H1   HT     0.417000        1.0080           0
   14473 TIP3 2189 TIP3 H2   HT     0.417000        1.0080           0
   14474 TIP3 2190 TIP3 OH2  OT    -0.834000       15.9994           0
   14475 TIP3 2190 TIP3 H1   HT     0.417000        1.0080           0
   14476 TIP3 2190 TIP3 H2   HT     0.417000        1.0080           0
   14477 TIP3 2191 TIP3 OH2  OT    -0.834000       15.9994           0
   14478 TIP3 2191 TIP3 H1   HT     0.417000        1.0080           0
   14479 TIP3 2191 TIP3 H2   HT     0.417000        1.0080           0
   14480 TIP3 2192 TIP3 OH2  OT    -0.834000       15.9994           0
   14481 TIP3 2192 TIP3 H1   HT     0.417000        1.0080           0
   14482 TIP3 2192 TIP3 H2   HT     0.417000        1.0080           0
   14483 TIP3 2193 TIP3 OH2  OT    -0.834000       15.9994           0
   14484 TIP3 2193 TIP3 H1   HT     0.417000        1.0080           0
   14485 TIP3 2193 TIP3 H2   HT     0.417000        1.0080           0
   14486 TIP3 2194 TIP3 OH2  OT    -0.834000       15.9994           0
   14487 TIP3 2194 TIP3 H1   HT     0.417000        1.0080           0
   14488 TIP3 2194 TIP3 H2   HT     0.417000        1.0080           0
   14489 TIP3 2195 TIP3 OH2  OT    -0.834000       15.9994           0
   14490 TIP3 2195 TIP3 H1   HT     0.417000        1.0080           0
   14491 TIP3 2195 TIP3 H2   HT     0.417000        1.0080           0
   14492 TIP3 2196 TIP3 OH2  OT    -0.834000       15.9994           0
   14493 TIP3 2196 TIP3 H1   HT     0.417000        1.0080           0
   14494 TIP3 2196 TIP3 H2   HT     0.417000        1.0080           0
   14495 TIP3 2197 TIP3 OH2  OT    -0.834000       15.9994           0
   14496 TIP3 2197 TIP3 H1   HT     0.417000        1.0080           0
   14497 TIP3 2197 TIP3 H2   HT     0.417000        1.0080           0
   14498 TIP3 2198 TIP3 OH2  OT    -0.834000       15.9994           0
   14499 TIP3 2198 TIP3 H1   HT     0.417000        1.0080           0
   14500 TIP3 2198 TIP3 H2   HT     0.417000        1.0080           0
   14501 TIP3 2199 TIP3 OH2  OT    -0.834000       15.9994           0
   14502 TIP3 2199 TIP3 H1   HT     0.417000        1.0080           0
   14503 TIP3 2199 TIP3 H2   HT     0.417000        1.0080           0
   14504 TIP3 2200 TIP3 OH2  OT    -0.834000       15.9994           0
   14505 TIP3 2200 TIP3 H1   HT     0.417000        1.0080           0
   14506 TIP3 2200 TIP3 H2   HT     0.417000        1.0080           0
   14507 TIP3 2201 TIP3 OH2  OT    -0.834000       15.9994           0
   14508 TIP3 2201 TIP3 H1   HT     0.417000        1.0080           0
   14509 TIP3 2201 TIP3 H2   HT     0.417000        1.0080           0
   14510 TIP3 2202 TIP3 OH2  OT    -0.834000       15.9994           0
   14511 TIP3 2202 TIP3 H1   HT     0.417000        1.0080           0
   14512 TIP3 2202 TIP3 H2   HT     0.417000        1.0080           0
   14513 TIP3 2203 TIP3 OH2  OT    -0.834000       15.9994           0
   14514 TIP3 2203 TIP3 H1   HT     0.417000        1.0080           0
   14515 TIP3 2203 TIP3 H2   HT     0.417000        1.0080           0
   14516 TIP3 2204 TIP3 OH2  OT    -0.834000       15.9994           0
   14517 TIP3 2204 TIP3 H1   HT     0.417000        1.0080           0
   14518 TIP3 2204 TIP3 H2   HT     0.417000        1.0080           0
   14519 TIP3 2205 TIP3 OH2  OT    -0.834000       15.9994           0
   14520 TIP3 2205 TIP3 H1   HT     0.417000        1.0080           0
   14521 TIP3 2205 TIP3 H2   HT     0.417000        1.0080           0
   14522 TIP3 2206 TIP3 OH2  OT    -0.834000       15.9994           0
   14523 TIP3 2206 TIP3 H1   HT     0.417000        1.0080           0
   14524 TIP3 2206 TIP3 H2   HT     0.417000        1.0080           0
   14525 TIP3 2207 TIP3 OH2  OT    -0.834000       15.9994           0
   14526 TIP3 2207 TIP3 H1   HT     0.417000        1.0080           0
   14527 TIP3 2207 TIP3 H2   HT     0.417000        1.0080           0
   14528 TIP3 2208 TIP3 OH2  OT    -0.834000       15.9994           0
   14529 TIP3 2208 TIP3 H1   HT     0.417000        1.0080           0
   14530 TIP3 2208 TIP3 H2   HT     0.417000        1.0080           0
   14531 TIP3 2209 TIP3 OH2  OT    -0.834000       15.9994           0
   14532 TIP3 2209 TIP3 H1   HT     0.417000        1.0080           0
   14533 TIP3 2209 TIP3 H2   HT     0.417000        1.0080           0
   14534 TIP3 2210 TIP3 OH2  OT    -0.834000       15.9994           0
   14535 TIP3 2210 TIP3 H1   HT     0.417000        1.0080           0
   14536 TIP3 2210 TIP3 H2   HT     0.417000        1.0080           0
   14537 TIP3 2211 TIP3 OH2  OT    -0.834000       15.9994           0
   14538 TIP3 2211 TIP3 H1   HT     0.417000        1.0080           0
   14539 TIP3 2211 TIP3 H2   HT     0.417000        1.0080           0
   14540 TIP3 2212 TIP3 OH2  OT    -0.834000       15.9994           0
   14541 TIP3 2212 TIP3 H1   HT     0.417000        1.0080           0
   14542 TIP3 2212 TIP3 H2   HT     0.417000        1.0080           0
   14543 TIP3 2213 TIP3 OH2  OT    -0.834000       15.9994           0
   14544 TIP3 2213 TIP3 H1   HT     0.417000        1.0080           0
   14545 TIP3 2213 TIP3 H2   HT     0.417000        1.0080           0
   14546 TIP3 2214 TIP3 OH2  OT    -0.834000       15.9994           0
   14547 TIP3 2214 TIP3 H1   HT     0.417000        1.0080           0
   14548 TIP3 2214 TIP3 H2   HT     0.417000        1.0080           0
   14549 TIP3 2215 TIP3 OH2  OT    -0.834000       15.9994           0
   14550 TIP3 2215 TIP3 H1   HT     0.417000        1.0080           0
   14551 TIP3 2215 TIP3 H2   HT     0.417000        1.0080           0
   14552 TIP3 2216 TIP3 OH2  OT    -0.834000       15.9994           0
   14553 TIP3 2216 TIP3 H1   HT     0.417000        1.0080           0
   14554 TIP3 2216 TIP3 H2   HT     0.417000        1.0080           0
   14555 TIP3 2217 TIP3 OH2  OT    -0.834000       15.9994           0
   14556 TIP3 2217 TIP3 H1   HT     0.417000        1.0080           0
   14557 TIP3 2217 TIP3 H2   HT     0.417000        1.0080           0
   14558 TIP3 2218 TIP3 OH2  OT    -0.834000       15.9994           0
   14559 TIP3 2218 TIP3 H1   HT     0.417000        1.0080           0
   14560 TIP3 2218 TIP3 H2   HT     0.417000        1.0080           0
   14561 TIP3 2219 TIP3 OH2  OT    -0.834000       15.9994           0
   14562 TIP3 2219 TIP3 H1   HT     0.417000        1.0080           0
   14563 TIP3 2219 TIP3 H2   HT     0.417000        1.0080           0
   14564 TIP3 2220 TIP3 OH2  OT    -0.834000       15.9994           0
   14565 TIP3 2220 TIP3 H1   HT     0.417000        1.0080           0
   14566 TIP3 2220 TIP3 H2   HT     0.417000        1.0080           0
   14567 TIP3 2221 TIP3 OH2  OT    -0.834000       15.9994           0
   14568 TIP3 2221 TIP3 H1   HT     0.417000        1.0080           0
   14569 TIP3 2221 TIP3 H2   HT     0.417000        1.0080           0
   14570 TIP3 2222 TIP3 OH2  OT    -0.834000       15.9994           0
   14571 TIP3 2222 TIP3 H1   HT     0.417000        1.0080           0
   14572 TIP3 2222 TIP3 H2   HT     0.417000        1.0080           0
   14573 TIP3 2223 TIP3 OH2  OT    -0.834000       15.9994           0
   14574 TIP3 2223 TIP3 H1   HT     0.417000        1.0080           0
   14575 TIP3 2223 TIP3 H2   HT     0.417000        1.0080           0
   14576 TIP3 2224 TIP3 OH2  OT    -0.834000       15.9994           0
   14577 TIP3 2224 TIP3 H1   HT     0.417000        1.0080           0
   14578 TIP3 2224 TIP3 H2   HT     0.417000        1.0080           0
   14579 TIP3 2225 TIP3 OH2  OT    -0.834000       15.9994           0
   14580 TIP3 2225 TIP3 H1   HT     0.417000        1.0080           0
   14581 TIP3 2225 TIP3 H2   HT     0.417000        1.0080           0
   14582 TIP3 2226 TIP3 OH2  OT    -0.834000       15.9994           0
   14583 TIP3 2226 TIP3 H1   HT     0.417000        1.0080           0
   14584 TIP3 2226 TIP3 H2   HT     0.417000        1.0080           0
   14585 TIP3 2227 TIP3 OH2  OT    -0.834000       15.9994           0
   14586 TIP3 2227 TIP3 H1   HT     0.417000        1.0080           0
   14587 TIP3 2227 TIP3 H2   HT     0.417000        1.0080           0
   14588 TIP3 2228 TIP3 OH2  OT    -0.834000       15.9994           0
   14589 TIP3 2228 TIP3 H1   HT     0.417000        1.0080           0
   14590 TIP3 2228 TIP3 H2   HT     0.417000        1.0080           0
   14591 TIP3 2229 TIP3 OH2  OT    -0.834000       15.9994           0
   14592 TIP3 2229 TIP3 H1   HT     0.417000        1.0080           0
   14593 TIP3 2229 TIP3 H2   HT     0.417000        1.0080           0
   14594 TIP3 2230 TIP3 OH2  OT    -0.834000       15.9994           0
   14595 TIP3 2230 TIP3 H1   HT     0.417000        1.0080           0
   14596 TIP3 2230 TIP3 H2   HT     0.417000        1.0080           0
   14597 TIP3 2231 TIP3 OH2  OT    -0.834000       15.9994           0
   14598 TIP3 2231 TIP3 H1   HT     0.417000        1.0080           0
   14599 TIP3 2231 TIP3 H2   HT     0.417000        1.0080           0
   14600 TIP3 2232 TIP3 OH2  OT    -0.834000       15.9994           0
   14601 TIP3 2232 TIP3 H1   HT     0.417000        1.0080           0
   14602 TIP3 2232 TIP3 H2   HT     0.417000        1.0080           0
   14603 TIP3 2233 TIP3 OH2  OT    -0.834000       15.9994           0
   14604 TIP3 2233 TIP3 H1   HT     0.417000        1.0080           0
   14605 TIP3 2233 TIP3 H2   HT     0.417000        1.0080           0
   14606 TIP3 2234 TIP3 OH2  OT    -0.834000       15.9994           0
   14607 TIP3 2234 TIP3 H1   HT     0.417000        1.0080           0
   14608 TIP3 2234 TIP3 H2   HT     0.417000        1.0080           0
   14609 TIP3 2235 TIP3 OH2  OT    -0.834000       15.9994           0
   14610 TIP3 2235 TIP3 H1   HT     0.417000        1.0080           0
   14611 TIP3 2235 TIP3 H2   HT     0.417000        1.0080           0
   14612 TIP3 2236 TIP3 OH2  OT    -0.834000       15.9994           0
   14613 TIP3 2236 TIP3 H1   HT     0.417000        1.0080           0
   14614 TIP3 2236 TIP3 H2   HT     0.417000        1.0080           0
   14615 TIP3 2237 TIP3 OH2  OT    -0.834000       15.9994           0
   14616 TIP3 2237 TIP3 H1   HT     0.417000        1.0080           0
   14617 TIP3 2237 TIP3 H2   HT     0.417000        1.0080           0
   14618 TIP3 2238 TIP3 OH2  OT    -0.834000       15.9994           0
   14619 TIP3 2238 TIP3 H1   HT     0.417000        1.0080           0
   14620 TIP3 2238 TIP3 H2   HT     0.417000        1.0080           0
   14621 TIP3 2239 TIP3 OH2  OT    -0.834000       15.9994           0
   14622 TIP3 2239 TIP3 H1   HT     0.417000        1.0080           0
   14623 TIP3 2239 TIP3 H2   HT     0.417000        1.0080           0
   14624 TIP3 2240 TIP3 OH2  OT    -0.834000       15.9994           0
   14625 TIP3 2240 TIP3 H1   HT     0.417000        1.0080           0
   14626 TIP3 2240 TIP3 H2   HT     0.417000        1.0080           0
   14627 TIP3 2241 TIP3 OH2  OT    -0.834000       15.9994           0
   14628 TIP3 2241 TIP3 H1   HT     0.417000        1.0080           0
   14629 TIP3 2241 TIP3 H2   HT     0.417000        1.0080           0
   14630 TIP3 2242 TIP3 OH2  OT    -0.834000       15.9994           0
   14631 TIP3 2242 TIP3 H1   HT     0.417000        1.0080           0
   14632 TIP3 2242 TIP3 H2   HT     0.417000        1.0080           0
   14633 TIP3 2243 TIP3 OH2  OT    -0.834000       15.9994           0
   14634 TIP3 2243 TIP3 H1   HT     0.417000        1.0080           0
   14635 TIP3 2243 TIP3 H2   HT     0.417000        1.0080           0
   14636 TIP3 2244 TIP3 OH2  OT    -0.834000       15.9994           0
   14637 TIP3 2244 TIP3 H1   HT     0.417000        1.0080           0
   14638 TIP3 2244 TIP3 H2   HT     0.417000        1.0080           0
   14639 TIP3 2245 TIP3 OH2  OT    -0.834000       15.9994           0
   14640 TIP3 2245 TIP3 H1   HT     0.417000        1.0080           0
   14641 TIP3 2245 TIP3 H2   HT     0.417000        1.0080           0
   14642 TIP3 2246 TIP3 OH2  OT    -0.834000       15.9994           0
   14643 TIP3 2246 TIP3 H1   HT     0.417000        1.0080           0
   14644 TIP3 2246 TIP3 H2   HT     0.417000        1.0080           0
   14645 TIP3 2247 TIP3 OH2  OT    -0.834000       15.9994           0
   14646 TIP3 2247 TIP3 H1   HT     0.417000        1.0080           0
   14647 TIP3 2247 TIP3 H2   HT     0.417000        1.0080           0
   14648 TIP3 2248 TIP3 OH2  OT    -0.834000       15.9994           0
   14649 TIP3 2248 TIP3 H1   HT     0.417000        1.0080           0
   14650 TIP3 2248 TIP3 H2   HT     0.417000        1.0080           0
   14651 TIP3 2249 TIP3 OH2  OT    -0.834000       15.9994           0
   14652 TIP3 2249 TIP3 H1   HT     0.417000        1.0080           0
   14653 TIP3 2249 TIP3 H2   HT     0.417000        1.0080           0
   14654 TIP3 2250 TIP3 OH2  OT    -0.834000       15.9994           0
   14655 TIP3 2250 TIP3 H1   HT     0.417000        1.0080           0
   14656 TIP3 2250 TIP3 H2   HT     0.417000        1.0080           0
   14657 TIP3 2251 TIP3 OH2  OT    -0.834000       15.9994           0
   14658 TIP3 2251 TIP3 H1   HT     0.417000        1.0080           0
   14659 TIP3 2251 TIP3 H2   HT     0.417000        1.0080           0
   14660 TIP3 2252 TIP3 OH2  OT    -0.834000       15.9994           0
   14661 TIP3 2252 TIP3 H1   HT     0.417000        1.0080           0
   14662 TIP3 2252 TIP3 H2   HT     0.417000        1.0080           0
   14663 TIP3 2253 TIP3 OH2  OT    -0.834000       15.9994           0
   14664 TIP3 2253 TIP3 H1   HT     0.417000        1.0080           0
   14665 TIP3 2253 TIP3 H2   HT     0.417000        1.0080           0
   14666 TIP3 2254 TIP3 OH2  OT    -0.834000       15.9994           0
   14667 TIP3 2254 TIP3 H1   HT     0.417000        1.0080           0
   14668 TIP3 2254 TIP3 H2   HT     0.417000        1.0080           0
   14669 TIP3 2255 TIP3 OH2  OT    -0.834000       15.9994           0
   14670 TIP3 2255 TIP3 H1   HT     0.417000        1.0080           0
   14671 TIP3 2255 TIP3 H2   HT     0.417000        1.0080           0
   14672 TIP3 2256 TIP3 OH2  OT    -0.834000       15.9994           0
   14673 TIP3 2256 TIP3 H1   HT     0.417000        1.0080           0
   14674 TIP3 2256 TIP3 H2   HT     0.417000        1.0080           0
   14675 TIP3 2257 TIP3 OH2  OT    -0.834000       15.9994           0
   14676 TIP3 2257 TIP3 H1   HT     0.417000        1.0080           0
   14677 TIP3 2257 TIP3 H2   HT     0.417000        1.0080           0
   14678 TIP3 2258 TIP3 OH2  OT    -0.834000       15.9994           0
   14679 TIP3 2258 TIP3 H1   HT     0.417000        1.0080           0
   14680 TIP3 2258 TIP3 H2   HT     0.417000        1.0080           0
   14681 TIP3 2259 TIP3 OH2  OT    -0.834000       15.9994           0
   14682 TIP3 2259 TIP3 H1   HT     0.417000        1.0080           0
   14683 TIP3 2259 TIP3 H2   HT     0.417000        1.0080           0
   14684 TIP3 2260 TIP3 OH2  OT    -0.834000       15.9994           0
   14685 TIP3 2260 TIP3 H1   HT     0.417000        1.0080           0
   14686 TIP3 2260 TIP3 H2   HT     0.417000        1.0080           0
   14687 TIP3 2261 TIP3 OH2  OT    -0.834000       15.9994           0
   14688 TIP3 2261 TIP3 H1   HT     0.417000        1.0080           0
   14689 TIP3 2261 TIP3 H2   HT     0.417000        1.0080           0
   14690 TIP3 2262 TIP3 OH2  OT    -0.834000       15.9994           0
   14691 TIP3 2262 TIP3 H1   HT     0.417000        1.0080           0
   14692 TIP3 2262 TIP3 H2   HT     0.417000        1.0080           0
   14693 TIP3 2263 TIP3 OH2  OT    -0.834000       15.9994           0
   14694 TIP3 2263 TIP3 H1   HT     0.417000        1.0080           0
   14695 TIP3 2263 TIP3 H2   HT     0.417000        1.0080           0
   14696 TIP3 2264 TIP3 OH2  OT    -0.834000       15.9994           0
   14697 TIP3 2264 TIP3 H1   HT     0.417000        1.0080           0
   14698 TIP3 2264 TIP3 H2   HT     0.417000        1.0080           0
   14699 TIP3 2265 TIP3 OH2  OT    -0.834000       15.9994           0
   14700 TIP3 2265 TIP3 H1   HT     0.417000        1.0080           0
   14701 TIP3 2265 TIP3 H2   HT     0.417000        1.0080           0
   14702 TIP3 2266 TIP3 OH2  OT    -0.834000       15.9994           0
   14703 TIP3 2266 TIP3 H1   HT     0.417000        1.0080           0
   14704 TIP3 2266 TIP3 H2   HT     0.417000        1.0080           0
   14705 TIP3 2267 TIP3 OH2  OT    -0.834000       15.9994           0
   14706 TIP3 2267 TIP3 H1   HT     0.417000        1.0080           0
   14707 TIP3 2267 TIP3 H2   HT     0.417000        1.0080           0
   14708 TIP3 2268 TIP3 OH2  OT    -0.834000       15.9994           0
   14709 TIP3 2268 TIP3 H1   HT     0.417000        1.0080           0
   14710 TIP3 2268 TIP3 H2   HT     0.417000        1.0080           0
   14711 TIP3 2269 TIP3 OH2  OT    -0.834000       15.9994           0
   14712 TIP3 2269 TIP3 H1   HT     0.417000        1.0080           0
   14713 TIP3 2269 TIP3 H2   HT     0.417000        1.0080           0
   14714 TIP3 2270 TIP3 OH2  OT    -0.834000       15.9994           0
   14715 TIP3 2270 TIP3 H1   HT     0.417000        1.0080           0
   14716 TIP3 2270 TIP3 H2   HT     0.417000        1.0080           0
   14717 TIP3 2271 TIP3 OH2  OT    -0.834000       15.9994           0
   14718 TIP3 2271 TIP3 H1   HT     0.417000        1.0080           0
   14719 TIP3 2271 TIP3 H2   HT     0.417000        1.0080           0
   14720 TIP3 2272 TIP3 OH2  OT    -0.834000       15.9994           0
   14721 TIP3 2272 TIP3 H1   HT     0.417000        1.0080           0
   14722 TIP3 2272 TIP3 H2   HT     0.417000        1.0080           0
   14723 TIP3 2273 TIP3 OH2  OT    -0.834000       15.9994           0
   14724 TIP3 2273 TIP3 H1   HT     0.417000        1.0080           0
   14725 TIP3 2273 TIP3 H2   HT     0.417000        1.0080           0
   14726 TIP3 2274 TIP3 OH2  OT    -0.834000       15.9994           0
   14727 TIP3 2274 TIP3 H1   HT     0.417000        1.0080           0
   14728 TIP3 2274 TIP3 H2   HT     0.417000        1.0080           0
   14729 TIP3 2275 TIP3 OH2  OT    -0.834000       15.9994           0
   14730 TIP3 2275 TIP3 H1   HT     0.417000        1.0080           0
   14731 TIP3 2275 TIP3 H2   HT     0.417000        1.0080           0
   14732 TIP3 2276 TIP3 OH2  OT    -0.834000       15.9994           0
   14733 TIP3 2276 TIP3 H1   HT     0.417000        1.0080           0
   14734 TIP3 2276 TIP3 H2   HT     0.417000        1.0080           0
   14735 TIP3 2277 TIP3 OH2  OT    -0.834000       15.9994           0
   14736 TIP3 2277 TIP3 H1   HT     0.417000        1.0080           0
   14737 TIP3 2277 TIP3 H2   HT     0.417000        1.0080           0
   14738 TIP3 2278 TIP3 OH2  OT    -0.834000       15.9994           0
   14739 TIP3 2278 TIP3 H1   HT     0.417000        1.0080           0
   14740 TIP3 2278 TIP3 H2   HT     0.417000        1.0080           0
   14741 TIP3 2279 TIP3 OH2  OT    -0.834000       15.9994           0
   14742 TIP3 2279 TIP3 H1   HT     0.417000        1.0080           0
   14743 TIP3 2279 TIP3 H2   HT     0.417000        1.0080           0
   14744 TIP3 2280 TIP3 OH2  OT    -0.834000       15.9994           0
   14745 TIP3 2280 TIP3 H1   HT     0.417000        1.0080           0
   14746 TIP3 2280 TIP3 H2   HT     0.417000        1.0080           0
   14747 TIP3 2281 TIP3 OH2  OT    -0.834000       15.9994           0
   14748 TIP3 2281 TIP3 H1   HT     0.417000        1.0080           0
   14749 TIP3 2281 TIP3 H2   HT     0.417000        1.0080           0
   14750 TIP3 2282 TIP3 OH2  OT    -0.834000       15.9994           0
   14751 TIP3 2282 TIP3 H1   HT     0.417000        1.0080           0
   14752 TIP3 2282 TIP3 H2   HT     0.417000        1.0080           0
   14753 TIP3 2283 TIP3 OH2  OT    -0.834000       15.9994           0
   14754 TIP3 2283 TIP3 H1   HT     0.417000        1.0080           0
   14755 TIP3 2283 TIP3 H2   HT     0.417000        1.0080           0
   14756 TIP3 2284 TIP3 OH2  OT    -0.834000       15.9994           0
   14757 TIP3 2284 TIP3 H1   HT     0.417000        1.0080           0
   14758 TIP3 2284 TIP3 H2   HT     0.417000        1.0080           0
   14759 TIP3 2285 TIP3 OH2  OT    -0.834000       15.9994           0
   14760 TIP3 2285 TIP3 H1   HT     0.417000        1.0080           0
   14761 TIP3 2285 TIP3 H2   HT     0.417000        1.0080           0
   14762 TIP3 2286 TIP3 OH2  OT    -0.834000       15.9994           0
   14763 TIP3 2286 TIP3 H1   HT     0.417000        1.0080           0
   14764 TIP3 2286 TIP3 H2   HT     0.417000        1.0080           0
   14765 TIP3 2287 TIP3 OH2  OT    -0.834000       15.9994           0
   14766 TIP3 2287 TIP3 H1   HT     0.417000        1.0080           0
   14767 TIP3 2287 TIP3 H2   HT     0.417000        1.0080           0
   14768 TIP3 2288 TIP3 OH2  OT    -0.834000       15.9994           0
   14769 TIP3 2288 TIP3 H1   HT     0.417000        1.0080           0
   14770 TIP3 2288 TIP3 H2   HT     0.417000        1.0080           0
   14771 TIP3 2289 TIP3 OH2  OT    -0.834000       15.9994           0
   14772 TIP3 2289 TIP3 H1   HT     0.417000        1.0080           0
   14773 TIP3 2289 TIP3 H2   HT     0.417000        1.0080           0
   14774 TIP3 2290 TIP3 OH2  OT    -0.834000       15.9994           0
   14775 TIP3 2290 TIP3 H1   HT     0.417000        1.0080           0
   14776 TIP3 2290 TIP3 H2   HT     0.417000        1.0080           0
   14777 TIP3 2291 TIP3 OH2  OT    -0.834000       15.9994           0
   14778 TIP3 2291 TIP3 H1   HT     0.417000        1.0080           0
   14779 TIP3 2291 TIP3 H2   HT     0.417000        1.0080           0
   14780 TIP3 2292 TIP3 OH2  OT    -0.834000       15.9994           0
   14781 TIP3 2292 TIP3 H1   HT     0.417000        1.0080           0
   14782 TIP3 2292 TIP3 H2   HT     0.417000        1.0080           0
   14783 TIP3 2293 TIP3 OH2  OT    -0.834000       15.9994           0
   14784 TIP3 2293 TIP3 H1   HT     0.417000        1.0080           0
   14785 TIP3 2293 TIP3 H2   HT     0.417000        1.0080           0
   14786 TIP3 2294 TIP3 OH2  OT    -0.834000       15.9994           0
   14787 TIP3 2294 TIP3 H1   HT     0.417000        1.0080           0
   14788 TIP3 2294 TIP3 H2   HT     0.417000        1.0080           0
   14789 TIP3 2295 TIP3 OH2  OT    -0.834000       15.9994           0
   14790 TIP3 2295 TIP3 H1   HT     0.417000        1.0080           0
   14791 TIP3 2295 TIP3 H2   HT     0.417000        1.0080           0
   14792 TIP3 2296 TIP3 OH2  OT    -0.834000       15.9994           0
   14793 TIP3 2296 TIP3 H1   HT     0.417000        1.0080           0
   14794 TIP3 2296 TIP3 H2   HT     0.417000        1.0080           0
   14795 TIP3 2297 TIP3 OH2  OT    -0.834000       15.9994           0
   14796 TIP3 2297 TIP3 H1   HT     0.417000        1.0080           0
   14797 TIP3 2297 TIP3 H2   HT     0.417000        1.0080           0
   14798 TIP3 2298 TIP3 OH2  OT    -0.834000       15.9994           0
   14799 TIP3 2298 TIP3 H1   HT     0.417000        1.0080           0
   14800 TIP3 2298 TIP3 H2   HT     0.417000        1.0080           0
   14801 TIP3 2299 TIP3 OH2  OT    -0.834000       15.9994           0
   14802 TIP3 2299 TIP3 H1   HT     0.417000        1.0080           0
   14803 TIP3 2299 TIP3 H2   HT     0.417000        1.0080           0
   14804 TIP3 2300 TIP3 OH2  OT    -0.834000       15.9994           0
   14805 TIP3 2300 TIP3 H1   HT     0.417000        1.0080           0
   14806 TIP3 2300 TIP3 H2   HT     0.417000        1.0080           0
   14807 TIP3 2301 TIP3 OH2  OT    -0.834000       15.9994           0
   14808 TIP3 2301 TIP3 H1   HT     0.417000        1.0080           0
   14809 TIP3 2301 TIP3 H2   HT     0.417000        1.0080           0
   14810 TIP3 2302 TIP3 OH2  OT    -0.834000       15.9994           0
   14811 TIP3 2302 TIP3 H1   HT     0.417000        1.0080           0
   14812 TIP3 2302 TIP3 H2   HT     0.417000        1.0080           0
   14813 TIP3 2303 TIP3 OH2  OT    -0.834000       15.9994           0
   14814 TIP3 2303 TIP3 H1   HT     0.417000        1.0080           0
   14815 TIP3 2303 TIP3 H2   HT     0.417000        1.0080           0
   14816 TIP3 2304 TIP3 OH2  OT    -0.834000       15.9994           0
   14817 TIP3 2304 TIP3 H1   HT     0.417000        1.0080           0
   14818 TIP3 2304 TIP3 H2   HT     0.417000        1.0080           0
   14819 TIP3 2305 TIP3 OH2  OT    -0.834000       15.9994           0
   14820 TIP3 2305 TIP3 H1   HT     0.417000        1.0080           0
   14821 TIP3 2305 TIP3 H2   HT     0.417000        1.0080           0
   14822 TIP3 2306 TIP3 OH2  OT    -0.834000       15.9994           0
   14823 TIP3 2306 TIP3 H1   HT     0.417000        1.0080           0
   14824 TIP3 2306 TIP3 H2   HT     0.417000        1.0080           0
   14825 TIP3 2307 TIP3 OH2  OT    -0.834000       15.9994           0
   14826 TIP3 2307 TIP3 H1   HT     0.417000        1.0080           0
   14827 TIP3 2307 TIP3 H2   HT     0.417000        1.0080           0
   14828 TIP3 2308 TIP3 OH2  OT    -0.834000       15.9994           0
   14829 TIP3 2308 TIP3 H1   HT     0.417000        1.0080           0
   14830 TIP3 2308 TIP3 H2   HT     0.417000        1.0080           0
   14831 TIP3 2309 TIP3 OH2  OT    -0.834000       15.9994           0
   14832 TIP3 2309 TIP3 H1   HT     0.417000        1.0080           0
   14833 TIP3 2309 TIP3 H2   HT     0.417000        1.0080           0
   14834 TIP3 2310 TIP3 OH2  OT    -0.834000       15.9994           0
   14835 TIP3 2310 TIP3 H1   HT     0.417000        1.0080           0
   14836 TIP3 2310 TIP3 H2   HT     0.417000        1.0080           0
   14837 TIP3 2311 TIP3 OH2  OT    -0.834000       15.9994           0
   14838 TIP3 2311 TIP3 H1   HT     0.417000        1.0080           0
   14839 TIP3 2311 TIP3 H2   HT     0.417000        1.0080           0
   14840 TIP3 2312 TIP3 OH2  OT    -0.834000       15.9994           0
   14841 TIP3 2312 TIP3 H1   HT     0.417000        1.0080           0
   14842 TIP3 2312 TIP3 H2   HT     0.417000        1.0080           0
   14843 TIP3 2313 TIP3 OH2  OT    -0.834000       15.9994           0
   14844 TIP3 2313 TIP3 H1   HT     0.417000        1.0080           0
   14845 TIP3 2313 TIP3 H2   HT     0.417000        1.0080           0
   14846 TIP3 2314 TIP3 OH2  OT    -0.834000       15.9994           0
   14847 TIP3 2314 TIP3 H1   HT     0.417000        1.0080           0
   14848 TIP3 2314 TIP3 H2   HT     0.417000        1.0080           0
   14849 TIP3 2315 TIP3 OH2  OT    -0.834000       15.9994           0
   14850 TIP3 2315 TIP3 H1   HT     0.417000        1.0080           0
   14851 TIP3 2315 TIP3 H2   HT     0.417000        1.0080           0
   14852 TIP3 2316 TIP3 OH2  OT    -0.834000       15.9994           0
   14853 TIP3 2316 TIP3 H1   HT     0.417000        1.0080           0
   14854 TIP3 2316 TIP3 H2   HT     0.417000        1.0080           0
   14855 TIP3 2317 TIP3 OH2  OT    -0.834000       15.9994           0
   14856 TIP3 2317 TIP3 H1   HT     0.417000        1.0080           0
   14857 TIP3 2317 TIP3 H2   HT     0.417000        1.0080           0
   14858 TIP3 2318 TIP3 OH2  OT    -0.834000       15.9994           0
   14859 TIP3 2318 TIP3 H1   HT     0.417000        1.0080           0
   14860 TIP3 2318 TIP3 H2   HT     0.417000        1.0080           0
   14861 TIP3 2319 TIP3 OH2  OT    -0.834000       15.9994           0
   14862 TIP3 2319 TIP3 H1   HT     0.417000        1.0080           0
   14863 TIP3 2319 TIP3 H2   HT     0.417000        1.0080           0
   14864 TIP3 2320 TIP3 OH2  OT    -0.834000       15.9994           0
   14865 TIP3 2320 TIP3 H1   HT     0.417000        1.0080           0
   14866 TIP3 2320 TIP3 H2   HT     0.417000        1.0080           0
   14867 TIP3 2321 TIP3 OH2  OT    -0.834000       15.9994           0
   14868 TIP3 2321 TIP3 H1   HT     0.417000        1.0080           0
   14869 TIP3 2321 TIP3 H2   HT     0.417000        1.0080           0
   14870 TIP3 2322 TIP3 OH2  OT    -0.834000       15.9994           0
   14871 TIP3 2322 TIP3 H1   HT     0.417000        1.0080           0
   14872 TIP3 2322 TIP3 H2   HT     0.417000        1.0080           0
   14873 TIP3 2323 TIP3 OH2  OT    -0.834000       15.9994           0
   14874 TIP3 2323 TIP3 H1   HT     0.417000        1.0080           0
   14875 TIP3 2323 TIP3 H2   HT     0.417000        1.0080           0
   14876 TIP3 2324 TIP3 OH2  OT    -0.834000       15.9994           0
   14877 TIP3 2324 TIP3 H1   HT     0.417000        1.0080           0
   14878 TIP3 2324 TIP3 H2   HT     0.417000        1.0080           0
   14879 TIP3 2325 TIP3 OH2  OT    -0.834000       15.9994           0
   14880 TIP3 2325 TIP3 H1   HT     0.417000        1.0080           0
   14881 TIP3 2325 TIP3 H2   HT     0.417000        1.0080           0
   14882 TIP3 2326 TIP3 OH2  OT    -0.834000       15.9994           0
   14883 TIP3 2326 TIP3 H1   HT     0.417000        1.0080           0
   14884 TIP3 2326 TIP3 H2   HT     0.417000        1.0080           0
   14885 TIP3 2327 TIP3 OH2  OT    -0.834000       15.9994           0
   14886 TIP3 2327 TIP3 H1   HT     0.417000        1.0080           0
   14887 TIP3 2327 TIP3 H2   HT     0.417000        1.0080           0
   14888 TIP3 2328 TIP3 OH2  OT    -0.834000       15.9994           0
   14889 TIP3 2328 TIP3 H1   HT     0.417000        1.0080           0
   14890 TIP3 2328 TIP3 H2   HT     0.417000        1.0080           0
   14891 TIP3 2329 TIP3 OH2  OT    -0.834000       15.9994           0
   14892 TIP3 2329 TIP3 H1   HT     0.417000        1.0080           0
   14893 TIP3 2329 TIP3 H2   HT     0.417000        1.0080           0
   14894 TIP3 2330 TIP3 OH2  OT    -0.834000       15.9994           0
   14895 TIP3 2330 TIP3 H1   HT     0.417000        1.0080           0
   14896 TIP3 2330 TIP3 H2   HT     0.417000        1.0080           0
   14897 TIP3 2331 TIP3 OH2  OT    -0.834000       15.9994           0
   14898 TIP3 2331 TIP3 H1   HT     0.417000        1.0080           0
   14899 TIP3 2331 TIP3 H2   HT     0.417000        1.0080           0
   14900 TIP3 2332 TIP3 OH2  OT    -0.834000       15.9994           0
   14901 TIP3 2332 TIP3 H1   HT     0.417000        1.0080           0
   14902 TIP3 2332 TIP3 H2   HT     0.417000        1.0080           0
   14903 TIP3 2333 TIP3 OH2  OT    -0.834000       15.9994           0
   14904 TIP3 2333 TIP3 H1   HT     0.417000        1.0080           0
   14905 TIP3 2333 TIP3 H2   HT     0.417000        1.0080           0
   14906 TIP3 2334 TIP3 OH2  OT    -0.834000       15.9994           0
   14907 TIP3 2334 TIP3 H1   HT     0.417000        1.0080           0
   14908 TIP3 2334 TIP3 H2   HT     0.417000        1.0080           0
   14909 TIP3 2335 TIP3 OH2  OT    -0.834000       15.9994           0
   14910 TIP3 2335 TIP3 H1   HT     0.417000        1.0080           0
   14911 TIP3 2335 TIP3 H2   HT     0.417000        1.0080           0
   14912 TIP3 2336 TIP3 OH2  OT    -0.834000       15.9994           0
   14913 TIP3 2336 TIP3 H1   HT     0.417000        1.0080           0
   14914 TIP3 2336 TIP3 H2   HT     0.417000        1.0080           0
   14915 TIP3 2337 TIP3 OH2  OT    -0.834000       15.9994           0
   14916 TIP3 2337 TIP3 H1   HT     0.417000        1.0080           0
   14917 TIP3 2337 TIP3 H2   HT     0.417000        1.0080           0
   14918 TIP3 2338 TIP3 OH2  OT    -0.834000       15.9994           0
   14919 TIP3 2338 TIP3 H1   HT     0.417000        1.0080           0
   14920 TIP3 2338 TIP3 H2   HT     0.417000        1.0080           0
   14921 TIP3 2339 TIP3 OH2  OT    -0.834000       15.9994           0
   14922 TIP3 2339 TIP3 H1   HT     0.417000        1.0080           0
   14923 TIP3 2339 TIP3 H2   HT     0.417000        1.0080           0
   14924 TIP3 2340 TIP3 OH2  OT    -0.834000       15.9994           0
   14925 TIP3 2340 TIP3 H1   HT     0.417000        1.0080           0
   14926 TIP3 2340 TIP3 H2   HT     0.417000        1.0080           0
   14927 TIP3 2341 TIP3 OH2  OT    -0.834000       15.9994           0
   14928 TIP3 2341 TIP3 H1   HT     0.417000        1.0080           0
   14929 TIP3 2341 TIP3 H2   HT     0.417000        1.0080           0
   14930 TIP3 2342 TIP3 OH2  OT    -0.834000       15.9994           0
   14931 TIP3 2342 TIP3 H1   HT     0.417000        1.0080           0
   14932 TIP3 2342 TIP3 H2   HT     0.417000        1.0080           0
   14933 TIP3 2343 TIP3 OH2  OT    -0.834000       15.9994           0
   14934 TIP3 2343 TIP3 H1   HT     0.417000        1.0080           0
   14935 TIP3 2343 TIP3 H2   HT     0.417000        1.0080           0
   14936 TIP3 2344 TIP3 OH2  OT    -0.834000       15.9994           0
   14937 TIP3 2344 TIP3 H1   HT     0.417000        1.0080           0
   14938 TIP3 2344 TIP3 H2   HT     0.417000        1.0080           0
   14939 TIP3 2345 TIP3 OH2  OT    -0.834000       15.9994           0
   14940 TIP3 2345 TIP3 H1   HT     0.417000        1.0080           0
   14941 TIP3 2345 TIP3 H2   HT     0.417000        1.0080           0
   14942 TIP3 2346 TIP3 OH2  OT    -0.834000       15.9994           0
   14943 TIP3 2346 TIP3 H1   HT     0.417000        1.0080           0
   14944 TIP3 2346 TIP3 H2   HT     0.417000        1.0080           0
   14945 TIP3 2347 TIP3 OH2  OT    -0.834000       15.9994           0
   14946 TIP3 2347 TIP3 H1   HT     0.417000        1.0080           0
   14947 TIP3 2347 TIP3 H2   HT     0.417000        1.0080           0
   14948 TIP3 2348 TIP3 OH2  OT    -0.834000       15.9994           0
   14949 TIP3 2348 TIP3 H1   HT     0.417000        1.0080           0
   14950 TIP3 2348 TIP3 H2   HT     0.417000        1.0080           0
   14951 TIP3 2349 TIP3 OH2  OT    -0.834000       15.9994           0
   14952 TIP3 2349 TIP3 H1   HT     0.417000        1.0080           0
   14953 TIP3 2349 TIP3 H2   HT     0.417000        1.0080           0
   14954 TIP3 2350 TIP3 OH2  OT    -0.834000       15.9994           0
   14955 TIP3 2350 TIP3 H1   HT     0.417000        1.0080           0
   14956 TIP3 2350 TIP3 H2   HT     0.417000        1.0080           0
   14957 TIP3 2351 TIP3 OH2  OT    -0.834000       15.9994           0
   14958 TIP3 2351 TIP3 H1   HT     0.417000        1.0080           0
   14959 TIP3 2351 TIP3 H2   HT     0.417000        1.0080           0
   14960 TIP3 2352 TIP3 OH2  OT    -0.834000       15.9994           0
   14961 TIP3 2352 TIP3 H1   HT     0.417000        1.0080           0
   14962 TIP3 2352 TIP3 H2   HT     0.417000        1.0080           0
   14963 TIP3 2353 TIP3 OH2  OT    -0.834000       15.9994           0
   14964 TIP3 2353 TIP3 H1   HT     0.417000        1.0080           0
   14965 TIP3 2353 TIP3 H2   HT     0.417000        1.0080           0
   14966 TIP3 2354 TIP3 OH2  OT    -0.834000       15.9994           0
   14967 TIP3 2354 TIP3 H1   HT     0.417000        1.0080           0
   14968 TIP3 2354 TIP3 H2   HT     0.417000        1.0080           0
   14969 TIP3 2355 TIP3 OH2  OT    -0.834000       15.9994           0
   14970 TIP3 2355 TIP3 H1   HT     0.417000        1.0080           0
   14971 TIP3 2355 TIP3 H2   HT     0.417000        1.0080           0
   14972 TIP3 2356 TIP3 OH2  OT    -0.834000       15.9994           0
   14973 TIP3 2356 TIP3 H1   HT     0.417000        1.0080           0
   14974 TIP3 2356 TIP3 H2   HT     0.417000        1.0080           0
   14975 TIP3 2357 TIP3 OH2  OT    -0.834000       15.9994           0
   14976 TIP3 2357 TIP3 H1   HT     0.417000        1.0080           0
   14977 TIP3 2357 TIP3 H2   HT     0.417000        1.0080           0
   14978 TIP3 2358 TIP3 OH2  OT    -0.834000       15.9994           0
   14979 TIP3 2358 TIP3 H1   HT     0.417000        1.0080           0
   14980 TIP3 2358 TIP3 H2   HT     0.417000        1.0080           0
   14981 TIP3 2359 TIP3 OH2  OT    -0.834000       15.9994           0
   14982 TIP3 2359 TIP3 H1   HT     0.417000        1.0080           0
   14983 TIP3 2359 TIP3 H2   HT     0.417000        1.0080           0
   14984 TIP3 2360 TIP3 OH2  OT    -0.834000       15.9994           0
   14985 TIP3 2360 TIP3 H1   HT     0.417000        1.0080           0
   14986 TIP3 2360 TIP3 H2   HT     0.417000        1.0080           0
   14987 TIP3 2361 TIP3 OH2  OT    -0.834000       15.9994           0
   14988 TIP3 2361 TIP3 H1   HT     0.417000        1.0080           0
   14989 TIP3 2361 TIP3 H2   HT     0.417000        1.0080           0
   14990 TIP3 2362 TIP3 OH2  OT    -0.834000       15.9994           0
   14991 TIP3 2362 TIP3 H1   HT     0.417000        1.0080           0
   14992 TIP3 2362 TIP3 H2   HT     0.417000        1.0080           0
   14993 TIP3 2363 TIP3 OH2  OT    -0.834000       15.9994           0
   14994 TIP3 2363 TIP3 H1   HT     0.417000        1.0080           0
   14995 TIP3 2363 TIP3 H2   HT     0.417000        1.0080           0
   14996 TIP3 2364 TIP3 OH2  OT    -0.834000       15.9994           0
   14997 TIP3 2364 TIP3 H1   HT     0.417000        1.0080           0
   14998 TIP3 2364 TIP3 H2   HT     0.417000        1.0080           0
   14999 TIP3 2365 TIP3 OH2  OT    -0.834000       15.9994           0
   15000 TIP3 2365 TIP3 H1   HT     0.417000        1.0080           0
   15001 TIP3 2365 TIP3 H2   HT     0.417000        1.0080           0
   15002 TIP3 2366 TIP3 OH2  OT    -0.834000       15.9994           0
   15003 TIP3 2366 TIP3 H1   HT     0.417000        1.0080           0
   15004 TIP3 2366 TIP3 H2   HT     0.417000        1.0080           0
   15005 TIP3 2367 TIP3 OH2  OT    -0.834000       15.9994           0
   15006 TIP3 2367 TIP3 H1   HT     0.417000        1.0080           0
   15007 TIP3 2367 TIP3 H2   HT     0.417000        1.0080           0
   15008 TIP3 2368 TIP3 OH2  OT    -0.834000       15.9994           0
   15009 TIP3 2368 TIP3 H1   HT     0.417000        1.0080           0
   15010 TIP3 2368 TIP3 H2   HT     0.417000        1.0080           0
   15011 TIP3 2369 TIP3 OH2  OT    -0.834000       15.9994           0
   15012 TIP3 2369 TIP3 H1   HT     0.417000        1.0080           0
   15013 TIP3 2369 TIP3 H2   HT     0.417000        1.0080           0
   15014 TIP3 2370 TIP3 OH2  OT    -0.834000       15.9994           0
   15015 TIP3 2370 TIP3 H1   HT     0.417000        1.0080           0
   15016 TIP3 2370 TIP3 H2   HT     0.417000        1.0080           0
   15017 TIP3 2371 TIP3 OH2  OT    -0.834000       15.9994           0
   15018 TIP3 2371 TIP3 H1   HT     0.417000        1.0080           0
   15019 TIP3 2371 TIP3 H2   HT     0.417000        1.0080           0
   15020 TIP3 2372 TIP3 OH2  OT    -0.834000       15.9994           0
   15021 TIP3 2372 TIP3 H1   HT     0.417000        1.0080           0
   15022 TIP3 2372 TIP3 H2   HT     0.417000        1.0080           0
   15023 TIP3 2373 TIP3 OH2  OT    -0.834000       15.9994           0
   15024 TIP3 2373 TIP3 H1   HT     0.417000        1.0080           0
   15025 TIP3 2373 TIP3 H2   HT     0.417000        1.0080           0
   15026 TIP3 2374 TIP3 OH2  OT    -0.834000       15.9994           0
   15027 TIP3 2374 TIP3 H1   HT     0.417000        1.0080           0
   15028 TIP3 2374 TIP3 H2   HT     0.417000        1.0080           0
   15029 TIP3 2375 TIP3 OH2  OT    -0.834000       15.9994           0
   15030 TIP3 2375 TIP3 H1   HT     0.417000        1.0080           0
   15031 TIP3 2375 TIP3 H2   HT     0.417000        1.0080           0
   15032 TIP3 2376 TIP3 OH2  OT    -0.834000       15.9994           0
   15033 TIP3 2376 TIP3 H1   HT     0.417000        1.0080           0
   15034 TIP3 2376 TIP3 H2   HT     0.417000        1.0080           0
   15035 TIP3 2377 TIP3 OH2  OT    -0.834000       15.9994           0
   15036 TIP3 2377 TIP3 H1   HT     0.417000        1.0080           0
   15037 TIP3 2377 TIP3 H2   HT     0.417000        1.0080           0
   15038 TIP3 2378 TIP3 OH2  OT    -0.834000       15.9994           0
   15039 TIP3 2378 TIP3 H1   HT     0.417000        1.0080           0
   15040 TIP3 2378 TIP3 H2   HT     0.417000        1.0080           0
   15041 TIP3 2379 TIP3 OH2  OT    -0.834000       15.9994           0
   15042 TIP3 2379 TIP3 H1   HT     0.417000        1.0080           0
   15043 TIP3 2379 TIP3 H2   HT     0.417000        1.0080           0
   15044 TIP3 2380 TIP3 OH2  OT    -0.834000       15.9994           0
   15045 TIP3 2380 TIP3 H1   HT     0.417000        1.0080           0
   15046 TIP3 2380 TIP3 H2   HT     0.417000        1.0080           0
   15047 TIP3 2381 TIP3 OH2  OT    -0.834000       15.9994           0
   15048 TIP3 2381 TIP3 H1   HT     0.417000        1.0080           0
   15049 TIP3 2381 TIP3 H2   HT     0.417000        1.0080           0
   15050 TIP3 2382 TIP3 OH2  OT    -0.834000       15.9994           0
   15051 TIP3 2382 TIP3 H1   HT     0.417000        1.0080           0
   15052 TIP3 2382 TIP3 H2   HT     0.417000        1.0080           0
   15053 TIP3 2383 TIP3 OH2  OT    -0.834000       15.9994           0
   15054 TIP3 2383 TIP3 H1   HT     0.417000        1.0080           0
   15055 TIP3 2383 TIP3 H2   HT     0.417000        1.0080           0
   15056 TIP3 2384 TIP3 OH2  OT    -0.834000       15.9994           0
   15057 TIP3 2384 TIP3 H1   HT     0.417000        1.0080           0
   15058 TIP3 2384 TIP3 H2   HT     0.417000        1.0080           0
   15059 TIP3 2385 TIP3 OH2  OT    -0.834000       15.9994           0
   15060 TIP3 2385 TIP3 H1   HT     0.417000        1.0080           0
   15061 TIP3 2385 TIP3 H2   HT     0.417000        1.0080           0
   15062 TIP3 2386 TIP3 OH2  OT    -0.834000       15.9994           0
   15063 TIP3 2386 TIP3 H1   HT     0.417000        1.0080           0
   15064 TIP3 2386 TIP3 H2   HT     0.417000        1.0080           0
   15065 TIP3 2387 TIP3 OH2  OT    -0.834000       15.9994           0
   15066 TIP3 2387 TIP3 H1   HT     0.417000        1.0080           0
   15067 TIP3 2387 TIP3 H2   HT     0.417000        1.0080           0
   15068 TIP3 2388 TIP3 OH2  OT    -0.834000       15.9994           0
   15069 TIP3 2388 TIP3 H1   HT     0.417000        1.0080           0
   15070 TIP3 2388 TIP3 H2   HT     0.417000        1.0080           0
   15071 TIP3 2389 TIP3 OH2  OT    -0.834000       15.9994           0
   15072 TIP3 2389 TIP3 H1   HT     0.417000        1.0080           0
   15073 TIP3 2389 TIP3 H2   HT     0.417000        1.0080           0
   15074 TIP3 2390 TIP3 OH2  OT    -0.834000       15.9994           0
   15075 TIP3 2390 TIP3 H1   HT     0.417000        1.0080           0
   15076 TIP3 2390 TIP3 H2   HT     0.417000        1.0080           0
   15077 TIP3 2391 TIP3 OH2  OT    -0.834000       15.9994           0
   15078 TIP3 2391 TIP3 H1   HT     0.417000        1.0080           0
   15079 TIP3 2391 TIP3 H2   HT     0.417000        1.0080           0
   15080 TIP3 2392 TIP3 OH2  OT    -0.834000       15.9994           0
   15081 TIP3 2392 TIP3 H1   HT     0.417000        1.0080           0
   15082 TIP3 2392 TIP3 H2   HT     0.417000        1.0080           0
   15083 TIP3 2393 TIP3 OH2  OT    -0.834000       15.9994           0
   15084 TIP3 2393 TIP3 H1   HT     0.417000        1.0080           0
   15085 TIP3 2393 TIP3 H2   HT     0.417000        1.0080           0
   15086 TIP3 2394 TIP3 OH2  OT    -0.834000       15.9994           0
   15087 TIP3 2394 TIP3 H1   HT     0.417000        1.0080           0
   15088 TIP3 2394 TIP3 H2   HT     0.417000        1.0080           0
   15089 TIP3 2395 TIP3 OH2  OT    -0.834000       15.9994           0
   15090 TIP3 2395 TIP3 H1   HT     0.417000        1.0080           0
   15091 TIP3 2395 TIP3 H2   HT     0.417000        1.0080           0
   15092 TIP3 2396 TIP3 OH2  OT    -0.834000       15.9994           0
   15093 TIP3 2396 TIP3 H1   HT     0.417000        1.0080           0
   15094 TIP3 2396 TIP3 H2   HT     0.417000        1.0080           0
   15095 TIP3 2397 TIP3 OH2  OT    -0.834000       15.9994           0
   15096 TIP3 2397 TIP3 H1   HT     0.417000        1.0080           0
   15097 TIP3 2397 TIP3 H2   HT     0.417000        1.0080           0
   15098 TIP3 2398 TIP3 OH2  OT    -0.834000       15.9994           0
   15099 TIP3 2398 TIP3 H1   HT     0.417000        1.0080           0
   15100 TIP3 2398 TIP3 H2   HT     0.417000        1.0080           0
   15101 TIP3 2399 TIP3 OH2  OT    -0.834000       15.9994           0
   15102 TIP3 2399 TIP3 H1   HT     0.417000        1.0080           0
   15103 TIP3 2399 TIP3 H2   HT     0.417000        1.0080           0
   15104 TIP3 2400 TIP3 OH2  OT    -0.834000       15.9994           0
   15105 TIP3 2400 TIP3 H1   HT     0.417000        1.0080           0
   15106 TIP3 2400 TIP3 H2   HT     0.417000        1.0080           0
   15107 TIP3 2401 TIP3 OH2  OT    -0.834000       15.9994           0
   15108 TIP3 2401 TIP3 H1   HT     0.417000        1.0080           0
   15109 TIP3 2401 TIP3 H2   HT     0.417000        1.0080           0
   15110 TIP3 2402 TIP3 OH2  OT    -0.834000       15.9994           0
   15111 TIP3 2402 TIP3 H1   HT     0.417000        1.0080           0
   15112 TIP3 2402 TIP3 H2   HT     0.417000        1.0080           0
   15113 TIP3 2403 TIP3 OH2  OT    -0.834000       15.9994           0
   15114 TIP3 2403 TIP3 H1   HT     0.417000        1.0080           0
   15115 TIP3 2403 TIP3 H2   HT     0.417000        1.0080           0
   15116 TIP3 2404 TIP3 OH2  OT    -0.834000       15.9994           0
   15117 TIP3 2404 TIP3 H1   HT     0.417000        1.0080           0
   15118 TIP3 2404 TIP3 H2   HT     0.417000        1.0080           0
   15119 TIP3 2405 TIP3 OH2  OT    -0.834000       15.9994           0
   15120 TIP3 2405 TIP3 H1   HT     0.417000        1.0080           0
   15121 TIP3 2405 TIP3 H2   HT     0.417000        1.0080           0
   15122 TIP3 2406 TIP3 OH2  OT    -0.834000       15.9994           0
   15123 TIP3 2406 TIP3 H1   HT     0.417000        1.0080           0
   15124 TIP3 2406 TIP3 H2   HT     0.417000        1.0080           0
   15125 TIP3 2407 TIP3 OH2  OT    -0.834000       15.9994           0
   15126 TIP3 2407 TIP3 H1   HT     0.417000        1.0080           0
   15127 TIP3 2407 TIP3 H2   HT     0.417000        1.0080           0
   15128 TIP3 2408 TIP3 OH2  OT    -0.834000       15.9994           0
   15129 TIP3 2408 TIP3 H1   HT     0.417000        1.0080           0
   15130 TIP3 2408 TIP3 H2   HT     0.417000        1.0080           0
   15131 TIP3 2409 TIP3 OH2  OT    -0.834000       15.9994           0
   15132 TIP3 2409 TIP3 H1   HT     0.417000        1.0080           0
   15133 TIP3 2409 TIP3 H2   HT     0.417000        1.0080           0
   15134 TIP3 2410 TIP3 OH2  OT    -0.834000       15.9994           0
   15135 TIP3 2410 TIP3 H1   HT     0.417000        1.0080           0
   15136 TIP3 2410 TIP3 H2   HT     0.417000        1.0080           0
   15137 TIP3 2411 TIP3 OH2  OT    -0.834000       15.9994           0
   15138 TIP3 2411 TIP3 H1   HT     0.417000        1.0080           0
   15139 TIP3 2411 TIP3 H2   HT     0.417000        1.0080           0
   15140 TIP3 2412 TIP3 OH2  OT    -0.834000       15.9994           0
   15141 TIP3 2412 TIP3 H1   HT     0.417000        1.0080           0
   15142 TIP3 2412 TIP3 H2   HT     0.417000        1.0080           0
   15143 TIP3 2413 TIP3 OH2  OT    -0.834000       15.9994           0
   15144 TIP3 2413 TIP3 H1   HT     0.417000        1.0080           0
   15145 TIP3 2413 TIP3 H2   HT     0.417000        1.0080           0
   15146 TIP3 2414 TIP3 OH2  OT    -0.834000       15.9994           0
   15147 TIP3 2414 TIP3 H1   HT     0.417000        1.0080           0
   15148 TIP3 2414 TIP3 H2   HT     0.417000        1.0080           0
   15149 TIP3 2415 TIP3 OH2  OT    -0.834000       15.9994           0
   15150 TIP3 2415 TIP3 H1   HT     0.417000        1.0080           0
   15151 TIP3 2415 TIP3 H2   HT     0.417000        1.0080           0
   15152 TIP3 2416 TIP3 OH2  OT    -0.834000       15.9994           0
   15153 TIP3 2416 TIP3 H1   HT     0.417000        1.0080           0
   15154 TIP3 2416 TIP3 H2   HT     0.417000        1.0080           0
   15155 TIP3 2417 TIP3 OH2  OT    -0.834000       15.9994           0
   15156 TIP3 2417 TIP3 H1   HT     0.417000        1.0080           0
   15157 TIP3 2417 TIP3 H2   HT     0.417000        1.0080           0
   15158 TIP3 2418 TIP3 OH2  OT    -0.834000       15.9994           0
   15159 TIP3 2418 TIP3 H1   HT     0.417000        1.0080           0
   15160 TIP3 2418 TIP3 H2   HT     0.417000        1.0080           0
   15161 TIP3 2419 TIP3 OH2  OT    -0.834000       15.9994           0
   15162 TIP3 2419 TIP3 H1   HT     0.417000        1.0080           0
   15163 TIP3 2419 TIP3 H2   HT     0.417000        1.0080           0
   15164 TIP3 2420 TIP3 OH2  OT    -0.834000       15.9994           0
   15165 TIP3 2420 TIP3 H1   HT     0.417000        1.0080           0
   15166 TIP3 2420 TIP3 H2   HT     0.417000        1.0080           0
   15167 TIP3 2421 TIP3 OH2  OT    -0.834000       15.9994           0
   15168 TIP3 2421 TIP3 H1   HT     0.417000        1.0080           0
   15169 TIP3 2421 TIP3 H2   HT     0.417000        1.0080           0
   15170 TIP3 2422 TIP3 OH2  OT    -0.834000       15.9994           0
   15171 TIP3 2422 TIP3 H1   HT     0.417000        1.0080           0
   15172 TIP3 2422 TIP3 H2   HT     0.417000        1.0080           0
   15173 TIP3 2423 TIP3 OH2  OT    -0.834000       15.9994           0
   15174 TIP3 2423 TIP3 H1   HT     0.417000        1.0080           0
   15175 TIP3 2423 TIP3 H2   HT     0.417000        1.0080           0
   15176 TIP3 2424 TIP3 OH2  OT    -0.834000       15.9994           0
   15177 TIP3 2424 TIP3 H1   HT     0.417000        1.0080           0
   15178 TIP3 2424 TIP3 H2   HT     0.417000        1.0080           0
   15179 TIP3 2425 TIP3 OH2  OT    -0.834000       15.9994           0
   15180 TIP3 2425 TIP3 H1   HT     0.417000        1.0080           0
   15181 TIP3 2425 TIP3 H2   HT     0.417000        1.0080           0
   15182 TIP3 2426 TIP3 OH2  OT    -0.834000       15.9994           0
   15183 TIP3 2426 TIP3 H1   HT     0.417000        1.0080           0
   15184 TIP3 2426 TIP3 H2   HT     0.417000        1.0080           0
   15185 TIP3 2427 TIP3 OH2  OT    -0.834000       15.9994           0
   15186 TIP3 2427 TIP3 H1   HT     0.417000        1.0080           0
   15187 TIP3 2427 TIP3 H2   HT     0.417000        1.0080           0
   15188 TIP3 2428 TIP3 OH2  OT    -0.834000       15.9994           0
   15189 TIP3 2428 TIP3 H1   HT     0.417000        1.0080           0
   15190 TIP3 2428 TIP3 H2   HT     0.417000        1.0080           0
   15191 TIP3 2429 TIP3 OH2  OT    -0.834000       15.9994           0
   15192 TIP3 2429 TIP3 H1   HT     0.417000        1.0080           0
   15193 TIP3 2429 TIP3 H2   HT     0.417000        1.0080           0
   15194 TIP3 2430 TIP3 OH2  OT    -0.834000       15.9994           0
   15195 TIP3 2430 TIP3 H1   HT     0.417000        1.0080           0
   15196 TIP3 2430 TIP3 H2   HT     0.417000        1.0080           0
   15197 TIP3 2431 TIP3 OH2  OT    -0.834000       15.9994           0
   15198 TIP3 2431 TIP3 H1   HT     0.417000        1.0080           0
   15199 TIP3 2431 TIP3 H2   HT     0.417000        1.0080           0
   15200 TIP3 2432 TIP3 OH2  OT    -0.834000       15.9994           0
   15201 TIP3 2432 TIP3 H1   HT     0.417000        1.0080           0
   15202 TIP3 2432 TIP3 H2   HT     0.417000        1.0080           0
   15203 TIP3 2433 TIP3 OH2  OT    -0.834000       15.9994           0
   15204 TIP3 2433 TIP3 H1   HT     0.417000        1.0080           0
   15205 TIP3 2433 TIP3 H2   HT     0.417000        1.0080           0
   15206 TIP3 2434 TIP3 OH2  OT    -0.834000       15.9994           0
   15207 TIP3 2434 TIP3 H1   HT     0.417000        1.0080           0
   15208 TIP3 2434 TIP3 H2   HT     0.417000        1.0080           0
   15209 TIP3 2435 TIP3 OH2  OT    -0.834000       15.9994           0
   15210 TIP3 2435 TIP3 H1   HT     0.417000        1.0080           0
   15211 TIP3 2435 TIP3 H2   HT     0.417000        1.0080           0
   15212 TIP3 2436 TIP3 OH2  OT    -0.834000       15.9994           0
   15213 TIP3 2436 TIP3 H1   HT     0.417000        1.0080           0
   15214 TIP3 2436 TIP3 H2   HT     0.417000        1.0080           0
   15215 TIP3 2437 TIP3 OH2  OT    -0.834000       15.9994           0
   15216 TIP3 2437 TIP3 H1   HT     0.417000        1.0080           0
   15217 TIP3 2437 TIP3 H2   HT     0.417000        1.0080           0
   15218 TIP3 2438 TIP3 OH2  OT    -0.834000       15.9994           0
   15219 TIP3 2438 TIP3 H1   HT     0.417000        1.0080           0
   15220 TIP3 2438 TIP3 H2   HT     0.417000        1.0080           0
   15221 TIP3 2439 TIP3 OH2  OT    -0.834000       15.9994           0
   15222 TIP3 2439 TIP3 H1   HT     0.417000        1.0080           0
   15223 TIP3 2439 TIP3 H2   HT     0.417000        1.0080           0
   15224 TIP3 2440 TIP3 OH2  OT    -0.834000       15.9994           0
   15225 TIP3 2440 TIP3 H1   HT     0.417000        1.0080           0
   15226 TIP3 2440 TIP3 H2   HT     0.417000        1.0080           0
   15227 TIP3 2441 TIP3 OH2  OT    -0.834000       15.9994           0
   15228 TIP3 2441 TIP3 H1   HT     0.417000        1.0080           0
   15229 TIP3 2441 TIP3 H2   HT     0.417000        1.0080           0
   15230 TIP3 2442 TIP3 OH2  OT    -0.834000       15.9994           0
   15231 TIP3 2442 TIP3 H1   HT     0.417000        1.0080           0
   15232 TIP3 2442 TIP3 H2   HT     0.417000        1.0080           0
   15233 TIP3 2443 TIP3 OH2  OT    -0.834000       15.9994           0
   15234 TIP3 2443 TIP3 H1   HT     0.417000        1.0080           0
   15235 TIP3 2443 TIP3 H2   HT     0.417000        1.0080           0
   15236 TIP3 2444 TIP3 OH2  OT    -0.834000       15.9994           0
   15237 TIP3 2444 TIP3 H1   HT     0.417000        1.0080           0
   15238 TIP3 2444 TIP3 H2   HT     0.417000        1.0080           0
   15239 TIP3 2445 TIP3 OH2  OT    -0.834000       15.9994           0
   15240 TIP3 2445 TIP3 H1   HT     0.417000        1.0080           0
   15241 TIP3 2445 TIP3 H2   HT     0.417000        1.0080           0
   15242 TIP3 2446 TIP3 OH2  OT    -0.834000       15.9994           0
   15243 TIP3 2446 TIP3 H1   HT     0.417000        1.0080           0
   15244 TIP3 2446 TIP3 H2   HT     0.417000        1.0080           0
   15245 TIP3 2447 TIP3 OH2  OT    -0.834000       15.9994           0
   15246 TIP3 2447 TIP3 H1   HT     0.417000        1.0080           0
   15247 TIP3 2447 TIP3 H2   HT     0.417000        1.0080           0
   15248 TIP3 2448 TIP3 OH2  OT    -0.834000       15.9994           0
   15249 TIP3 2448 TIP3 H1   HT     0.417000        1.0080           0
   15250 TIP3 2448 TIP3 H2   HT     0.417000        1.0080           0
   15251 TIP3 2449 TIP3 OH2  OT    -0.834000       15.9994           0
   15252 TIP3 2449 TIP3 H1   HT     0.417000        1.0080           0
   15253 TIP3 2449 TIP3 H2   HT     0.417000        1.0080           0
   15254 TIP3 2450 TIP3 OH2  OT    -0.834000       15.9994           0
   15255 TIP3 2450 TIP3 H1   HT     0.417000        1.0080           0
   15256 TIP3 2450 TIP3 H2   HT     0.417000        1.0080           0
   15257 TIP3 2451 TIP3 OH2  OT    -0.834000       15.9994           0
   15258 TIP3 2451 TIP3 H1   HT     0.417000        1.0080           0
   15259 TIP3 2451 TIP3 H2   HT     0.417000        1.0080           0
   15260 TIP3 2452 TIP3 OH2  OT    -0.834000       15.9994           0
   15261 TIP3 2452 TIP3 H1   HT     0.417000        1.0080           0
   15262 TIP3 2452 TIP3 H2   HT     0.417000        1.0080           0
   15263 TIP3 2453 TIP3 OH2  OT    -0.834000       15.9994           0
   15264 TIP3 2453 TIP3 H1   HT     0.417000        1.0080           0
   15265 TIP3 2453 TIP3 H2   HT     0.417000        1.0080           0
   15266 TIP3 2454 TIP3 OH2  OT    -0.834000       15.9994           0
   15267 TIP3 2454 TIP3 H1   HT     0.417000        1.0080           0
   15268 TIP3 2454 TIP3 H2   HT     0.417000        1.0080           0
   15269 TIP3 2455 TIP3 OH2  OT    -0.834000       15.9994           0
   15270 TIP3 2455 TIP3 H1   HT     0.417000        1.0080           0
   15271 TIP3 2455 TIP3 H2   HT     0.417000        1.0080           0
   15272 TIP3 2456 TIP3 OH2  OT    -0.834000       15.9994           0
   15273 TIP3 2456 TIP3 H1   HT     0.417000        1.0080           0
   15274 TIP3 2456 TIP3 H2   HT     0.417000        1.0080           0
   15275 TIP3 2457 TIP3 OH2  OT    -0.834000       15.9994           0
   15276 TIP3 2457 TIP3 H1   HT     0.417000        1.0080           0
   15277 TIP3 2457 TIP3 H2   HT     0.417000        1.0080           0
   15278 TIP3 2458 TIP3 OH2  OT    -0.834000       15.9994           0
   15279 TIP3 2458 TIP3 H1   HT     0.417000        1.0080           0
   15280 TIP3 2458 TIP3 H2   HT     0.417000        1.0080           0
   15281 TIP3 2459 TIP3 OH2  OT    -0.834000       15.9994           0
   15282 TIP3 2459 TIP3 H1   HT     0.417000        1.0080           0
   15283 TIP3 2459 TIP3 H2   HT     0.417000        1.0080           0
   15284 TIP3 2460 TIP3 OH2  OT    -0.834000       15.9994           0
   15285 TIP3 2460 TIP3 H1   HT     0.417000        1.0080           0
   15286 TIP3 2460 TIP3 H2   HT     0.417000        1.0080           0
   15287 TIP3 2461 TIP3 OH2  OT    -0.834000       15.9994           0
   15288 TIP3 2461 TIP3 H1   HT     0.417000        1.0080           0
   15289 TIP3 2461 TIP3 H2   HT     0.417000        1.0080           0
   15290 TIP3 2462 TIP3 OH2  OT    -0.834000       15.9994           0
   15291 TIP3 2462 TIP3 H1   HT     0.417000        1.0080           0
   15292 TIP3 2462 TIP3 H2   HT     0.417000        1.0080           0
   15293 TIP3 2463 TIP3 OH2  OT    -0.834000       15.9994           0
   15294 TIP3 2463 TIP3 H1   HT     0.417000        1.0080           0
   15295 TIP3 2463 TIP3 H2   HT     0.417000        1.0080           0
   15296 TIP3 2464 TIP3 OH2  OT    -0.834000       15.9994           0
   15297 TIP3 2464 TIP3 H1   HT     0.417000        1.0080           0
   15298 TIP3 2464 TIP3 H2   HT     0.417000        1.0080           0
   15299 TIP3 2465 TIP3 OH2  OT    -0.834000       15.9994           0
   15300 TIP3 2465 TIP3 H1   HT     0.417000        1.0080           0
   15301 TIP3 2465 TIP3 H2   HT     0.417000        1.0080           0
   15302 TIP3 2466 TIP3 OH2  OT    -0.834000       15.9994           0
   15303 TIP3 2466 TIP3 H1   HT     0.417000        1.0080           0
   15304 TIP3 2466 TIP3 H2   HT     0.417000        1.0080           0
   15305 TIP3 2467 TIP3 OH2  OT    -0.834000       15.9994           0
   15306 TIP3 2467 TIP3 H1   HT     0.417000        1.0080           0
   15307 TIP3 2467 TIP3 H2   HT     0.417000        1.0080           0
   15308 TIP3 2468 TIP3 OH2  OT    -0.834000       15.9994           0
   15309 TIP3 2468 TIP3 H1   HT     0.417000        1.0080           0
   15310 TIP3 2468 TIP3 H2   HT     0.417000        1.0080           0
   15311 TIP3 2469 TIP3 OH2  OT    -0.834000       15.9994           0
   15312 TIP3 2469 TIP3 H1   HT     0.417000        1.0080           0
   15313 TIP3 2469 TIP3 H2   HT     0.417000        1.0080           0
   15314 TIP3 2470 TIP3 OH2  OT    -0.834000       15.9994           0
   15315 TIP3 2470 TIP3 H1   HT     0.417000        1.0080           0
   15316 TIP3 2470 TIP3 H2   HT     0.417000        1.0080           0
   15317 TIP3 2471 TIP3 OH2  OT    -0.834000       15.9994           0
   15318 TIP3 2471 TIP3 H1   HT     0.417000        1.0080           0
   15319 TIP3 2471 TIP3 H2   HT     0.417000        1.0080           0
   15320 TIP3 2472 TIP3 OH2  OT    -0.834000       15.9994           0
   15321 TIP3 2472 TIP3 H1   HT     0.417000        1.0080           0
   15322 TIP3 2472 TIP3 H2   HT     0.417000        1.0080           0
   15323 TIP3 2473 TIP3 OH2  OT    -0.834000       15.9994           0
   15324 TIP3 2473 TIP3 H1   HT     0.417000        1.0080           0
   15325 TIP3 2473 TIP3 H2   HT     0.417000        1.0080           0
   15326 TIP3 2474 TIP3 OH2  OT    -0.834000       15.9994           0
   15327 TIP3 2474 TIP3 H1   HT     0.417000        1.0080           0
   15328 TIP3 2474 TIP3 H2   HT     0.417000        1.0080           0
   15329 TIP3 2475 TIP3 OH2  OT    -0.834000       15.9994           0
   15330 TIP3 2475 TIP3 H1   HT     0.417000        1.0080           0
   15331 TIP3 2475 TIP3 H2   HT     0.417000        1.0080           0
   15332 TIP3 2476 TIP3 OH2  OT    -0.834000       15.9994           0
   15333 TIP3 2476 TIP3 H1   HT     0.417000        1.0080           0
   15334 TIP3 2476 TIP3 H2   HT     0.417000        1.0080           0
   15335 TIP3 2477 TIP3 OH2  OT    -0.834000       15.9994           0
   15336 TIP3 2477 TIP3 H1   HT     0.417000        1.0080           0
   15337 TIP3 2477 TIP3 H2   HT     0.417000        1.0080           0
   15338 TIP3 2478 TIP3 OH2  OT    -0.834000       15.9994           0
   15339 TIP3 2478 TIP3 H1   HT     0.417000        1.0080           0
   15340 TIP3 2478 TIP3 H2   HT     0.417000        1.0080           0
   15341 TIP3 2479 TIP3 OH2  OT    -0.834000       15.9994           0
   15342 TIP3 2479 TIP3 H1   HT     0.417000        1.0080           0
   15343 TIP3 2479 TIP3 H2   HT     0.417000        1.0080           0
   15344 TIP3 2480 TIP3 OH2  OT    -0.834000       15.9994           0
   15345 TIP3 2480 TIP3 H1   HT     0.417000        1.0080           0
   15346 TIP3 2480 TIP3 H2   HT     0.417000        1.0080           0
   15347 TIP3 2481 TIP3 OH2  OT    -0.834000       15.9994           0
   15348 TIP3 2481 TIP3 H1   HT     0.417000        1.0080           0
   15349 TIP3 2481 TIP3 H2   HT     0.417000        1.0080           0
   15350 TIP3 2482 TIP3 OH2  OT    -0.834000       15.9994           0
   15351 TIP3 2482 TIP3 H1   HT     0.417000        1.0080           0
   15352 TIP3 2482 TIP3 H2   HT     0.417000        1.0080           0
   15353 TIP3 2483 TIP3 OH2  OT    -0.834000       15.9994           0
   15354 TIP3 2483 TIP3 H1   HT     0.417000        1.0080           0
   15355 TIP3 2483 TIP3 H2   HT     0.417000        1.0080           0
   15356 TIP3 2484 TIP3 OH2  OT    -0.834000       15.9994           0
   15357 TIP3 2484 TIP3 H1   HT     0.417000        1.0080           0
   15358 TIP3 2484 TIP3 H2   HT     0.417000        1.0080           0
   15359 TIP3 2485 TIP3 OH2  OT    -0.834000       15.9994           0
   15360 TIP3 2485 TIP3 H1   HT     0.417000        1.0080           0
   15361 TIP3 2485 TIP3 H2   HT     0.417000        1.0080           0
   15362 TIP3 2486 TIP3 OH2  OT    -0.834000       15.9994           0
   15363 TIP3 2486 TIP3 H1   HT     0.417000        1.0080           0
   15364 TIP3 2486 TIP3 H2   HT     0.417000        1.0080           0
   15365 TIP3 2487 TIP3 OH2  OT    -0.834000       15.9994           0
   15366 TIP3 2487 TIP3 H1   HT     0.417000        1.0080           0
   15367 TIP3 2487 TIP3 H2   HT     0.417000        1.0080           0
   15368 TIP3 2488 TIP3 OH2  OT    -0.834000       15.9994           0
   15369 TIP3 2488 TIP3 H1   HT     0.417000        1.0080           0
   15370 TIP3 2488 TIP3 H2   HT     0.417000        1.0080           0
   15371 TIP3 2489 TIP3 OH2  OT    -0.834000       15.9994           0
   15372 TIP3 2489 TIP3 H1   HT     0.417000        1.0080           0
   15373 TIP3 2489 TIP3 H2   HT     0.417000        1.0080           0
   15374 TIP3 2490 TIP3 OH2  OT    -0.834000       15.9994           0
   15375 TIP3 2490 TIP3 H1   HT     0.417000        1.0080           0
   15376 TIP3 2490 TIP3 H2   HT     0.417000        1.0080           0
   15377 TIP3 2491 TIP3 OH2  OT    -0.834000       15.9994           0
   15378 TIP3 2491 TIP3 H1   HT     0.417000        1.0080           0
   15379 TIP3 2491 TIP3 H2   HT     0.417000        1.0080           0
   15380 TIP3 2492 TIP3 OH2  OT    -0.834000       15.9994           0
   15381 TIP3 2492 TIP3 H1   HT     0.417000        1.0080           0
   15382 TIP3 2492 TIP3 H2   HT     0.417000        1.0080           0
   15383 TIP3 2493 TIP3 OH2  OT    -0.834000       15.9994           0
   15384 TIP3 2493 TIP3 H1   HT     0.417000        1.0080           0
   15385 TIP3 2493 TIP3 H2   HT     0.417000        1.0080           0
   15386 TIP3 2494 TIP3 OH2  OT    -0.834000       15.9994           0
   15387 TIP3 2494 TIP3 H1   HT     0.417000        1.0080           0
   15388 TIP3 2494 TIP3 H2   HT     0.417000        1.0080           0
   15389 TIP3 2495 TIP3 OH2  OT    -0.834000       15.9994           0
   15390 TIP3 2495 TIP3 H1   HT     0.417000        1.0080           0
   15391 TIP3 2495 TIP3 H2   HT     0.417000        1.0080           0
   15392 TIP3 2496 TIP3 OH2  OT    -0.834000       15.9994           0
   15393 TIP3 2496 TIP3 H1   HT     0.417000        1.0080           0
   15394 TIP3 2496 TIP3 H2   HT     0.417000        1.0080           0
   15395 TIP3 2497 TIP3 OH2  OT    -0.834000       15.9994           0
   15396 TIP3 2497 TIP3 H1   HT     0.417000        1.0080           0
   15397 TIP3 2497 TIP3 H2   HT     0.417000        1.0080           0
   15398 TIP3 2498 TIP3 OH2  OT    -0.834000       15.9994           0
   15399 TIP3 2498 TIP3 H1   HT     0.417000        1.0080           0
   15400 TIP3 2498 TIP3 H2   HT     0.417000        1.0080           0
   15401 TIP3 2499 TIP3 OH2  OT    -0.834000       15.9994           0
   15402 TIP3 2499 TIP3 H1   HT     0.417000        1.0080           0
   15403 TIP3 2499 TIP3 H2   HT     0.417000        1.0080           0
   15404 TIP3 2500 TIP3 OH2  OT    -0.834000       15.9994           0
   15405 TIP3 2500 TIP3 H1   HT     0.417000        1.0080           0
   15406 TIP3 2500 TIP3 H2   HT     0.417000        1.0080           0
   15407 TIP3 2501 TIP3 OH2  OT    -0.834000       15.9994           0
   15408 TIP3 2501 TIP3 H1   HT     0.417000        1.0080           0
   15409 TIP3 2501 TIP3 H2   HT     0.417000        1.0080           0
   15410 TIP3 2502 TIP3 OH2  OT    -0.834000       15.9994           0
   15411 TIP3 2502 TIP3 H1   HT     0.417000        1.0080           0
   15412 TIP3 2502 TIP3 H2   HT     0.417000        1.0080           0
   15413 TIP3 2503 TIP3 OH2  OT    -0.834000       15.9994           0
   15414 TIP3 2503 TIP3 H1   HT     0.417000        1.0080           0
   15415 TIP3 2503 TIP3 H2   HT     0.417000        1.0080           0
   15416 TIP3 2504 TIP3 OH2  OT    -0.834000       15.9994           0
   15417 TIP3 2504 TIP3 H1   HT     0.417000        1.0080           0
   15418 TIP3 2504 TIP3 H2   HT     0.417000        1.0080           0
   15419 TIP3 2505 TIP3 OH2  OT    -0.834000       15.9994           0
   15420 TIP3 2505 TIP3 H1   HT     0.417000        1.0080           0
   15421 TIP3 2505 TIP3 H2   HT     0.417000        1.0080           0
   15422 TIP3 2506 TIP3 OH2  OT    -0.834000       15.9994           0
   15423 TIP3 2506 TIP3 H1   HT     0.417000        1.0080           0
   15424 TIP3 2506 TIP3 H2   HT     0.417000        1.0080           0
   15425 TIP3 2507 TIP3 OH2  OT    -0.834000       15.9994           0
   15426 TIP3 2507 TIP3 H1   HT     0.417000        1.0080           0
   15427 TIP3 2507 TIP3 H2   HT     0.417000        1.0080           0
   15428 TIP3 2508 TIP3 OH2  OT    -0.834000       15.9994           0
   15429 TIP3 2508 TIP3 H1   HT     0.417000        1.0080           0
   15430 TIP3 2508 TIP3 H2   HT     0.417000        1.0080           0
   15431 TIP3 2509 TIP3 OH2  OT    -0.834000       15.9994           0
   15432 TIP3 2509 TIP3 H1   HT     0.417000        1.0080           0
   15433 TIP3 2509 TIP3 H2   HT     0.417000        1.0080           0
   15434 TIP3 2510 TIP3 OH2  OT    -0.834000       15.9994           0
   15435 TIP3 2510 TIP3 H1   HT     0.417000        1.0080           0
   15436 TIP3 2510 TIP3 H2   HT     0.417000        1.0080           0
   15437 TIP3 2511 TIP3 OH2  OT    -0.834000       15.9994           0
   15438 TIP3 2511 TIP3 H1   HT     0.417000        1.0080           0
   15439 TIP3 2511 TIP3 H2   HT     0.417000        1.0080           0
   15440 TIP3 2512 TIP3 OH2  OT    -0.834000       15.9994           0
   15441 TIP3 2512 TIP3 H1   HT     0.417000        1.0080           0
   15442 TIP3 2512 TIP3 H2   HT     0.417000        1.0080           0
   15443 TIP3 2513 TIP3 OH2  OT    -0.834000       15.9994           0
   15444 TIP3 2513 TIP3 H1   HT     0.417000        1.0080           0
   15445 TIP3 2513 TIP3 H2   HT     0.417000        1.0080           0
   15446 TIP3 2514 TIP3 OH2  OT    -0.834000       15.9994           0
   15447 TIP3 2514 TIP3 H1   HT     0.417000        1.0080           0
   15448 TIP3 2514 TIP3 H2   HT     0.417000        1.0080           0
   15449 TIP3 2515 TIP3 OH2  OT    -0.834000       15.9994           0
   15450 TIP3 2515 TIP3 H1   HT     0.417000        1.0080           0
   15451 TIP3 2515 TIP3 H2   HT     0.417000        1.0080           0
   15452 TIP3 2516 TIP3 OH2  OT    -0.834000       15.9994           0
   15453 TIP3 2516 TIP3 H1   HT     0.417000        1.0080           0
   15454 TIP3 2516 TIP3 H2   HT     0.417000        1.0080           0
   15455 TIP3 2517 TIP3 OH2  OT    -0.834000       15.9994           0
   15456 TIP3 2517 TIP3 H1   HT     0.417000        1.0080           0
   15457 TIP3 2517 TIP3 H2   HT     0.417000        1.0080           0
   15458 TIP3 2518 TIP3 OH2  OT    -0.834000       15.9994           0
   15459 TIP3 2518 TIP3 H1   HT     0.417000        1.0080           0
   15460 TIP3 2518 TIP3 H2   HT     0.417000        1.0080           0
   15461 TIP3 2519 TIP3 OH2  OT    -0.834000       15.9994           0
   15462 TIP3 2519 TIP3 H1   HT     0.417000        1.0080           0
   15463 TIP3 2519 TIP3 H2   HT     0.417000        1.0080           0
   15464 TIP3 2520 TIP3 OH2  OT    -0.834000       15.9994           0
   15465 TIP3 2520 TIP3 H1   HT     0.417000        1.0080           0
   15466 TIP3 2520 TIP3 H2   HT     0.417000        1.0080           0
   15467 TIP3 2521 TIP3 OH2  OT    -0.834000       15.9994           0
   15468 TIP3 2521 TIP3 H1   HT     0.417000        1.0080           0
   15469 TIP3 2521 TIP3 H2   HT     0.417000        1.0080           0
   15470 TIP3 2522 TIP3 OH2  OT    -0.834000       15.9994           0
   15471 TIP3 2522 TIP3 H1   HT     0.417000        1.0080           0
   15472 TIP3 2522 TIP3 H2   HT     0.417000        1.0080           0
   15473 TIP3 2523 TIP3 OH2  OT    -0.834000       15.9994           0
   15474 TIP3 2523 TIP3 H1   HT     0.417000        1.0080           0
   15475 TIP3 2523 TIP3 H2   HT     0.417000        1.0080           0
   15476 TIP3 2524 TIP3 OH2  OT    -0.834000       15.9994           0
   15477 TIP3 2524 TIP3 H1   HT     0.417000        1.0080           0
   15478 TIP3 2524 TIP3 H2   HT     0.417000        1.0080           0
   15479 TIP3 2525 TIP3 OH2  OT    -0.834000       15.9994           0
   15480 TIP3 2525 TIP3 H1   HT     0.417000        1.0080           0
   15481 TIP3 2525 TIP3 H2   HT     0.417000        1.0080           0
   15482 TIP3 2526 TIP3 OH2  OT    -0.834000       15.9994           0
   15483 TIP3 2526 TIP3 H1   HT     0.417000        1.0080           0
   15484 TIP3 2526 TIP3 H2   HT     0.417000        1.0080           0
   15485 TIP3 2527 TIP3 OH2  OT    -0.834000       15.9994           0
   15486 TIP3 2527 TIP3 H1   HT     0.417000        1.0080           0
   15487 TIP3 2527 TIP3 H2   HT     0.417000        1.0080           0
   15488 TIP3 2528 TIP3 OH2  OT    -0.834000       15.9994           0
   15489 TIP3 2528 TIP3 H1   HT     0.417000        1.0080           0
   15490 TIP3 2528 TIP3 H2   HT     0.417000        1.0080           0
   15491 TIP3 2529 TIP3 OH2  OT    -0.834000       15.9994           0
   15492 TIP3 2529 TIP3 H1   HT     0.417000        1.0080           0
   15493 TIP3 2529 TIP3 H2   HT     0.417000        1.0080           0
   15494 TIP3 2530 TIP3 OH2  OT    -0.834000       15.9994           0
   15495 TIP3 2530 TIP3 H1   HT     0.417000        1.0080           0
   15496 TIP3 2530 TIP3 H2   HT     0.417000        1.0080           0
   15497 TIP3 2531 TIP3 OH2  OT    -0.834000       15.9994           0
   15498 TIP3 2531 TIP3 H1   HT     0.417000        1.0080           0
   15499 TIP3 2531 TIP3 H2   HT     0.417000        1.0080           0
   15500 TIP3 2532 TIP3 OH2  OT    -0.834000       15.9994           0
   15501 TIP3 2532 TIP3 H1   HT     0.417000        1.0080           0
   15502 TIP3 2532 TIP3 H2   HT     0.417000        1.0080           0
   15503 TIP3 2533 TIP3 OH2  OT    -0.834000       15.9994           0
   15504 TIP3 2533 TIP3 H1   HT     0.417000        1.0080           0
   15505 TIP3 2533 TIP3 H2   HT     0.417000        1.0080           0
   15506 TIP3 2534 TIP3 OH2  OT    -0.834000       15.9994           0
   15507 TIP3 2534 TIP3 H1   HT     0.417000        1.0080           0
   15508 TIP3 2534 TIP3 H2   HT     0.417000        1.0080           0
   15509 TIP3 2535 TIP3 OH2  OT    -0.834000       15.9994           0
   15510 TIP3 2535 TIP3 H1   HT     0.417000        1.0080           0
   15511 TIP3 2535 TIP3 H2   HT     0.417000        1.0080           0
   15512 TIP3 2536 TIP3 OH2  OT    -0.834000       15.9994           0
   15513 TIP3 2536 TIP3 H1   HT     0.417000        1.0080           0
   15514 TIP3 2536 TIP3 H2   HT     0.417000        1.0080           0
   15515 TIP3 2537 TIP3 OH2  OT    -0.834000       15.9994           0
   15516 TIP3 2537 TIP3 H1   HT     0.417000        1.0080           0
   15517 TIP3 2537 TIP3 H2   HT     0.417000        1.0080           0
   15518 TIP3 2538 TIP3 OH2  OT    -0.834000       15.9994           0
   15519 TIP3 2538 TIP3 H1   HT     0.417000        1.0080           0
   15520 TIP3 2538 TIP3 H2   HT     0.417000        1.0080           0
   15521 TIP3 2539 TIP3 OH2  OT    -0.834000       15.9994           0
   15522 TIP3 2539 TIP3 H1   HT     0.417000        1.0080           0
   15523 TIP3 2539 TIP3 H2   HT     0.417000        1.0080           0
   15524 TIP3 2540 TIP3 OH2  OT    -0.834000       15.9994           0
   15525 TIP3 2540 TIP3 H1   HT     0.417000        1.0080           0
   15526 TIP3 2540 TIP3 H2   HT     0.417000        1.0080           0
   15527 TIP3 2541 TIP3 OH2  OT    -0.834000       15.9994           0
   15528 TIP3 2541 TIP3 H1   HT     0.417000        1.0080           0
   15529 TIP3 2541 TIP3 H2   HT     0.417000        1.0080           0
   15530 TIP3 2542 TIP3 OH2  OT    -0.834000       15.9994           0
   15531 TIP3 2542 TIP3 H1   HT     0.417000        1.0080           0
   15532 TIP3 2542 TIP3 H2   HT     0.417000        1.0080           0
   15533 TIP3 2543 TIP3 OH2  OT    -0.834000       15.9994           0
   15534 TIP3 2543 TIP3 H1   HT     0.417000        1.0080           0
   15535 TIP3 2543 TIP3 H2   HT     0.417000        1.0080           0
   15536 TIP3 2544 TIP3 OH2  OT    -0.834000       15.9994           0
   15537 TIP3 2544 TIP3 H1   HT     0.417000        1.0080           0
   15538 TIP3 2544 TIP3 H2   HT     0.417000        1.0080           0
   15539 TIP3 2545 TIP3 OH2  OT    -0.834000       15.9994           0
   15540 TIP3 2545 TIP3 H1   HT     0.417000        1.0080           0
   15541 TIP3 2545 TIP3 H2   HT     0.417000        1.0080           0
   15542 TIP3 2546 TIP3 OH2  OT    -0.834000       15.9994           0
   15543 TIP3 2546 TIP3 H1   HT     0.417000        1.0080           0
   15544 TIP3 2546 TIP3 H2   HT     0.417000        1.0080           0
   15545 TIP3 2547 TIP3 OH2  OT    -0.834000       15.9994           0
   15546 TIP3 2547 TIP3 H1   HT     0.417000        1.0080           0
   15547 TIP3 2547 TIP3 H2   HT     0.417000        1.0080           0
   15548 TIP3 2548 TIP3 OH2  OT    -0.834000       15.9994           0
   15549 TIP3 2548 TIP3 H1   HT     0.417000        1.0080           0
   15550 TIP3 2548 TIP3 H2   HT     0.417000        1.0080           0
   15551 TIP3 2549 TIP3 OH2  OT    -0.834000       15.9994           0
   15552 TIP3 2549 TIP3 H1   HT     0.417000        1.0080           0
   15553 TIP3 2549 TIP3 H2   HT     0.417000        1.0080           0
   15554 TIP3 2550 TIP3 OH2  OT    -0.834000       15.9994           0
   15555 TIP3 2550 TIP3 H1   HT     0.417000        1.0080           0
   15556 TIP3 2550 TIP3 H2   HT     0.417000        1.0080           0
   15557 TIP3 2551 TIP3 OH2  OT    -0.834000       15.9994           0
   15558 TIP3 2551 TIP3 H1   HT     0.417000        1.0080           0
   15559 TIP3 2551 TIP3 H2   HT     0.417000        1.0080           0
   15560 TIP3 2552 TIP3 OH2  OT    -0.834000       15.9994           0
   15561 TIP3 2552 TIP3 H1   HT     0.417000        1.0080           0
   15562 TIP3 2552 TIP3 H2   HT     0.417000        1.0080           0
   15563 TIP3 2553 TIP3 OH2  OT    -0.834000       15.9994           0
   15564 TIP3 2553 TIP3 H1   HT     0.417000        1.0080           0
   15565 TIP3 2553 TIP3 H2   HT     0.417000        1.0080           0
   15566 TIP3 2554 TIP3 OH2  OT    -0.834000       15.9994           0
   15567 TIP3 2554 TIP3 H1   HT     0.417000        1.0080           0
   15568 TIP3 2554 TIP3 H2   HT     0.417000        1.0080           0
   15569 TIP3 2555 TIP3 OH2  OT    -0.834000       15.9994           0
   15570 TIP3 2555 TIP3 H1   HT     0.417000        1.0080           0
   15571 TIP3 2555 TIP3 H2   HT     0.417000        1.0080           0
   15572 TIP3 2556 TIP3 OH2  OT    -0.834000       15.9994           0
   15573 TIP3 2556 TIP3 H1   HT     0.417000        1.0080           0
   15574 TIP3 2556 TIP3 H2   HT     0.417000        1.0080           0
   15575 TIP3 2557 TIP3 OH2  OT    -0.834000       15.9994           0
   15576 TIP3 2557 TIP3 H1   HT     0.417000        1.0080           0
   15577 TIP3 2557 TIP3 H2   HT     0.417000        1.0080           0
   15578 TIP3 2558 TIP3 OH2  OT    -0.834000       15.9994           0
   15579 TIP3 2558 TIP3 H1   HT     0.417000        1.0080           0
   15580 TIP3 2558 TIP3 H2   HT     0.417000        1.0080           0
   15581 TIP3 2559 TIP3 OH2  OT    -0.834000       15.9994           0
   15582 TIP3 2559 TIP3 H1   HT     0.417000        1.0080           0
   15583 TIP3 2559 TIP3 H2   HT     0.417000        1.0080           0
   15584 TIP3 2560 TIP3 OH2  OT    -0.834000       15.9994           0
   15585 TIP3 2560 TIP3 H1   HT     0.417000        1.0080           0
   15586 TIP3 2560 TIP3 H2   HT     0.417000        1.0080           0
   15587 TIP3 2561 TIP3 OH2  OT    -0.834000       15.9994           0
   15588 TIP3 2561 TIP3 H1   HT     0.417000        1.0080           0
   15589 TIP3 2561 TIP3 H2   HT     0.417000        1.0080           0
   15590 TIP3 2562 TIP3 OH2  OT    -0.834000       15.9994           0
   15591 TIP3 2562 TIP3 H1   HT     0.417000        1.0080           0
   15592 TIP3 2562 TIP3 H2   HT     0.417000        1.0080           0
   15593 TIP3 2563 TIP3 OH2  OT    -0.834000       15.9994           0
   15594 TIP3 2563 TIP3 H1   HT     0.417000        1.0080           0
   15595 TIP3 2563 TIP3 H2   HT     0.417000        1.0080           0
   15596 TIP3 2564 TIP3 OH2  OT    -0.834000       15.9994           0
   15597 TIP3 2564 TIP3 H1   HT     0.417000        1.0080           0
   15598 TIP3 2564 TIP3 H2   HT     0.417000        1.0080           0
   15599 TIP3 2565 TIP3 OH2  OT    -0.834000       15.9994           0
   15600 TIP3 2565 TIP3 H1   HT     0.417000        1.0080           0
   15601 TIP3 2565 TIP3 H2   HT     0.417000        1.0080           0
   15602 TIP3 2566 TIP3 OH2  OT    -0.834000       15.9994           0
   15603 TIP3 2566 TIP3 H1   HT     0.417000        1.0080           0
   15604 TIP3 2566 TIP3 H2   HT     0.417000        1.0080           0
   15605 TIP3 2567 TIP3 OH2  OT    -0.834000       15.9994           0
   15606 TIP3 2567 TIP3 H1   HT     0.417000        1.0080           0
   15607 TIP3 2567 TIP3 H2   HT     0.417000        1.0080           0
   15608 TIP3 2568 TIP3 OH2  OT    -0.834000       15.9994           0
   15609 TIP3 2568 TIP3 H1   HT     0.417000        1.0080           0
   15610 TIP3 2568 TIP3 H2   HT     0.417000        1.0080           0
   15611 TIP3 2569 TIP3 OH2  OT    -0.834000       15.9994           0
   15612 TIP3 2569 TIP3 H1   HT     0.417000        1.0080           0
   15613 TIP3 2569 TIP3 H2   HT     0.417000        1.0080           0
   15614 TIP3 2570 TIP3 OH2  OT    -0.834000       15.9994           0
   15615 TIP3 2570 TIP3 H1   HT     0.417000        1.0080           0
   15616 TIP3 2570 TIP3 H2   HT     0.417000        1.0080           0
   15617 TIP3 2571 TIP3 OH2  OT    -0.834000       15.9994           0
   15618 TIP3 2571 TIP3 H1   HT     0.417000        1.0080           0
   15619 TIP3 2571 TIP3 H2   HT     0.417000        1.0080           0
   15620 TIP3 2572 TIP3 OH2  OT    -0.834000       15.9994           0
   15621 TIP3 2572 TIP3 H1   HT     0.417000        1.0080           0
   15622 TIP3 2572 TIP3 H2   HT     0.417000        1.0080           0
   15623 TIP3 2573 TIP3 OH2  OT    -0.834000       15.9994           0
   15624 TIP3 2573 TIP3 H1   HT     0.417000        1.0080           0
   15625 TIP3 2573 TIP3 H2   HT     0.417000        1.0080           0
   15626 TIP3 2574 TIP3 OH2  OT    -0.834000       15.9994           0
   15627 TIP3 2574 TIP3 H1   HT     0.417000        1.0080           0
   15628 TIP3 2574 TIP3 H2   HT     0.417000        1.0080           0
   15629 TIP3 2575 TIP3 OH2  OT    -0.834000       15.9994           0
   15630 TIP3 2575 TIP3 H1   HT     0.417000        1.0080           0
   15631 TIP3 2575 TIP3 H2   HT     0.417000        1.0080           0
   15632 TIP3 2576 TIP3 OH2  OT    -0.834000       15.9994           0
   15633 TIP3 2576 TIP3 H1   HT     0.417000        1.0080           0
   15634 TIP3 2576 TIP3 H2   HT     0.417000        1.0080           0
   15635 TIP3 2577 TIP3 OH2  OT    -0.834000       15.9994           0
   15636 TIP3 2577 TIP3 H1   HT     0.417000        1.0080           0
   15637 TIP3 2577 TIP3 H2   HT     0.417000        1.0080           0
   15638 TIP3 2578 TIP3 OH2  OT    -0.834000       15.9994           0
   15639 TIP3 2578 TIP3 H1   HT     0.417000        1.0080           0
   15640 TIP3 2578 TIP3 H2   HT     0.417000        1.0080           0
   15641 TIP3 2579 TIP3 OH2  OT    -0.834000       15.9994           0
   15642 TIP3 2579 TIP3 H1   HT     0.417000        1.0080           0
   15643 TIP3 2579 TIP3 H2   HT     0.417000        1.0080           0
   15644 TIP3 2580 TIP3 OH2  OT    -0.834000       15.9994           0
   15645 TIP3 2580 TIP3 H1   HT     0.417000        1.0080           0
   15646 TIP3 2580 TIP3 H2   HT     0.417000        1.0080           0
   15647 TIP3 2581 TIP3 OH2  OT    -0.834000       15.9994           0
   15648 TIP3 2581 TIP3 H1   HT     0.417000        1.0080           0
   15649 TIP3 2581 TIP3 H2   HT     0.417000        1.0080           0
   15650 TIP3 2582 TIP3 OH2  OT    -0.834000       15.9994           0
   15651 TIP3 2582 TIP3 H1   HT     0.417000        1.0080           0
   15652 TIP3 2582 TIP3 H2   HT     0.417000        1.0080           0
   15653 TIP3 2583 TIP3 OH2  OT    -0.834000       15.9994           0
   15654 TIP3 2583 TIP3 H1   HT     0.417000        1.0080           0
   15655 TIP3 2583 TIP3 H2   HT     0.417000        1.0080           0
   15656 TIP3 2584 TIP3 OH2  OT    -0.834000       15.9994           0
   15657 TIP3 2584 TIP3 H1   HT     0.417000        1.0080           0
   15658 TIP3 2584 TIP3 H2   HT     0.417000        1.0080           0
   15659 TIP3 2585 TIP3 OH2  OT    -0.834000       15.9994           0
   15660 TIP3 2585 TIP3 H1   HT     0.417000        1.0080           0
   15661 TIP3 2585 TIP3 H2   HT     0.417000        1.0080           0
   15662 TIP3 2586 TIP3 OH2  OT    -0.834000       15.9994           0
   15663 TIP3 2586 TIP3 H1   HT     0.417000        1.0080           0
   15664 TIP3 2586 TIP3 H2   HT     0.417000        1.0080           0
   15665 TIP3 2587 TIP3 OH2  OT    -0.834000       15.9994           0
   15666 TIP3 2587 TIP3 H1   HT     0.417000        1.0080           0
   15667 TIP3 2587 TIP3 H2   HT     0.417000        1.0080           0
   15668 TIP3 2588 TIP3 OH2  OT    -0.834000       15.9994           0
   15669 TIP3 2588 TIP3 H1   HT     0.417000        1.0080           0
   15670 TIP3 2588 TIP3 H2   HT     0.417000        1.0080           0
   15671 TIP3 2589 TIP3 OH2  OT    -0.834000       15.9994           0
   15672 TIP3 2589 TIP3 H1   HT     0.417000        1.0080           0
   15673 TIP3 2589 TIP3 H2   HT     0.417000        1.0080           0
   15674 TIP3 2590 TIP3 OH2  OT    -0.834000       15.9994           0
   15675 TIP3 2590 TIP3 H1   HT     0.417000        1.0080           0
   15676 TIP3 2590 TIP3 H2   HT     0.417000        1.0080           0
   15677 TIP3 2591 TIP3 OH2  OT    -0.834000       15.9994           0
   15678 TIP3 2591 TIP3 H1   HT     0.417000        1.0080           0
   15679 TIP3 2591 TIP3 H2   HT     0.417000        1.0080           0
   15680 TIP3 2592 TIP3 OH2  OT    -0.834000       15.9994           0
   15681 TIP3 2592 TIP3 H1   HT     0.417000        1.0080           0
   15682 TIP3 2592 TIP3 H2   HT     0.417000        1.0080           0
   15683 TIP3 2593 TIP3 OH2  OT    -0.834000       15.9994           0
   15684 TIP3 2593 TIP3 H1   HT     0.417000        1.0080           0
   15685 TIP3 2593 TIP3 H2   HT     0.417000        1.0080           0
   15686 TIP3 2594 TIP3 OH2  OT    -0.834000       15.9994           0
   15687 TIP3 2594 TIP3 H1   HT     0.417000        1.0080           0
   15688 TIP3 2594 TIP3 H2   HT     0.417000        1.0080           0
   15689 TIP3 2595 TIP3 OH2  OT    -0.834000       15.9994           0
   15690 TIP3 2595 TIP3 H1   HT     0.417000        1.0080           0
   15691 TIP3 2595 TIP3 H2   HT     0.417000        1.0080           0
   15692 TIP3 2596 TIP3 OH2  OT    -0.834000       15.9994           0
   15693 TIP3 2596 TIP3 H1   HT     0.417000        1.0080           0
   15694 TIP3 2596 TIP3 H2   HT     0.417000        1.0080           0
   15695 TIP3 2597 TIP3 OH2  OT    -0.834000       15.9994           0
   15696 TIP3 2597 TIP3 H1   HT     0.417000        1.0080           0
   15697 TIP3 2597 TIP3 H2   HT     0.417000        1.0080           0
   15698 TIP3 2598 TIP3 OH2  OT    -0.834000       15.9994           0
   15699 TIP3 2598 TIP3 H1   HT     0.417000        1.0080           0
   15700 TIP3 2598 TIP3 H2   HT     0.417000        1.0080           0
   15701 TIP3 2599 TIP3 OH2  OT    -0.834000       15.9994           0
   15702 TIP3 2599 TIP3 H1   HT     0.417000        1.0080           0
   15703 TIP3 2599 TIP3 H2   HT     0.417000        1.0080           0
   15704 TIP3 2600 TIP3 OH2  OT    -0.834000       15.9994           0
   15705 TIP3 2600 TIP3 H1   HT     0.417000        1.0080           0
   15706 TIP3 2600 TIP3 H2   HT     0.417000        1.0080           0
   15707 TIP3 2601 TIP3 OH2  OT    -0.834000       15.9994           0
   15708 TIP3 2601 TIP3 H1   HT     0.417000        1.0080           0
   15709 TIP3 2601 TIP3 H2   HT     0.417000        1.0080           0
   15710 TIP3 2602 TIP3 OH2  OT    -0.834000       15.9994           0
   15711 TIP3 2602 TIP3 H1   HT     0.417000        1.0080           0
   15712 TIP3 2602 TIP3 H2   HT     0.417000        1.0080           0
   15713 TIP3 2603 TIP3 OH2  OT    -0.834000       15.9994           0
   15714 TIP3 2603 TIP3 H1   HT     0.417000        1.0080           0
   15715 TIP3 2603 TIP3 H2   HT     0.417000        1.0080           0
   15716 TIP3 2604 TIP3 OH2  OT    -0.834000       15.9994           0
   15717 TIP3 2604 TIP3 H1   HT     0.417000        1.0080           0
   15718 TIP3 2604 TIP3 H2   HT     0.417000        1.0080           0
   15719 TIP3 2605 TIP3 OH2  OT    -0.834000       15.9994           0
   15720 TIP3 2605 TIP3 H1   HT     0.417000        1.0080           0
   15721 TIP3 2605 TIP3 H2   HT     0.417000        1.0080           0
   15722 TIP3 2606 TIP3 OH2  OT    -0.834000       15.9994           0
   15723 TIP3 2606 TIP3 H1   HT     0.417000        1.0080           0
   15724 TIP3 2606 TIP3 H2   HT     0.417000        1.0080           0
   15725 TIP3 2607 TIP3 OH2  OT    -0.834000       15.9994           0
   15726 TIP3 2607 TIP3 H1   HT     0.417000        1.0080           0
   15727 TIP3 2607 TIP3 H2   HT     0.417000        1.0080           0
   15728 TIP3 2608 TIP3 OH2  OT    -0.834000       15.9994           0
   15729 TIP3 2608 TIP3 H1   HT     0.417000        1.0080           0
   15730 TIP3 2608 TIP3 H2   HT     0.417000        1.0080           0
   15731 TIP3 2609 TIP3 OH2  OT    -0.834000       15.9994           0
   15732 TIP3 2609 TIP3 H1   HT     0.417000        1.0080           0
   15733 TIP3 2609 TIP3 H2   HT     0.417000        1.0080           0
   15734 TIP3 2610 TIP3 OH2  OT    -0.834000       15.9994           0
   15735 TIP3 2610 TIP3 H1   HT     0.417000        1.0080           0
   15736 TIP3 2610 TIP3 H2   HT     0.417000        1.0080           0
   15737 TIP3 2611 TIP3 OH2  OT    -0.834000       15.9994           0
   15738 TIP3 2611 TIP3 H1   HT     0.417000        1.0080           0
   15739 TIP3 2611 TIP3 H2   HT     0.417000        1.0080           0
   15740 TIP3 2612 TIP3 OH2  OT    -0.834000       15.9994           0
   15741 TIP3 2612 TIP3 H1   HT     0.417000        1.0080           0
   15742 TIP3 2612 TIP3 H2   HT     0.417000        1.0080           0
   15743 TIP3 2613 TIP3 OH2  OT    -0.834000       15.9994           0
   15744 TIP3 2613 TIP3 H1   HT     0.417000        1.0080           0
   15745 TIP3 2613 TIP3 H2   HT     0.417000        1.0080           0
   15746 TIP3 2614 TIP3 OH2  OT    -0.834000       15.9994           0
   15747 TIP3 2614 TIP3 H1   HT     0.417000        1.0080           0
   15748 TIP3 2614 TIP3 H2   HT     0.417000        1.0080           0
   15749 TIP3 2615 TIP3 OH2  OT    -0.834000       15.9994           0
   15750 TIP3 2615 TIP3 H1   HT     0.417000        1.0080           0
   15751 TIP3 2615 TIP3 H2   HT     0.417000        1.0080           0
   15752 TIP3 2616 TIP3 OH2  OT    -0.834000       15.9994           0
   15753 TIP3 2616 TIP3 H1   HT     0.417000        1.0080           0
   15754 TIP3 2616 TIP3 H2   HT     0.417000        1.0080           0
   15755 TIP3 2617 TIP3 OH2  OT    -0.834000       15.9994           0
   15756 TIP3 2617 TIP3 H1   HT     0.417000        1.0080           0
   15757 TIP3 2617 TIP3 H2   HT     0.417000        1.0080           0
   15758 TIP3 2618 TIP3 OH2  OT    -0.834000       15.9994           0
   15759 TIP3 2618 TIP3 H1   HT     0.417000        1.0080           0
   15760 TIP3 2618 TIP3 H2   HT     0.417000        1.0080           0
   15761 TIP3 2619 TIP3 OH2  OT    -0.834000       15.9994           0
   15762 TIP3 2619 TIP3 H1   HT     0.417000        1.0080           0
   15763 TIP3 2619 TIP3 H2   HT     0.417000        1.0080           0
   15764 TIP3 2620 TIP3 OH2  OT    -0.834000       15.9994           0
   15765 TIP3 2620 TIP3 H1   HT     0.417000        1.0080           0
   15766 TIP3 2620 TIP3 H2   HT     0.417000        1.0080           0
   15767 TIP3 2621 TIP3 OH2  OT    -0.834000       15.9994           0
   15768 TIP3 2621 TIP3 H1   HT     0.417000        1.0080           0
   15769 TIP3 2621 TIP3 H2   HT     0.417000        1.0080           0
   15770 TIP3 2622 TIP3 OH2  OT    -0.834000       15.9994           0
   15771 TIP3 2622 TIP3 H1   HT     0.417000        1.0080           0
   15772 TIP3 2622 TIP3 H2   HT     0.417000        1.0080           0
   15773 TIP3 2623 TIP3 OH2  OT    -0.834000       15.9994           0
   15774 TIP3 2623 TIP3 H1   HT     0.417000        1.0080           0
   15775 TIP3 2623 TIP3 H2   HT     0.417000        1.0080           0
   15776 TIP3 2624 TIP3 OH2  OT    -0.834000       15.9994           0
   15777 TIP3 2624 TIP3 H1   HT     0.417000        1.0080           0
   15778 TIP3 2624 TIP3 H2   HT     0.417000        1.0080           0
   15779 TIP3 2625 TIP3 OH2  OT    -0.834000       15.9994           0
   15780 TIP3 2625 TIP3 H1   HT     0.417000        1.0080           0
   15781 TIP3 2625 TIP3 H2   HT     0.417000        1.0080           0
   15782 TIP3 2626 TIP3 OH2  OT    -0.834000       15.9994           0
   15783 TIP3 2626 TIP3 H1   HT     0.417000        1.0080           0
   15784 TIP3 2626 TIP3 H2   HT     0.417000        1.0080           0
   15785 TIP3 2627 TIP3 OH2  OT    -0.834000       15.9994           0
   15786 TIP3 2627 TIP3 H1   HT     0.417000        1.0080           0
   15787 TIP3 2627 TIP3 H2   HT     0.417000        1.0080           0
   15788 TIP3 2628 TIP3 OH2  OT    -0.834000       15.9994           0
   15789 TIP3 2628 TIP3 H1   HT     0.417000        1.0080           0
   15790 TIP3 2628 TIP3 H2   HT     0.417000        1.0080           0
   15791 TIP3 2629 TIP3 OH2  OT    -0.834000       15.9994           0
   15792 TIP3 2629 TIP3 H1   HT     0.417000        1.0080           0
   15793 TIP3 2629 TIP3 H2   HT     0.417000        1.0080           0
   15794 TIP3 2630 TIP3 OH2  OT    -0.834000       15.9994           0
   15795 TIP3 2630 TIP3 H1   HT     0.417000        1.0080           0
   15796 TIP3 2630 TIP3 H2   HT     0.417000        1.0080           0
   15797 TIP3 2631 TIP3 OH2  OT    -0.834000       15.9994           0
   15798 TIP3 2631 TIP3 H1   HT     0.417000        1.0080           0
   15799 TIP3 2631 TIP3 H2   HT     0.417000        1.0080           0
   15800 TIP3 2632 TIP3 OH2  OT    -0.834000       15.9994           0
   15801 TIP3 2632 TIP3 H1   HT     0.417000        1.0080           0
   15802 TIP3 2632 TIP3 H2   HT     0.417000        1.0080           0
   15803 TIP3 2633 TIP3 OH2  OT    -0.834000       15.9994           0
   15804 TIP3 2633 TIP3 H1   HT     0.417000        1.0080           0
   15805 TIP3 2633 TIP3 H2   HT     0.417000        1.0080           0
   15806 TIP3 2634 TIP3 OH2  OT    -0.834000       15.9994           0
   15807 TIP3 2634 TIP3 H1   HT     0.417000        1.0080           0
   15808 TIP3 2634 TIP3 H2   HT     0.417000        1.0080           0
   15809 TIP3 2635 TIP3 OH2  OT    -0.834000       15.9994           0
   15810 TIP3 2635 TIP3 H1   HT     0.417000        1.0080           0
   15811 TIP3 2635 TIP3 H2   HT     0.417000        1.0080           0
   15812 TIP3 2636 TIP3 OH2  OT    -0.834000       15.9994           0
   15813 TIP3 2636 TIP3 H1   HT     0.417000        1.0080           0
   15814 TIP3 2636 TIP3 H2   HT     0.417000        1.0080           0
   15815 TIP3 2637 TIP3 OH2  OT    -0.834000       15.9994           0
   15816 TIP3 2637 TIP3 H1   HT     0.417000        1.0080           0
   15817 TIP3 2637 TIP3 H2   HT     0.417000        1.0080           0
   15818 TIP3 2638 TIP3 OH2  OT    -0.834000       15.9994           0
   15819 TIP3 2638 TIP3 H1   HT     0.417000        1.0080           0
   15820 TIP3 2638 TIP3 H2   HT     0.417000        1.0080           0
   15821 TIP3 2639 TIP3 OH2  OT    -0.834000       15.9994           0
   15822 TIP3 2639 TIP3 H1   HT     0.417000        1.0080           0
   15823 TIP3 2639 TIP3 H2   HT     0.417000        1.0080           0
   15824 TIP3 2640 TIP3 OH2  OT    -0.834000       15.9994           0
   15825 TIP3 2640 TIP3 H1   HT     0.417000        1.0080           0
   15826 TIP3 2640 TIP3 H2   HT     0.417000        1.0080           0
   15827 TIP3 2641 TIP3 OH2  OT    -0.834000       15.9994           0
   15828 TIP3 2641 TIP3 H1   HT     0.417000        1.0080           0
   15829 TIP3 2641 TIP3 H2   HT     0.417000        1.0080           0
   15830 TIP3 2642 TIP3 OH2  OT    -0.834000       15.9994           0
   15831 TIP3 2642 TIP3 H1   HT     0.417000        1.0080           0
   15832 TIP3 2642 TIP3 H2   HT     0.417000        1.0080           0
   15833 TIP3 2643 TIP3 OH2  OT    -0.834000       15.9994           0
   15834 TIP3 2643 TIP3 H1   HT     0.417000        1.0080           0
   15835 TIP3 2643 TIP3 H2   HT     0.417000        1.0080           0
   15836 TIP3 2644 TIP3 OH2  OT    -0.834000       15.9994           0
   15837 TIP3 2644 TIP3 H1   HT     0.417000        1.0080           0
   15838 TIP3 2644 TIP3 H2   HT     0.417000        1.0080           0
   15839 TIP3 2645 TIP3 OH2  OT    -0.834000       15.9994           0
   15840 TIP3 2645 TIP3 H1   HT     0.417000        1.0080           0
   15841 TIP3 2645 TIP3 H2   HT     0.417000        1.0080           0
   15842 TIP3 2646 TIP3 OH2  OT    -0.834000       15.9994           0
   15843 TIP3 2646 TIP3 H1   HT     0.417000        1.0080           0
   15844 TIP3 2646 TIP3 H2   HT     0.417000        1.0080           0
   15845 TIP3 2647 TIP3 OH2  OT    -0.834000       15.9994           0
   15846 TIP3 2647 TIP3 H1   HT     0.417000        1.0080           0
   15847 TIP3 2647 TIP3 H2   HT     0.417000        1.0080           0
   15848 TIP3 2648 TIP3 OH2  OT    -0.834000       15.9994           0
   15849 TIP3 2648 TIP3 H1   HT     0.417000        1.0080           0
   15850 TIP3 2648 TIP3 H2   HT     0.417000        1.0080           0
   15851 TIP3 2649 TIP3 OH2  OT    -0.834000       15.9994           0
   15852 TIP3 2649 TIP3 H1   HT     0.417000        1.0080           0
   15853 TIP3 2649 TIP3 H2   HT     0.417000        1.0080           0
   15854 TIP3 2650 TIP3 OH2  OT    -0.834000       15.9994           0
   15855 TIP3 2650 TIP3 H1   HT     0.417000        1.0080           0
   15856 TIP3 2650 TIP3 H2   HT     0.417000        1.0080           0
   15857 TIP3 2651 TIP3 OH2  OT    -0.834000       15.9994           0
   15858 TIP3 2651 TIP3 H1   HT     0.417000        1.0080           0
   15859 TIP3 2651 TIP3 H2   HT     0.417000        1.0080           0
   15860 TIP3 2652 TIP3 OH2  OT    -0.834000       15.9994           0
   15861 TIP3 2652 TIP3 H1   HT     0.417000        1.0080           0
   15862 TIP3 2652 TIP3 H2   HT     0.417000        1.0080           0
   15863 TIP3 2653 TIP3 OH2  OT    -0.834000       15.9994           0
   15864 TIP3 2653 TIP3 H1   HT     0.417000        1.0080           0
   15865 TIP3 2653 TIP3 H2   HT     0.417000        1.0080           0
   15866 TIP3 2654 TIP3 OH2  OT    -0.834000       15.9994           0
   15867 TIP3 2654 TIP3 H1   HT     0.417000        1.0080           0
   15868 TIP3 2654 TIP3 H2   HT     0.417000        1.0080           0
   15869 TIP3 2655 TIP3 OH2  OT    -0.834000       15.9994           0
   15870 TIP3 2655 TIP3 H1   HT     0.417000        1.0080           0
   15871 TIP3 2655 TIP3 H2   HT     0.417000        1.0080           0
   15872 TIP3 2656 TIP3 OH2  OT    -0.834000       15.9994           0
   15873 TIP3 2656 TIP3 H1   HT     0.417000        1.0080           0
   15874 TIP3 2656 TIP3 H2   HT     0.417000        1.0080           0
   15875 TIP3 2657 TIP3 OH2  OT    -0.834000       15.9994           0
   15876 TIP3 2657 TIP3 H1   HT     0.417000        1.0080           0
   15877 TIP3 2657 TIP3 H2   HT     0.417000        1.0080           0
   15878 TIP3 2658 TIP3 OH2  OT    -0.834000       15.9994           0
   15879 TIP3 2658 TIP3 H1   HT     0.417000        1.0080           0
   15880 TIP3 2658 TIP3 H2   HT     0.417000        1.0080           0
   15881 TIP3 2659 TIP3 OH2  OT    -0.834000       15.9994           0
   15882 TIP3 2659 TIP3 H1   HT     0.417000        1.0080           0
   15883 TIP3 2659 TIP3 H2   HT     0.417000        1.0080           0
   15884 TIP3 2660 TIP3 OH2  OT    -0.834000       15.9994           0
   15885 TIP3 2660 TIP3 H1   HT     0.417000        1.0080           0
   15886 TIP3 2660 TIP3 H2   HT     0.417000        1.0080           0
   15887 TIP3 2661 TIP3 OH2  OT    -0.834000       15.9994           0
   15888 TIP3 2661 TIP3 H1   HT     0.417000        1.0080           0
   15889 TIP3 2661 TIP3 H2   HT     0.417000        1.0080           0
   15890 TIP3 2662 TIP3 OH2  OT    -0.834000       15.9994           0
   15891 TIP3 2662 TIP3 H1   HT     0.417000        1.0080           0
   15892 TIP3 2662 TIP3 H2   HT     0.417000        1.0080           0
   15893 TIP3 2663 TIP3 OH2  OT    -0.834000       15.9994           0
   15894 TIP3 2663 TIP3 H1   HT     0.417000        1.0080           0
   15895 TIP3 2663 TIP3 H2   HT     0.417000        1.0080           0
   15896 TIP3 2664 TIP3 OH2  OT    -0.834000       15.9994           0
   15897 TIP3 2664 TIP3 H1   HT     0.417000        1.0080           0
   15898 TIP3 2664 TIP3 H2   HT     0.417000        1.0080           0
   15899 TIP3 2665 TIP3 OH2  OT    -0.834000       15.9994           0
   15900 TIP3 2665 TIP3 H1   HT     0.417000        1.0080           0
   15901 TIP3 2665 TIP3 H2   HT     0.417000        1.0080           0
   15902 TIP3 2666 TIP3 OH2  OT    -0.834000       15.9994           0
   15903 TIP3 2666 TIP3 H1   HT     0.417000        1.0080           0
   15904 TIP3 2666 TIP3 H2   HT     0.417000        1.0080           0
   15905 TIP3 2667 TIP3 OH2  OT    -0.834000       15.9994           0
   15906 TIP3 2667 TIP3 H1   HT     0.417000        1.0080           0
   15907 TIP3 2667 TIP3 H2   HT     0.417000        1.0080           0
   15908 TIP3 2668 TIP3 OH2  OT    -0.834000       15.9994           0
   15909 TIP3 2668 TIP3 H1   HT     0.417000        1.0080           0
   15910 TIP3 2668 TIP3 H2   HT     0.417000        1.0080           0
   15911 TIP3 2669 TIP3 OH2  OT    -0.834000       15.9994           0
   15912 TIP3 2669 TIP3 H1   HT     0.417000        1.0080           0
   15913 TIP3 2669 TIP3 H2   HT     0.417000        1.0080           0
   15914 TIP3 2670 TIP3 OH2  OT    -0.834000       15.9994           0
   15915 TIP3 2670 TIP3 H1   HT     0.417000        1.0080           0
   15916 TIP3 2670 TIP3 H2   HT     0.417000        1.0080           0
   15917 TIP3 2671 TIP3 OH2  OT    -0.834000       15.9994           0
   15918 TIP3 2671 TIP3 H1   HT     0.417000        1.0080           0
   15919 TIP3 2671 TIP3 H2   HT     0.417000        1.0080           0
   15920 TIP3 2672 TIP3 OH2  OT    -0.834000       15.9994           0
   15921 TIP3 2672 TIP3 H1   HT     0.417000        1.0080           0
   15922 TIP3 2672 TIP3 H2   HT     0.417000        1.0080           0
   15923 TIP3 2673 TIP3 OH2  OT    -0.834000       15.9994           0
   15924 TIP3 2673 TIP3 H1   HT     0.417000        1.0080           0
   15925 TIP3 2673 TIP3 H2   HT     0.417000        1.0080           0
   15926 TIP3 2674 TIP3 OH2  OT    -0.834000       15.9994           0
   15927 TIP3 2674 TIP3 H1   HT     0.417000        1.0080           0
   15928 TIP3 2674 TIP3 H2   HT     0.417000        1.0080           0
   15929 TIP3 2675 TIP3 OH2  OT    -0.834000       15.9994           0
   15930 TIP3 2675 TIP3 H1   HT     0.417000        1.0080           0
   15931 TIP3 2675 TIP3 H2   HT     0.417000        1.0080           0
   15932 TIP3 2676 TIP3 OH2  OT    -0.834000       15.9994           0
   15933 TIP3 2676 TIP3 H1   HT     0.417000        1.0080           0
   15934 TIP3 2676 TIP3 H2   HT     0.417000        1.0080           0
   15935 TIP3 2677 TIP3 OH2  OT    -0.834000       15.9994           0
   15936 TIP3 2677 TIP3 H1   HT     0.417000        1.0080           0
   15937 TIP3 2677 TIP3 H2   HT     0.417000        1.0080           0
   15938 TIP3 2678 TIP3 OH2  OT    -0.834000       15.9994           0
   15939 TIP3 2678 TIP3 H1   HT     0.417000        1.0080           0
   15940 TIP3 2678 TIP3 H2   HT     0.417000        1.0080           0
   15941 TIP3 2679 TIP3 OH2  OT    -0.834000       15.9994           0
   15942 TIP3 2679 TIP3 H1   HT     0.417000        1.0080           0
   15943 TIP3 2679 TIP3 H2   HT     0.417000        1.0080           0
   15944 TIP3 2680 TIP3 OH2  OT    -0.834000       15.9994           0
   15945 TIP3 2680 TIP3 H1   HT     0.417000        1.0080           0
   15946 TIP3 2680 TIP3 H2   HT     0.417000        1.0080           0
   15947 TIP3 2681 TIP3 OH2  OT    -0.834000       15.9994           0
   15948 TIP3 2681 TIP3 H1   HT     0.417000        1.0080           0
   15949 TIP3 2681 TIP3 H2   HT     0.417000        1.0080           0
   15950 TIP3 2682 TIP3 OH2  OT    -0.834000       15.9994           0
   15951 TIP3 2682 TIP3 H1   HT     0.417000        1.0080           0
   15952 TIP3 2682 TIP3 H2   HT     0.417000        1.0080           0
   15953 TIP3 2683 TIP3 OH2  OT    -0.834000       15.9994           0
   15954 TIP3 2683 TIP3 H1   HT     0.417000        1.0080           0
   15955 TIP3 2683 TIP3 H2   HT     0.417000        1.0080           0
   15956 TIP3 2684 TIP3 OH2  OT    -0.834000       15.9994           0
   15957 TIP3 2684 TIP3 H1   HT     0.417000        1.0080           0
   15958 TIP3 2684 TIP3 H2   HT     0.417000        1.0080           0
   15959 TIP3 2685 TIP3 OH2  OT    -0.834000       15.9994           0
   15960 TIP3 2685 TIP3 H1   HT     0.417000        1.0080           0
   15961 TIP3 2685 TIP3 H2   HT     0.417000        1.0080           0
   15962 TIP3 2686 TIP3 OH2  OT    -0.834000       15.9994           0
   15963 TIP3 2686 TIP3 H1   HT     0.417000        1.0080           0
   15964 TIP3 2686 TIP3 H2   HT     0.417000        1.0080           0
   15965 TIP3 2687 TIP3 OH2  OT    -0.834000       15.9994           0
   15966 TIP3 2687 TIP3 H1   HT     0.417000        1.0080           0
   15967 TIP3 2687 TIP3 H2   HT     0.417000        1.0080           0
   15968 TIP3 2688 TIP3 OH2  OT    -0.834000       15.9994           0
   15969 TIP3 2688 TIP3 H1   HT     0.417000        1.0080           0
   15970 TIP3 2688 TIP3 H2   HT     0.417000        1.0080           0
   15971 TIP3 2689 TIP3 OH2  OT    -0.834000       15.9994           0
   15972 TIP3 2689 TIP3 H1   HT     0.417000        1.0080           0
   15973 TIP3 2689 TIP3 H2   HT     0.417000        1.0080           0
   15974 TIP3 2690 TIP3 OH2  OT    -0.834000       15.9994           0
   15975 TIP3 2690 TIP3 H1   HT     0.417000        1.0080           0
   15976 TIP3 2690 TIP3 H2   HT     0.417000        1.0080           0
   15977 TIP3 2691 TIP3 OH2  OT    -0.834000       15.9994           0
   15978 TIP3 2691 TIP3 H1   HT     0.417000        1.0080           0
   15979 TIP3 2691 TIP3 H2   HT     0.417000        1.0080           0
   15980 TIP3 2692 TIP3 OH2  OT    -0.834000       15.9994           0
   15981 TIP3 2692 TIP3 H1   HT     0.417000        1.0080           0
   15982 TIP3 2692 TIP3 H2   HT     0.417000        1.0080           0
   15983 TIP3 2693 TIP3 OH2  OT    -0.834000       15.9994           0
   15984 TIP3 2693 TIP3 H1   HT     0.417000        1.0080           0
   15985 TIP3 2693 TIP3 H2   HT     0.417000        1.0080           0
   15986 TIP3 2694 TIP3 OH2  OT    -0.834000       15.9994           0
   15987 TIP3 2694 TIP3 H1   HT     0.417000        1.0080           0
   15988 TIP3 2694 TIP3 H2   HT     0.417000        1.0080           0
   15989 TIP3 2695 TIP3 OH2  OT    -0.834000       15.9994           0
   15990 TIP3 2695 TIP3 H1   HT     0.417000        1.0080           0
   15991 TIP3 2695 TIP3 H2   HT     0.417000        1.0080           0
   15992 TIP3 2696 TIP3 OH2  OT    -0.834000       15.9994           0
   15993 TIP3 2696 TIP3 H1   HT     0.417000        1.0080           0
   15994 TIP3 2696 TIP3 H2   HT     0.417000        1.0080           0
   15995 TIP3 2697 TIP3 OH2  OT    -0.834000       15.9994           0
   15996 TIP3 2697 TIP3 H1   HT     0.417000        1.0080           0
   15997 TIP3 2697 TIP3 H2   HT     0.417000        1.0080           0
   15998 TIP3 2698 TIP3 OH2  OT    -0.834000       15.9994           0
   15999 TIP3 2698 TIP3 H1   HT     0.417000        1.0080           0
   16000 TIP3 2698 TIP3 H2   HT     0.417000        1.0080           0
   16001 TIP3 2699 TIP3 OH2  OT    -0.834000       15.9994           0
   16002 TIP3 2699 TIP3 H1   HT     0.417000        1.0080           0
   16003 TIP3 2699 TIP3 H2   HT     0.417000        1.0080           0
   16004 TIP3 2700 TIP3 OH2  OT    -0.834000       15.9994           0
   16005 TIP3 2700 TIP3 H1   HT     0.417000        1.0080           0
   16006 TIP3 2700 TIP3 H2   HT     0.417000        1.0080           0
   16007 TIP3 2701 TIP3 OH2  OT    -0.834000       15.9994           0
   16008 TIP3 2701 TIP3 H1   HT     0.417000        1.0080           0
   16009 TIP3 2701 TIP3 H2   HT     0.417000        1.0080           0
   16010 TIP3 2702 TIP3 OH2  OT    -0.834000       15.9994           0
   16011 TIP3 2702 TIP3 H1   HT     0.417000        1.0080           0
   16012 TIP3 2702 TIP3 H2   HT     0.417000        1.0080           0
   16013 TIP3 2703 TIP3 OH2  OT    -0.834000       15.9994           0
   16014 TIP3 2703 TIP3 H1   HT     0.417000        1.0080           0
   16015 TIP3 2703 TIP3 H2   HT     0.417000        1.0080           0
   16016 TIP3 2704 TIP3 OH2  OT    -0.834000       15.9994           0
   16017 TIP3 2704 TIP3 H1   HT     0.417000        1.0080           0
   16018 TIP3 2704 TIP3 H2   HT     0.417000        1.0080           0
   16019 TIP3 2705 TIP3 OH2  OT    -0.834000       15.9994           0
   16020 TIP3 2705 TIP3 H1   HT     0.417000        1.0080           0
   16021 TIP3 2705 TIP3 H2   HT     0.417000        1.0080           0
   16022 TIP3 2706 TIP3 OH2  OT    -0.834000       15.9994           0
   16023 TIP3 2706 TIP3 H1   HT     0.417000        1.0080           0
   16024 TIP3 2706 TIP3 H2   HT     0.417000        1.0080           0
   16025 TIP3 2707 TIP3 OH2  OT    -0.834000       15.9994           0
   16026 TIP3 2707 TIP3 H1   HT     0.417000        1.0080           0
   16027 TIP3 2707 TIP3 H2   HT     0.417000        1.0080           0
   16028 TIP3 2708 TIP3 OH2  OT    -0.834000       15.9994           0
   16029 TIP3 2708 TIP3 H1   HT     0.417000        1.0080           0
   16030 TIP3 2708 TIP3 H2   HT     0.417000        1.0080           0
   16031 TIP3 2709 TIP3 OH2  OT    -0.834000       15.9994           0
   16032 TIP3 2709 TIP3 H1   HT     0.417000        1.0080           0
   16033 TIP3 2709 TIP3 H2   HT     0.417000        1.0080           0
   16034 TIP3 2710 TIP3 OH2  OT    -0.834000       15.9994           0
   16035 TIP3 2710 TIP3 H1   HT     0.417000        1.0080           0
   16036 TIP3 2710 TIP3 H2   HT     0.417000        1.0080           0
   16037 TIP3 2711 TIP3 OH2  OT    -0.834000       15.9994           0
   16038 TIP3 2711 TIP3 H1   HT     0.417000        1.0080           0
   16039 TIP3 2711 TIP3 H2   HT     0.417000        1.0080           0
   16040 TIP3 2712 TIP3 OH2  OT    -0.834000       15.9994           0
   16041 TIP3 2712 TIP3 H1   HT     0.417000        1.0080           0
   16042 TIP3 2712 TIP3 H2   HT     0.417000        1.0080           0
   16043 TIP3 2713 TIP3 OH2  OT    -0.834000       15.9994           0
   16044 TIP3 2713 TIP3 H1   HT     0.417000        1.0080           0
   16045 TIP3 2713 TIP3 H2   HT     0.417000        1.0080           0
   16046 TIP3 2714 TIP3 OH2  OT    -0.834000       15.9994           0
   16047 TIP3 2714 TIP3 H1   HT     0.417000        1.0080           0
   16048 TIP3 2714 TIP3 H2   HT     0.417000        1.0080           0
   16049 TIP3 2715 TIP3 OH2  OT    -0.834000       15.9994           0
   16050 TIP3 2715 TIP3 H1   HT     0.417000        1.0080           0
   16051 TIP3 2715 TIP3 H2   HT     0.417000        1.0080           0
   16052 TIP3 2716 TIP3 OH2  OT    -0.834000       15.9994           0
   16053 TIP3 2716 TIP3 H1   HT     0.417000        1.0080           0
   16054 TIP3 2716 TIP3 H2   HT     0.417000        1.0080           0
   16055 TIP3 2717 TIP3 OH2  OT    -0.834000       15.9994           0
   16056 TIP3 2717 TIP3 H1   HT     0.417000        1.0080           0
   16057 TIP3 2717 TIP3 H2   HT     0.417000        1.0080           0
   16058 TIP3 2718 TIP3 OH2  OT    -0.834000       15.9994           0
   16059 TIP3 2718 TIP3 H1   HT     0.417000        1.0080           0
   16060 TIP3 2718 TIP3 H2   HT     0.417000        1.0080           0
   16061 TIP3 2719 TIP3 OH2  OT    -0.834000       15.9994           0
   16062 TIP3 2719 TIP3 H1   HT     0.417000        1.0080           0
   16063 TIP3 2719 TIP3 H2   HT     0.417000        1.0080           0
   16064 TIP3 2720 TIP3 OH2  OT    -0.834000       15.9994           0
   16065 TIP3 2720 TIP3 H1   HT     0.417000        1.0080           0
   16066 TIP3 2720 TIP3 H2   HT     0.417000        1.0080           0
   16067 TIP3 2721 TIP3 OH2  OT    -0.834000       15.9994           0
   16068 TIP3 2721 TIP3 H1   HT     0.417000        1.0080           0
   16069 TIP3 2721 TIP3 H2   HT     0.417000        1.0080           0
   16070 TIP3 2722 TIP3 OH2  OT    -0.834000       15.9994           0
   16071 TIP3 2722 TIP3 H1   HT     0.417000        1.0080           0
   16072 TIP3 2722 TIP3 H2   HT     0.417000        1.0080           0
   16073 TIP3 2723 TIP3 OH2  OT    -0.834000       15.9994           0
   16074 TIP3 2723 TIP3 H1   HT     0.417000        1.0080           0
   16075 TIP3 2723 TIP3 H2   HT     0.417000        1.0080           0
   16076 TIP3 2724 TIP3 OH2  OT    -0.834000       15.9994           0
   16077 TIP3 2724 TIP3 H1   HT     0.417000        1.0080           0
   16078 TIP3 2724 TIP3 H2   HT     0.417000        1.0080           0
   16079 TIP3 2725 TIP3 OH2  OT    -0.834000       15.9994           0
   16080 TIP3 2725 TIP3 H1   HT     0.417000        1.0080           0
   16081 TIP3 2725 TIP3 H2   HT     0.417000        1.0080           0
   16082 TIP3 2726 TIP3 OH2  OT    -0.834000       15.9994           0
   16083 TIP3 2726 TIP3 H1   HT     0.417000        1.0080           0
   16084 TIP3 2726 TIP3 H2   HT     0.417000        1.0080           0
   16085 TIP3 2727 TIP3 OH2  OT    -0.834000       15.9994           0
   16086 TIP3 2727 TIP3 H1   HT     0.417000        1.0080           0
   16087 TIP3 2727 TIP3 H2   HT     0.417000        1.0080           0
   16088 TIP3 2728 TIP3 OH2  OT    -0.834000       15.9994           0
   16089 TIP3 2728 TIP3 H1   HT     0.417000        1.0080           0
   16090 TIP3 2728 TIP3 H2   HT     0.417000        1.0080           0
   16091 TIP3 2729 TIP3 OH2  OT    -0.834000       15.9994           0
   16092 TIP3 2729 TIP3 H1   HT     0.417000        1.0080           0
   16093 TIP3 2729 TIP3 H2   HT     0.417000        1.0080           0
   16094 TIP3 2730 TIP3 OH2  OT    -0.834000       15.9994           0
   16095 TIP3 2730 TIP3 H1   HT     0.417000        1.0080           0
   16096 TIP3 2730 TIP3 H2   HT     0.417000        1.0080           0
   16097 TIP3 2731 TIP3 OH2  OT    -0.834000       15.9994           0
   16098 TIP3 2731 TIP3 H1   HT     0.417000        1.0080           0
   16099 TIP3 2731 TIP3 H2   HT     0.417000        1.0080           0
   16100 TIP3 2732 TIP3 OH2  OT    -0.834000       15.9994           0
   16101 TIP3 2732 TIP3 H1   HT     0.417000        1.0080           0
   16102 TIP3 2732 TIP3 H2   HT     0.417000        1.0080           0
   16103 TIP3 2733 TIP3 OH2  OT    -0.834000       15.9994           0
   16104 TIP3 2733 TIP3 H1   HT     0.417000        1.0080           0
   16105 TIP3 2733 TIP3 H2   HT     0.417000        1.0080           0
   16106 TIP3 2734 TIP3 OH2  OT    -0.834000       15.9994           0
   16107 TIP3 2734 TIP3 H1   HT     0.417000        1.0080           0
   16108 TIP3 2734 TIP3 H2   HT     0.417000        1.0080           0
   16109 TIP3 2735 TIP3 OH2  OT    -0.834000       15.9994           0
   16110 TIP3 2735 TIP3 H1   HT     0.417000        1.0080           0
   16111 TIP3 2735 TIP3 H2   HT     0.417000        1.0080           0
   16112 TIP3 2736 TIP3 OH2  OT    -0.834000       15.9994           0
   16113 TIP3 2736 TIP3 H1   HT     0.417000        1.0080           0
   16114 TIP3 2736 TIP3 H2   HT     0.417000        1.0080           0
   16115 TIP3 2737 TIP3 OH2  OT    -0.834000       15.9994           0
   16116 TIP3 2737 TIP3 H1   HT     0.417000        1.0080           0
   16117 TIP3 2737 TIP3 H2   HT     0.417000        1.0080           0
   16118 TIP3 2738 TIP3 OH2  OT    -0.834000       15.9994           0
   16119 TIP3 2738 TIP3 H1   HT     0.417000        1.0080           0
   16120 TIP3 2738 TIP3 H2   HT     0.417000        1.0080           0
   16121 TIP3 2739 TIP3 OH2  OT    -0.834000       15.9994           0
   16122 TIP3 2739 TIP3 H1   HT     0.417000        1.0080           0
   16123 TIP3 2739 TIP3 H2   HT     0.417000        1.0080           0
   16124 TIP3 2740 TIP3 OH2  OT    -0.834000       15.9994           0
   16125 TIP3 2740 TIP3 H1   HT     0.417000        1.0080           0
   16126 TIP3 2740 TIP3 H2   HT     0.417000        1.0080           0
   16127 TIP3 2741 TIP3 OH2  OT    -0.834000       15.9994           0
   16128 TIP3 2741 TIP3 H1   HT     0.417000        1.0080           0
   16129 TIP3 2741 TIP3 H2   HT     0.417000        1.0080           0
   16130 TIP3 2742 TIP3 OH2  OT    -0.834000       15.9994           0
   16131 TIP3 2742 TIP3 H1   HT     0.417000        1.0080           0
   16132 TIP3 2742 TIP3 H2   HT     0.417000        1.0080           0
   16133 TIP3 2743 TIP3 OH2  OT    -0.834000       15.9994           0
   16134 TIP3 2743 TIP3 H1   HT     0.417000        1.0080           0
   16135 TIP3 2743 TIP3 H2   HT     0.417000        1.0080           0
   16136 TIP3 2744 TIP3 OH2  OT    -0.834000       15.9994           0
   16137 TIP3 2744 TIP3 H1   HT     0.417000        1.0080           0
   16138 TIP3 2744 TIP3 H2   HT     0.417000        1.0080           0
   16139 TIP3 2745 TIP3 OH2  OT    -0.834000       15.9994           0
   16140 TIP3 2745 TIP3 H1   HT     0.417000        1.0080           0
   16141 TIP3 2745 TIP3 H2   HT     0.417000        1.0080           0
   16142 TIP3 2746 TIP3 OH2  OT    -0.834000       15.9994           0
   16143 TIP3 2746 TIP3 H1   HT     0.417000        1.0080           0
   16144 TIP3 2746 TIP3 H2   HT     0.417000        1.0080           0
   16145 TIP3 2747 TIP3 OH2  OT    -0.834000       15.9994           0
   16146 TIP3 2747 TIP3 H1   HT     0.417000        1.0080           0
   16147 TIP3 2747 TIP3 H2   HT     0.417000        1.0080           0
   16148 TIP3 2748 TIP3 OH2  OT    -0.834000       15.9994           0
   16149 TIP3 2748 TIP3 H1   HT     0.417000        1.0080           0
   16150 TIP3 2748 TIP3 H2   HT     0.417000        1.0080           0
   16151 TIP3 2749 TIP3 OH2  OT    -0.834000       15.9994           0
   16152 TIP3 2749 TIP3 H1   HT     0.417000        1.0080           0
   16153 TIP3 2749 TIP3 H2   HT     0.417000        1.0080           0
   16154 TIP3 2750 TIP3 OH2  OT    -0.834000       15.9994           0
   16155 TIP3 2750 TIP3 H1   HT     0.417000        1.0080           0
   16156 TIP3 2750 TIP3 H2   HT     0.417000        1.0080           0
   16157 TIP3 2751 TIP3 OH2  OT    -0.834000       15.9994           0
   16158 TIP3 2751 TIP3 H1   HT     0.417000        1.0080           0
   16159 TIP3 2751 TIP3 H2   HT     0.417000        1.0080           0
   16160 TIP3 2752 TIP3 OH2  OT    -0.834000       15.9994           0
   16161 TIP3 2752 TIP3 H1   HT     0.417000        1.0080           0
   16162 TIP3 2752 TIP3 H2   HT     0.417000        1.0080           0
   16163 TIP3 2753 TIP3 OH2  OT    -0.834000       15.9994           0
   16164 TIP3 2753 TIP3 H1   HT     0.417000        1.0080           0
   16165 TIP3 2753 TIP3 H2   HT     0.417000        1.0080           0
   16166 TIP3 2754 TIP3 OH2  OT    -0.834000       15.9994           0
   16167 TIP3 2754 TIP3 H1   HT     0.417000        1.0080           0
   16168 TIP3 2754 TIP3 H2   HT     0.417000        1.0080           0
   16169 TIP3 2755 TIP3 OH2  OT    -0.834000       15.9994           0
   16170 TIP3 2755 TIP3 H1   HT     0.417000        1.0080           0
   16171 TIP3 2755 TIP3 H2   HT     0.417000        1.0080           0
   16172 TIP3 2756 TIP3 OH2  OT    -0.834000       15.9994           0
   16173 TIP3 2756 TIP3 H1   HT     0.417000        1.0080           0
   16174 TIP3 2756 TIP3 H2   HT     0.417000        1.0080           0
   16175 TIP3 2757 TIP3 OH2  OT    -0.834000       15.9994           0
   16176 TIP3 2757 TIP3 H1   HT     0.417000        1.0080           0
   16177 TIP3 2757 TIP3 H2   HT     0.417000        1.0080           0
   16178 TIP3 2758 TIP3 OH2  OT    -0.834000       15.9994           0
   16179 TIP3 2758 TIP3 H1   HT     0.417000        1.0080           0
   16180 TIP3 2758 TIP3 H2   HT     0.417000        1.0080           0
   16181 TIP3 2759 TIP3 OH2  OT    -0.834000       15.9994           0
   16182 TIP3 2759 TIP3 H1   HT     0.417000        1.0080           0
   16183 TIP3 2759 TIP3 H2   HT     0.417000        1.0080           0
   16184 TIP3 2760 TIP3 OH2  OT    -0.834000       15.9994           0
   16185 TIP3 2760 TIP3 H1   HT     0.417000        1.0080           0
   16186 TIP3 2760 TIP3 H2   HT     0.417000        1.0080           0
   16187 TIP3 2761 TIP3 OH2  OT    -0.834000       15.9994           0
   16188 TIP3 2761 TIP3 H1   HT     0.417000        1.0080           0
   16189 TIP3 2761 TIP3 H2   HT     0.417000        1.0080           0
   16190 TIP3 2762 TIP3 OH2  OT    -0.834000       15.9994           0
   16191 TIP3 2762 TIP3 H1   HT     0.417000        1.0080           0
   16192 TIP3 2762 TIP3 H2   HT     0.417000        1.0080           0
   16193 TIP3 2763 TIP3 OH2  OT    -0.834000       15.9994           0
   16194 TIP3 2763 TIP3 H1   HT     0.417000        1.0080           0
   16195 TIP3 2763 TIP3 H2   HT     0.417000        1.0080           0
   16196 TIP3 2764 TIP3 OH2  OT    -0.834000       15.9994           0
   16197 TIP3 2764 TIP3 H1   HT     0.417000        1.0080           0
   16198 TIP3 2764 TIP3 H2   HT     0.417000        1.0080           0
   16199 TIP3 2765 TIP3 OH2  OT    -0.834000       15.9994           0
   16200 TIP3 2765 TIP3 H1   HT     0.417000        1.0080           0
   16201 TIP3 2765 TIP3 H2   HT     0.417000        1.0080           0
   16202 TIP3 2766 TIP3 OH2  OT    -0.834000       15.9994           0
   16203 TIP3 2766 TIP3 H1   HT     0.417000        1.0080           0
   16204 TIP3 2766 TIP3 H2   HT     0.417000        1.0080           0
   16205 TIP3 2767 TIP3 OH2  OT    -0.834000       15.9994           0
   16206 TIP3 2767 TIP3 H1   HT     0.417000        1.0080           0
   16207 TIP3 2767 TIP3 H2   HT     0.417000        1.0080           0
   16208 TIP3 2768 TIP3 OH2  OT    -0.834000       15.9994           0
   16209 TIP3 2768 TIP3 H1   HT     0.417000        1.0080           0
   16210 TIP3 2768 TIP3 H2   HT     0.417000        1.0080           0
   16211 TIP3 2769 TIP3 OH2  OT    -0.834000       15.9994           0
   16212 TIP3 2769 TIP3 H1   HT     0.417000        1.0080           0
   16213 TIP3 2769 TIP3 H2   HT     0.417000        1.0080           0
   16214 TIP3 2770 TIP3 OH2  OT    -0.834000       15.9994           0
   16215 TIP3 2770 TIP3 H1   HT     0.417000        1.0080           0
   16216 TIP3 2770 TIP3 H2   HT     0.417000        1.0080           0
   16217 TIP3 2771 TIP3 OH2  OT    -0.834000       15.9994           0
   16218 TIP3 2771 TIP3 H1   HT     0.417000        1.0080           0
   16219 TIP3 2771 TIP3 H2   HT     0.417000        1.0080           0
   16220 TIP3 2772 TIP3 OH2  OT    -0.834000       15.9994           0
   16221 TIP3 2772 TIP3 H1   HT     0.417000        1.0080           0
   16222 TIP3 2772 TIP3 H2   HT     0.417000        1.0080           0
   16223 TIP3 2773 TIP3 OH2  OT    -0.834000       15.9994           0
   16224 TIP3 2773 TIP3 H1   HT     0.417000        1.0080           0
   16225 TIP3 2773 TIP3 H2   HT     0.417000        1.0080           0
   16226 TIP3 2774 TIP3 OH2  OT    -0.834000       15.9994           0
   16227 TIP3 2774 TIP3 H1   HT     0.417000        1.0080           0
   16228 TIP3 2774 TIP3 H2   HT     0.417000        1.0080           0
   16229 TIP3 2775 TIP3 OH2  OT    -0.834000       15.9994           0
   16230 TIP3 2775 TIP3 H1   HT     0.417000        1.0080           0
   16231 TIP3 2775 TIP3 H2   HT     0.417000        1.0080           0
   16232 TIP3 2776 TIP3 OH2  OT    -0.834000       15.9994           0
   16233 TIP3 2776 TIP3 H1   HT     0.417000        1.0080           0
   16234 TIP3 2776 TIP3 H2   HT     0.417000        1.0080           0
   16235 TIP3 2777 TIP3 OH2  OT    -0.834000       15.9994           0
   16236 TIP3 2777 TIP3 H1   HT     0.417000        1.0080           0
   16237 TIP3 2777 TIP3 H2   HT     0.417000        1.0080           0
   16238 TIP3 2778 TIP3 OH2  OT    -0.834000       15.9994           0
   16239 TIP3 2778 TIP3 H1   HT     0.417000        1.0080           0
   16240 TIP3 2778 TIP3 H2   HT     0.417000        1.0080           0
   16241 TIP3 2779 TIP3 OH2  OT    -0.834000       15.9994           0
   16242 TIP3 2779 TIP3 H1   HT     0.417000        1.0080           0
   16243 TIP3 2779 TIP3 H2   HT     0.417000        1.0080           0
   16244 TIP3 2780 TIP3 OH2  OT    -0.834000       15.9994           0
   16245 TIP3 2780 TIP3 H1   HT     0.417000        1.0080           0
   16246 TIP3 2780 TIP3 H2   HT     0.417000        1.0080           0
   16247 TIP3 2781 TIP3 OH2  OT    -0.834000       15.9994           0
   16248 TIP3 2781 TIP3 H1   HT     0.417000        1.0080           0
   16249 TIP3 2781 TIP3 H2   HT     0.417000        1.0080           0
   16250 TIP3 2782 TIP3 OH2  OT    -0.834000       15.9994           0
   16251 TIP3 2782 TIP3 H1   HT     0.417000        1.0080           0
   16252 TIP3 2782 TIP3 H2   HT     0.417000        1.0080           0
   16253 TIP3 2783 TIP3 OH2  OT    -0.834000       15.9994           0
   16254 TIP3 2783 TIP3 H1   HT     0.417000        1.0080           0
   16255 TIP3 2783 TIP3 H2   HT     0.417000        1.0080           0
   16256 TIP3 2784 TIP3 OH2  OT    -0.834000       15.9994           0
   16257 TIP3 2784 TIP3 H1   HT     0.417000        1.0080           0
   16258 TIP3 2784 TIP3 H2   HT     0.417000        1.0080           0
   16259 TIP3 2785 TIP3 OH2  OT    -0.834000       15.9994           0
   16260 TIP3 2785 TIP3 H1   HT     0.417000        1.0080           0
   16261 TIP3 2785 TIP3 H2   HT     0.417000        1.0080           0
   16262 TIP3 2786 TIP3 OH2  OT    -0.834000       15.9994           0
   16263 TIP3 2786 TIP3 H1   HT     0.417000        1.0080           0
   16264 TIP3 2786 TIP3 H2   HT     0.417000        1.0080           0
   16265 TIP3 2787 TIP3 OH2  OT    -0.834000       15.9994           0
   16266 TIP3 2787 TIP3 H1   HT     0.417000        1.0080           0
   16267 TIP3 2787 TIP3 H2   HT     0.417000        1.0080           0
   16268 TIP3 2788 TIP3 OH2  OT    -0.834000       15.9994           0
   16269 TIP3 2788 TIP3 H1   HT     0.417000        1.0080           0
   16270 TIP3 2788 TIP3 H2   HT     0.417000        1.0080           0
   16271 TIP3 2789 TIP3 OH2  OT    -0.834000       15.9994           0
   16272 TIP3 2789 TIP3 H1   HT     0.417000        1.0080           0
   16273 TIP3 2789 TIP3 H2   HT     0.417000        1.0080           0
   16274 TIP3 2790 TIP3 OH2  OT    -0.834000       15.9994           0
   16275 TIP3 2790 TIP3 H1   HT     0.417000        1.0080           0
   16276 TIP3 2790 TIP3 H2   HT     0.417000        1.0080           0
   16277 TIP3 2791 TIP3 OH2  OT    -0.834000       15.9994           0
   16278 TIP3 2791 TIP3 H1   HT     0.417000        1.0080           0
   16279 TIP3 2791 TIP3 H2   HT     0.417000        1.0080           0
   16280 TIP3 2792 TIP3 OH2  OT    -0.834000       15.9994           0
   16281 TIP3 2792 TIP3 H1   HT     0.417000        1.0080           0
   16282 TIP3 2792 TIP3 H2   HT     0.417000        1.0080           0
   16283 TIP3 2793 TIP3 OH2  OT    -0.834000       15.9994           0
   16284 TIP3 2793 TIP3 H1   HT     0.417000        1.0080           0
   16285 TIP3 2793 TIP3 H2   HT     0.417000        1.0080           0
   16286 TIP3 2794 TIP3 OH2  OT    -0.834000       15.9994           0
   16287 TIP3 2794 TIP3 H1   HT     0.417000        1.0080           0
   16288 TIP3 2794 TIP3 H2   HT     0.417000        1.0080           0
   16289 TIP3 2795 TIP3 OH2  OT    -0.834000       15.9994           0
   16290 TIP3 2795 TIP3 H1   HT     0.417000        1.0080           0
   16291 TIP3 2795 TIP3 H2   HT     0.417000        1.0080           0
   16292 TIP3 2796 TIP3 OH2  OT    -0.834000       15.9994           0
   16293 TIP3 2796 TIP3 H1   HT     0.417000        1.0080           0
   16294 TIP3 2796 TIP3 H2   HT     0.417000        1.0080           0
   16295 TIP3 2797 TIP3 OH2  OT    -0.834000       15.9994           0
   16296 TIP3 2797 TIP3 H1   HT     0.417000        1.0080           0
   16297 TIP3 2797 TIP3 H2   HT     0.417000        1.0080           0
   16298 TIP3 2798 TIP3 OH2  OT    -0.834000       15.9994           0
   16299 TIP3 2798 TIP3 H1   HT     0.417000        1.0080           0
   16300 TIP3 2798 TIP3 H2   HT     0.417000        1.0080           0
   16301 TIP3 2799 TIP3 OH2  OT    -0.834000       15.9994           0
   16302 TIP3 2799 TIP3 H1   HT     0.417000        1.0080           0
   16303 TIP3 2799 TIP3 H2   HT     0.417000        1.0080           0
   16304 TIP3 2800 TIP3 OH2  OT    -0.834000       15.9994           0
   16305 TIP3 2800 TIP3 H1   HT     0.417000        1.0080           0
   16306 TIP3 2800 TIP3 H2   HT     0.417000        1.0080           0
   16307 TIP3 2801 TIP3 OH2  OT    -0.834000       15.9994           0
   16308 TIP3 2801 TIP3 H1   HT     0.417000        1.0080           0
   16309 TIP3 2801 TIP3 H2   HT     0.417000        1.0080           0
   16310 TIP3 2802 TIP3 OH2  OT    -0.834000       15.9994           0
   16311 TIP3 2802 TIP3 H1   HT     0.417000        1.0080           0
   16312 TIP3 2802 TIP3 H2   HT     0.417000        1.0080           0
   16313 TIP3 2803 TIP3 OH2  OT    -0.834000       15.9994           0
   16314 TIP3 2803 TIP3 H1   HT     0.417000        1.0080           0
   16315 TIP3 2803 TIP3 H2   HT     0.417000        1.0080           0
   16316 TIP3 2804 TIP3 OH2  OT    -0.834000       15.9994           0
   16317 TIP3 2804 TIP3 H1   HT     0.417000        1.0080           0
   16318 TIP3 2804 TIP3 H2   HT     0.417000        1.0080           0
   16319 TIP3 2805 TIP3 OH2  OT    -0.834000       15.9994           0
   16320 TIP3 2805 TIP3 H1   HT     0.417000        1.0080           0
   16321 TIP3 2805 TIP3 H2   HT     0.417000        1.0080           0
   16322 TIP3 2806 TIP3 OH2  OT    -0.834000       15.9994           0
   16323 TIP3 2806 TIP3 H1   HT     0.417000        1.0080           0
   16324 TIP3 2806 TIP3 H2   HT     0.417000        1.0080           0
   16325 TIP3 2807 TIP3 OH2  OT    -0.834000       15.9994           0
   16326 TIP3 2807 TIP3 H1   HT     0.417000        1.0080           0
   16327 TIP3 2807 TIP3 H2   HT     0.417000        1.0080           0
   16328 TIP3 2808 TIP3 OH2  OT    -0.834000       15.9994           0
   16329 TIP3 2808 TIP3 H1   HT     0.417000        1.0080           0
   16330 TIP3 2808 TIP3 H2   HT     0.417000        1.0080           0
   16331 TIP3 2809 TIP3 OH2  OT    -0.834000       15.9994           0
   16332 TIP3 2809 TIP3 H1   HT     0.417000        1.0080           0
   16333 TIP3 2809 TIP3 H2   HT     0.417000        1.0080           0
   16334 TIP3 2810 TIP3 OH2  OT    -0.834000       15.9994           0
   16335 TIP3 2810 TIP3 H1   HT     0.417000        1.0080           0
   16336 TIP3 2810 TIP3 H2   HT     0.417000        1.0080           0
   16337 TIP3 2811 TIP3 OH2  OT    -0.834000       15.9994           0
   16338 TIP3 2811 TIP3 H1   HT     0.417000        1.0080           0
   16339 TIP3 2811 TIP3 H2   HT     0.417000        1.0080           0
   16340 TIP3 2812 TIP3 OH2  OT    -0.834000       15.9994           0
   16341 TIP3 2812 TIP3 H1   HT     0.417000        1.0080           0
   16342 TIP3 2812 TIP3 H2   HT     0.417000        1.0080           0
   16343 TIP3 2813 TIP3 OH2  OT    -0.834000       15.9994           0
   16344 TIP3 2813 TIP3 H1   HT     0.417000        1.0080           0
   16345 TIP3 2813 TIP3 H2   HT     0.417000        1.0080           0
   16346 TIP3 2814 TIP3 OH2  OT    -0.834000       15.9994           0
   16347 TIP3 2814 TIP3 H1   HT     0.417000        1.0080           0
   16348 TIP3 2814 TIP3 H2   HT     0.417000        1.0080           0
   16349 TIP3 2815 TIP3 OH2  OT    -0.834000       15.9994           0
   16350 TIP3 2815 TIP3 H1   HT     0.417000        1.0080           0
   16351 TIP3 2815 TIP3 H2   HT     0.417000        1.0080           0
   16352 TIP3 2816 TIP3 OH2  OT    -0.834000       15.9994           0
   16353 TIP3 2816 TIP3 H1   HT     0.417000        1.0080           0
   16354 TIP3 2816 TIP3 H2   HT     0.417000        1.0080           0
   16355 TIP3 2817 TIP3 OH2  OT    -0.834000       15.9994           0
   16356 TIP3 2817 TIP3 H1   HT     0.417000        1.0080           0
   16357 TIP3 2817 TIP3 H2   HT     0.417000        1.0080           0
   16358 TIP3 2818 TIP3 OH2  OT    -0.834000       15.9994           0
   16359 TIP3 2818 TIP3 H1   HT     0.417000        1.0080           0
   16360 TIP3 2818 TIP3 H2   HT     0.417000        1.0080           0
   16361 TIP3 2819 TIP3 OH2  OT    -0.834000       15.9994           0
   16362 TIP3 2819 TIP3 H1   HT     0.417000        1.0080           0
   16363 TIP3 2819 TIP3 H2   HT     0.417000        1.0080           0
   16364 TIP3 2820 TIP3 OH2  OT    -0.834000       15.9994           0
   16365 TIP3 2820 TIP3 H1   HT     0.417000        1.0080           0
   16366 TIP3 2820 TIP3 H2   HT     0.417000        1.0080           0
   16367 TIP3 2821 TIP3 OH2  OT    -0.834000       15.9994           0
   16368 TIP3 2821 TIP3 H1   HT     0.417000        1.0080           0
   16369 TIP3 2821 TIP3 H2   HT     0.417000        1.0080           0
   16370 TIP3 2822 TIP3 OH2  OT    -0.834000       15.9994           0
   16371 TIP3 2822 TIP3 H1   HT     0.417000        1.0080           0
   16372 TIP3 2822 TIP3 H2   HT     0.417000        1.0080           0
   16373 TIP3 2823 TIP3 OH2  OT    -0.834000       15.9994           0
   16374 TIP3 2823 TIP3 H1   HT     0.417000        1.0080           0
   16375 TIP3 2823 TIP3 H2   HT     0.417000        1.0080           0
   16376 TIP3 2824 TIP3 OH2  OT    -0.834000       15.9994           0
   16377 TIP3 2824 TIP3 H1   HT     0.417000        1.0080           0
   16378 TIP3 2824 TIP3 H2   HT     0.417000        1.0080           0
   16379 TIP3 2825 TIP3 OH2  OT    -0.834000       15.9994           0
   16380 TIP3 2825 TIP3 H1   HT     0.417000        1.0080           0
   16381 TIP3 2825 TIP3 H2   HT     0.417000        1.0080           0
   16382 TIP3 2826 TIP3 OH2  OT    -0.834000       15.9994           0
   16383 TIP3 2826 TIP3 H1   HT     0.417000        1.0080           0
   16384 TIP3 2826 TIP3 H2   HT     0.417000        1.0080           0
   16385 TIP3 2827 TIP3 OH2  OT    -0.834000       15.9994           0
   16386 TIP3 2827 TIP3 H1   HT     0.417000        1.0080           0
   16387 TIP3 2827 TIP3 H2   HT     0.417000        1.0080           0
   16388 TIP3 2828 TIP3 OH2  OT    -0.834000       15.9994           0
   16389 TIP3 2828 TIP3 H1   HT     0.417000        1.0080           0
   16390 TIP3 2828 TIP3 H2   HT     0.417000        1.0080           0
   16391 TIP3 2829 TIP3 OH2  OT    -0.834000       15.9994           0
   16392 TIP3 2829 TIP3 H1   HT     0.417000        1.0080           0
   16393 TIP3 2829 TIP3 H2   HT     0.417000        1.0080           0
   16394 TIP3 2830 TIP3 OH2  OT    -0.834000       15.9994           0
   16395 TIP3 2830 TIP3 H1   HT     0.417000        1.0080           0
   16396 TIP3 2830 TIP3 H2   HT     0.417000        1.0080           0
   16397 TIP3 2831 TIP3 OH2  OT    -0.834000       15.9994           0
   16398 TIP3 2831 TIP3 H1   HT     0.417000        1.0080           0
   16399 TIP3 2831 TIP3 H2   HT     0.417000        1.0080           0
   16400 TIP3 2832 TIP3 OH2  OT    -0.834000       15.9994           0
   16401 TIP3 2832 TIP3 H1   HT     0.417000        1.0080           0
   16402 TIP3 2832 TIP3 H2   HT     0.417000        1.0080           0
   16403 TIP3 2833 TIP3 OH2  OT    -0.834000       15.9994           0
   16404 TIP3 2833 TIP3 H1   HT     0.417000        1.0080           0
   16405 TIP3 2833 TIP3 H2   HT     0.417000        1.0080           0
   16406 TIP3 2834 TIP3 OH2  OT    -0.834000       15.9994           0
   16407 TIP3 2834 TIP3 H1   HT     0.417000        1.0080           0
   16408 TIP3 2834 TIP3 H2   HT     0.417000        1.0080           0
   16409 TIP3 2835 TIP3 OH2  OT    -0.834000       15.9994           0
   16410 TIP3 2835 TIP3 H1   HT     0.417000        1.0080           0
   16411 TIP3 2835 TIP3 H2   HT     0.417000        1.0080           0
   16412 TIP3 2836 TIP3 OH2  OT    -0.834000       15.9994           0
   16413 TIP3 2836 TIP3 H1   HT     0.417000        1.0080           0
   16414 TIP3 2836 TIP3 H2   HT     0.417000        1.0080           0
   16415 TIP3 2837 TIP3 OH2  OT    -0.834000       15.9994           0
   16416 TIP3 2837 TIP3 H1   HT     0.417000        1.0080           0
   16417 TIP3 2837 TIP3 H2   HT     0.417000        1.0080           0
   16418 TIP3 2838 TIP3 OH2  OT    -0.834000       15.9994           0
   16419 TIP3 2838 TIP3 H1   HT     0.417000        1.0080           0
   16420 TIP3 2838 TIP3 H2   HT     0.417000        1.0080           0
   16421 TIP3 2839 TIP3 OH2  OT    -0.834000       15.9994           0
   16422 TIP3 2839 TIP3 H1   HT     0.417000        1.0080           0
   16423 TIP3 2839 TIP3 H2   HT     0.417000        1.0080           0
   16424 TIP3 2840 TIP3 OH2  OT    -0.834000       15.9994           0
   16425 TIP3 2840 TIP3 H1   HT     0.417000        1.0080           0
   16426 TIP3 2840 TIP3 H2   HT     0.417000        1.0080           0
   16427 TIP3 2841 TIP3 OH2  OT    -0.834000       15.9994           0
   16428 TIP3 2841 TIP3 H1   HT     0.417000        1.0080           0
   16429 TIP3 2841 TIP3 H2   HT     0.417000        1.0080           0
   16430 TIP3 2842 TIP3 OH2  OT    -0.834000       15.9994           0
   16431 TIP3 2842 TIP3 H1   HT     0.417000        1.0080           0
   16432 TIP3 2842 TIP3 H2   HT     0.417000        1.0080           0
   16433 TIP3 2843 TIP3 OH2  OT    -0.834000       15.9994           0
   16434 TIP3 2843 TIP3 H1   HT     0.417000        1.0080           0
   16435 TIP3 2843 TIP3 H2   HT     0.417000        1.0080           0
   16436 TIP3 2844 TIP3 OH2  OT    -0.834000       15.9994           0
   16437 TIP3 2844 TIP3 H1   HT     0.417000        1.0080           0
   16438 TIP3 2844 TIP3 H2   HT     0.417000        1.0080           0
   16439 TIP3 2845 TIP3 OH2  OT    -0.834000       15.9994           0
   16440 TIP3 2845 TIP3 H1   HT     0.417000        1.0080           0
   16441 TIP3 2845 TIP3 H2   HT     0.417000        1.0080           0
   16442 TIP3 2846 TIP3 OH2  OT    -0.834000       15.9994           0
   16443 TIP3 2846 TIP3 H1   HT     0.417000        1.0080           0
   16444 TIP3 2846 TIP3 H2   HT     0.417000        1.0080           0
   16445 TIP3 2847 TIP3 OH2  OT    -0.834000       15.9994           0
   16446 TIP3 2847 TIP3 H1   HT     0.417000        1.0080           0
   16447 TIP3 2847 TIP3 H2   HT     0.417000        1.0080           0
   16448 TIP3 2848 TIP3 OH2  OT    -0.834000       15.9994           0
   16449 TIP3 2848 TIP3 H1   HT     0.417000        1.0080           0
   16450 TIP3 2848 TIP3 H2   HT     0.417000        1.0080           0
   16451 TIP3 2849 TIP3 OH2  OT    -0.834000       15.9994           0
   16452 TIP3 2849 TIP3 H1   HT     0.417000        1.0080           0
   16453 TIP3 2849 TIP3 H2   HT     0.417000        1.0080           0
   16454 TIP3 2850 TIP3 OH2  OT    -0.834000       15.9994           0
   16455 TIP3 2850 TIP3 H1   HT     0.417000        1.0080           0
   16456 TIP3 2850 TIP3 H2   HT     0.417000        1.0080           0
   16457 TIP3 2851 TIP3 OH2  OT    -0.834000       15.9994           0
   16458 TIP3 2851 TIP3 H1   HT     0.417000        1.0080           0
   16459 TIP3 2851 TIP3 H2   HT     0.417000        1.0080           0
   16460 TIP3 2852 TIP3 OH2  OT    -0.834000       15.9994           0
   16461 TIP3 2852 TIP3 H1   HT     0.417000        1.0080           0
   16462 TIP3 2852 TIP3 H2   HT     0.417000        1.0080           0
   16463 TIP3 2853 TIP3 OH2  OT    -0.834000       15.9994           0
   16464 TIP3 2853 TIP3 H1   HT     0.417000        1.0080           0
   16465 TIP3 2853 TIP3 H2   HT     0.417000        1.0080           0
   16466 TIP3 2854 TIP3 OH2  OT    -0.834000       15.9994           0
   16467 TIP3 2854 TIP3 H1   HT     0.417000        1.0080           0
   16468 TIP3 2854 TIP3 H2   HT     0.417000        1.0080           0
   16469 TIP3 2855 TIP3 OH2  OT    -0.834000       15.9994           0
   16470 TIP3 2855 TIP3 H1   HT     0.417000        1.0080           0
   16471 TIP3 2855 TIP3 H2   HT     0.417000        1.0080           0
   16472 TIP3 2856 TIP3 OH2  OT    -0.834000       15.9994           0
   16473 TIP3 2856 TIP3 H1   HT     0.417000        1.0080           0
   16474 TIP3 2856 TIP3 H2   HT     0.417000        1.0080           0
   16475 TIP3 2857 TIP3 OH2  OT    -0.834000       15.9994           0
   16476 TIP3 2857 TIP3 H1   HT     0.417000        1.0080           0
   16477 TIP3 2857 TIP3 H2   HT     0.417000        1.0080           0
   16478 TIP3 2858 TIP3 OH2  OT    -0.834000       15.9994           0
   16479 TIP3 2858 TIP3 H1   HT     0.417000        1.0080           0
   16480 TIP3 2858 TIP3 H2   HT     0.417000        1.0080           0
   16481 TIP3 2859 TIP3 OH2  OT    -0.834000       15.9994           0
   16482 TIP3 2859 TIP3 H1   HT     0.417000        1.0080           0
   16483 TIP3 2859 TIP3 H2   HT     0.417000        1.0080           0
   16484 TIP3 2860 TIP3 OH2  OT    -0.834000       15.9994           0
   16485 TIP3 2860 TIP3 H1   HT     0.417000        1.0080           0
   16486 TIP3 2860 TIP3 H2   HT     0.417000        1.0080           0
   16487 TIP3 2861 TIP3 OH2  OT    -0.834000       15.9994           0
   16488 TIP3 2861 TIP3 H1   HT     0.417000        1.0080           0
   16489 TIP3 2861 TIP3 H2   HT     0.417000        1.0080           0
   16490 TIP3 2862 TIP3 OH2  OT    -0.834000       15.9994           0
   16491 TIP3 2862 TIP3 H1   HT     0.417000        1.0080           0
   16492 TIP3 2862 TIP3 H2   HT     0.417000        1.0080           0
   16493 TIP3 2863 TIP3 OH2  OT    -0.834000       15.9994           0
   16494 TIP3 2863 TIP3 H1   HT     0.417000        1.0080           0
   16495 TIP3 2863 TIP3 H2   HT     0.417000        1.0080           0
   16496 TIP3 2864 TIP3 OH2  OT    -0.834000       15.9994           0
   16497 TIP3 2864 TIP3 H1   HT     0.417000        1.0080           0
   16498 TIP3 2864 TIP3 H2   HT     0.417000        1.0080           0
   16499 TIP3 2865 TIP3 OH2  OT    -0.834000       15.9994           0
   16500 TIP3 2865 TIP3 H1   HT     0.417000        1.0080           0
   16501 TIP3 2865 TIP3 H2   HT     0.417000        1.0080           0
   16502 TIP3 2866 TIP3 OH2  OT    -0.834000       15.9994           0
   16503 TIP3 2866 TIP3 H1   HT     0.417000        1.0080           0
   16504 TIP3 2866 TIP3 H2   HT     0.417000        1.0080           0
   16505 TIP3 2867 TIP3 OH2  OT    -0.834000       15.9994           0
   16506 TIP3 2867 TIP3 H1   HT     0.417000        1.0080           0
   16507 TIP3 2867 TIP3 H2   HT     0.417000        1.0080           0
   16508 TIP3 2868 TIP3 OH2  OT    -0.834000       15.9994           0
   16509 TIP3 2868 TIP3 H1   HT     0.417000        1.0080           0
   16510 TIP3 2868 TIP3 H2   HT     0.417000        1.0080           0
   16511 TIP3 2869 TIP3 OH2  OT    -0.834000       15.9994           0
   16512 TIP3 2869 TIP3 H1   HT     0.417000        1.0080           0
   16513 TIP3 2869 TIP3 H2   HT     0.417000        1.0080           0
   16514 TIP3 2870 TIP3 OH2  OT    -0.834000       15.9994           0
   16515 TIP3 2870 TIP3 H1   HT     0.417000        1.0080           0
   16516 TIP3 2870 TIP3 H2   HT     0.417000        1.0080           0
   16517 TIP3 2871 TIP3 OH2  OT    -0.834000       15.9994           0
   16518 TIP3 2871 TIP3 H1   HT     0.417000        1.0080           0
   16519 TIP3 2871 TIP3 H2   HT     0.417000        1.0080           0
   16520 TIP3 2872 TIP3 OH2  OT    -0.834000       15.9994           0
   16521 TIP3 2872 TIP3 H1   HT     0.417000        1.0080           0
   16522 TIP3 2872 TIP3 H2   HT     0.417000        1.0080           0
   16523 TIP3 2873 TIP3 OH2  OT    -0.834000       15.9994           0
   16524 TIP3 2873 TIP3 H1   HT     0.417000        1.0080           0
   16525 TIP3 2873 TIP3 H2   HT     0.417000        1.0080           0
   16526 TIP3 2874 TIP3 OH2  OT    -0.834000       15.9994           0
   16527 TIP3 2874 TIP3 H1   HT     0.417000        1.0080           0
   16528 TIP3 2874 TIP3 H2   HT     0.417000        1.0080           0
   16529 TIP3 2875 TIP3 OH2  OT    -0.834000       15.9994           0
   16530 TIP3 2875 TIP3 H1   HT     0.417000        1.0080           0
   16531 TIP3 2875 TIP3 H2   HT     0.417000        1.0080           0
   16532 TIP3 2876 TIP3 OH2  OT    -0.834000       15.9994           0
   16533 TIP3 2876 TIP3 H1   HT     0.417000        1.0080           0
   16534 TIP3 2876 TIP3 H2   HT     0.417000        1.0080           0
   16535 TIP3 2877 TIP3 OH2  OT    -0.834000       15.9994           0
   16536 TIP3 2877 TIP3 H1   HT     0.417000        1.0080           0
   16537 TIP3 2877 TIP3 H2   HT     0.417000        1.0080           0
   16538 TIP3 2878 TIP3 OH2  OT    -0.834000       15.9994           0
   16539 TIP3 2878 TIP3 H1   HT     0.417000        1.0080           0
   16540 TIP3 2878 TIP3 H2   HT     0.417000        1.0080           0
   16541 TIP3 2879 TIP3 OH2  OT    -0.834000       15.9994           0
   16542 TIP3 2879 TIP3 H1   HT     0.417000        1.0080           0
   16543 TIP3 2879 TIP3 H2   HT     0.417000        1.0080           0
   16544 TIP3 2880 TIP3 OH2  OT    -0.834000       15.9994           0
   16545 TIP3 2880 TIP3 H1   HT     0.417000        1.0080           0
   16546 TIP3 2880 TIP3 H2   HT     0.417000        1.0080           0
   16547 TIP3 2881 TIP3 OH2  OT    -0.834000       15.9994           0
   16548 TIP3 2881 TIP3 H1   HT     0.417000        1.0080           0
   16549 TIP3 2881 TIP3 H2   HT     0.417000        1.0080           0
   16550 TIP3 2882 TIP3 OH2  OT    -0.834000       15.9994           0
   16551 TIP3 2882 TIP3 H1   HT     0.417000        1.0080           0
   16552 TIP3 2882 TIP3 H2   HT     0.417000        1.0080           0
   16553 TIP3 2883 TIP3 OH2  OT    -0.834000       15.9994           0
   16554 TIP3 2883 TIP3 H1   HT     0.417000        1.0080           0
   16555 TIP3 2883 TIP3 H2   HT     0.417000        1.0080           0
   16556 TIP3 2884 TIP3 OH2  OT    -0.834000       15.9994           0
   16557 TIP3 2884 TIP3 H1   HT     0.417000        1.0080           0
   16558 TIP3 2884 TIP3 H2   HT     0.417000        1.0080           0
   16559 TIP3 2885 TIP3 OH2  OT    -0.834000       15.9994           0
   16560 TIP3 2885 TIP3 H1   HT     0.417000        1.0080           0
   16561 TIP3 2885 TIP3 H2   HT     0.417000        1.0080           0
   16562 TIP3 2886 TIP3 OH2  OT    -0.834000       15.9994           0
   16563 TIP3 2886 TIP3 H1   HT     0.417000        1.0080           0
   16564 TIP3 2886 TIP3 H2   HT     0.417000        1.0080           0
   16565 TIP3 2887 TIP3 OH2  OT    -0.834000       15.9994           0
   16566 TIP3 2887 TIP3 H1   HT     0.417000        1.0080           0
   16567 TIP3 2887 TIP3 H2   HT     0.417000        1.0080           0
   16568 TIP3 2888 TIP3 OH2  OT    -0.834000       15.9994           0
   16569 TIP3 2888 TIP3 H1   HT     0.417000        1.0080           0
   16570 TIP3 2888 TIP3 H2   HT     0.417000        1.0080           0
   16571 TIP3 2889 TIP3 OH2  OT    -0.834000       15.9994           0
   16572 TIP3 2889 TIP3 H1   HT     0.417000        1.0080           0
   16573 TIP3 2889 TIP3 H2   HT     0.417000        1.0080           0
   16574 TIP3 2890 TIP3 OH2  OT    -0.834000       15.9994           0
   16575 TIP3 2890 TIP3 H1   HT     0.417000        1.0080           0
   16576 TIP3 2890 TIP3 H2   HT     0.417000        1.0080           0
   16577 TIP3 2891 TIP3 OH2  OT    -0.834000       15.9994           0
   16578 TIP3 2891 TIP3 H1   HT     0.417000        1.0080           0
   16579 TIP3 2891 TIP3 H2   HT     0.417000        1.0080           0
   16580 TIP3 2892 TIP3 OH2  OT    -0.834000       15.9994           0
   16581 TIP3 2892 TIP3 H1   HT     0.417000        1.0080           0
   16582 TIP3 2892 TIP3 H2   HT     0.417000        1.0080           0
   16583 TIP3 2893 TIP3 OH2  OT    -0.834000       15.9994           0
   16584 TIP3 2893 TIP3 H1   HT     0.417000        1.0080           0
   16585 TIP3 2893 TIP3 H2   HT     0.417000        1.0080           0
   16586 TIP3 2894 TIP3 OH2  OT    -0.834000       15.9994           0
   16587 TIP3 2894 TIP3 H1   HT     0.417000        1.0080           0
   16588 TIP3 2894 TIP3 H2   HT     0.417000        1.0080           0
   16589 TIP3 2895 TIP3 OH2  OT    -0.834000       15.9994           0
   16590 TIP3 2895 TIP3 H1   HT     0.417000        1.0080           0
   16591 TIP3 2895 TIP3 H2   HT     0.417000        1.0080           0
   16592 TIP3 2896 TIP3 OH2  OT    -0.834000       15.9994           0
   16593 TIP3 2896 TIP3 H1   HT     0.417000        1.0080           0
   16594 TIP3 2896 TIP3 H2   HT     0.417000        1.0080           0
   16595 TIP3 2897 TIP3 OH2  OT    -0.834000       15.9994           0
   16596 TIP3 2897 TIP3 H1   HT     0.417000        1.0080           0
   16597 TIP3 2897 TIP3 H2   HT     0.417000        1.0080           0
   16598 TIP3 2898 TIP3 OH2  OT    -0.834000       15.9994           0
   16599 TIP3 2898 TIP3 H1   HT     0.417000        1.0080           0
   16600 TIP3 2898 TIP3 H2   HT     0.417000        1.0080           0
   16601 TIP3 2899 TIP3 OH2  OT    -0.834000       15.9994           0
   16602 TIP3 2899 TIP3 H1   HT     0.417000        1.0080           0
   16603 TIP3 2899 TIP3 H2   HT     0.417000        1.0080           0
   16604 TIP3 2900 TIP3 OH2  OT    -0.834000       15.9994           0
   16605 TIP3 2900 TIP3 H1   HT     0.417000        1.0080           0
   16606 TIP3 2900 TIP3 H2   HT     0.417000        1.0080           0
   16607 TIP3 2901 TIP3 OH2  OT    -0.834000       15.9994           0
   16608 TIP3 2901 TIP3 H1   HT     0.417000        1.0080           0
   16609 TIP3 2901 TIP3 H2   HT     0.417000        1.0080           0
   16610 TIP3 2902 TIP3 OH2  OT    -0.834000       15.9994           0
   16611 TIP3 2902 TIP3 H1   HT     0.417000        1.0080           0
   16612 TIP3 2902 TIP3 H2   HT     0.417000        1.0080           0
   16613 TIP3 2903 TIP3 OH2  OT    -0.834000       15.9994           0
   16614 TIP3 2903 TIP3 H1   HT     0.417000        1.0080           0
   16615 TIP3 2903 TIP3 H2   HT     0.417000        1.0080           0
   16616 TIP3 2904 TIP3 OH2  OT    -0.834000       15.9994           0
   16617 TIP3 2904 TIP3 H1   HT     0.417000        1.0080           0
   16618 TIP3 2904 TIP3 H2   HT     0.417000        1.0080           0
   16619 TIP3 2905 TIP3 OH2  OT    -0.834000       15.9994           0
   16620 TIP3 2905 TIP3 H1   HT     0.417000        1.0080           0
   16621 TIP3 2905 TIP3 H2   HT     0.417000        1.0080           0
   16622 TIP3 2906 TIP3 OH2  OT    -0.834000       15.9994           0
   16623 TIP3 2906 TIP3 H1   HT     0.417000        1.0080           0
   16624 TIP3 2906 TIP3 H2   HT     0.417000        1.0080           0
   16625 TIP3 2907 TIP3 OH2  OT    -0.834000       15.9994           0
   16626 TIP3 2907 TIP3 H1   HT     0.417000        1.0080           0
   16627 TIP3 2907 TIP3 H2   HT     0.417000        1.0080           0
   16628 TIP3 2908 TIP3 OH2  OT    -0.834000       15.9994           0
   16629 TIP3 2908 TIP3 H1   HT     0.417000        1.0080           0
   16630 TIP3 2908 TIP3 H2   HT     0.417000        1.0080           0
   16631 TIP3 2909 TIP3 OH2  OT    -0.834000       15.9994           0
   16632 TIP3 2909 TIP3 H1   HT     0.417000        1.0080           0
   16633 TIP3 2909 TIP3 H2   HT     0.417000        1.0080           0
   16634 TIP3 2910 TIP3 OH2  OT    -0.834000       15.9994           0
   16635 TIP3 2910 TIP3 H1   HT     0.417000        1.0080           0
   16636 TIP3 2910 TIP3 H2   HT     0.417000        1.0080           0
   16637 TIP3 2911 TIP3 OH2  OT    -0.834000       15.9994           0
   16638 TIP3 2911 TIP3 H1   HT     0.417000        1.0080           0
   16639 TIP3 2911 TIP3 H2   HT     0.417000        1.0080           0
   16640 TIP3 2912 TIP3 OH2  OT    -0.834000       15.9994           0
   16641 TIP3 2912 TIP3 H1   HT     0.417000        1.0080           0
   16642 TIP3 2912 TIP3 H2   HT     0.417000        1.0080           0
   16643 TIP3 2913 TIP3 OH2  OT    -0.834000       15.9994           0
   16644 TIP3 2913 TIP3 H1   HT     0.417000        1.0080           0
   16645 TIP3 2913 TIP3 H2   HT     0.417000        1.0080           0
   16646 TIP3 2914 TIP3 OH2  OT    -0.834000       15.9994           0
   16647 TIP3 2914 TIP3 H1   HT     0.417000        1.0080           0
   16648 TIP3 2914 TIP3 H2   HT     0.417000        1.0080           0
   16649 TIP3 2915 TIP3 OH2  OT    -0.834000       15.9994           0
   16650 TIP3 2915 TIP3 H1   HT     0.417000        1.0080           0
   16651 TIP3 2915 TIP3 H2   HT     0.417000        1.0080           0
   16652 TIP3 2916 TIP3 OH2  OT    -0.834000       15.9994           0
   16653 TIP3 2916 TIP3 H1   HT     0.417000        1.0080           0
   16654 TIP3 2916 TIP3 H2   HT     0.417000        1.0080           0
   16655 TIP3 2917 TIP3 OH2  OT    -0.834000       15.9994           0
   16656 TIP3 2917 TIP3 H1   HT     0.417000        1.0080           0
   16657 TIP3 2917 TIP3 H2   HT     0.417000        1.0080           0
   16658 TIP3 2918 TIP3 OH2  OT    -0.834000       15.9994           0
   16659 TIP3 2918 TIP3 H1   HT     0.417000        1.0080           0
   16660 TIP3 2918 TIP3 H2   HT     0.417000        1.0080           0
   16661 TIP3 2919 TIP3 OH2  OT    -0.834000       15.9994           0
   16662 TIP3 2919 TIP3 H1   HT     0.417000        1.0080           0
   16663 TIP3 2919 TIP3 H2   HT     0.417000        1.0080           0
   16664 TIP3 2920 TIP3 OH2  OT    -0.834000       15.9994           0
   16665 TIP3 2920 TIP3 H1   HT     0.417000        1.0080           0
   16666 TIP3 2920 TIP3 H2   HT     0.417000        1.0080           0
   16667 TIP3 2921 TIP3 OH2  OT    -0.834000       15.9994           0
   16668 TIP3 2921 TIP3 H1   HT     0.417000        1.0080           0
   16669 TIP3 2921 TIP3 H2   HT     0.417000        1.0080           0
   16670 TIP3 2922 TIP3 OH2  OT    -0.834000       15.9994           0
   16671 TIP3 2922 TIP3 H1   HT     0.417000        1.0080           0
   16672 TIP3 2922 TIP3 H2   HT     0.417000        1.0080           0
   16673 TIP3 2923 TIP3 OH2  OT    -0.834000       15.9994           0
   16674 TIP3 2923 TIP3 H1   HT     0.417000        1.0080           0
   16675 TIP3 2923 TIP3 H2   HT     0.417000        1.0080           0
   16676 TIP3 2924 TIP3 OH2  OT    -0.834000       15.9994           0
   16677 TIP3 2924 TIP3 H1   HT     0.417000        1.0080           0
   16678 TIP3 2924 TIP3 H2   HT     0.417000        1.0080           0
   16679 TIP3 2925 TIP3 OH2  OT    -0.834000       15.9994           0
   16680 TIP3 2925 TIP3 H1   HT     0.417000        1.0080           0
   16681 TIP3 2925 TIP3 H2   HT     0.417000        1.0080           0
   16682 TIP3 2926 TIP3 OH2  OT    -0.834000       15.9994           0
   16683 TIP3 2926 TIP3 H1   HT     0.417000        1.0080           0
   16684 TIP3 2926 TIP3 H2   HT     0.417000        1.0080           0
   16685 TIP3 2927 TIP3 OH2  OT    -0.834000       15.9994           0
   16686 TIP3 2927 TIP3 H1   HT     0.417000        1.0080           0
   16687 TIP3 2927 TIP3 H2   HT     0.417000        1.0080           0
   16688 TIP3 2928 TIP3 OH2  OT    -0.834000       15.9994           0
   16689 TIP3 2928 TIP3 H1   HT     0.417000        1.0080           0
   16690 TIP3 2928 TIP3 H2   HT     0.417000        1.0080           0
   16691 TIP3 2929 TIP3 OH2  OT    -0.834000       15.9994           0
   16692 TIP3 2929 TIP3 H1   HT     0.417000        1.0080           0
   16693 TIP3 2929 TIP3 H2   HT     0.417000        1.0080           0
   16694 TIP3 2930 TIP3 OH2  OT    -0.834000       15.9994           0
   16695 TIP3 2930 TIP3 H1   HT     0.417000        1.0080           0
   16696 TIP3 2930 TIP3 H2   HT     0.417000        1.0080           0
   16697 TIP3 2931 TIP3 OH2  OT    -0.834000       15.9994           0
   16698 TIP3 2931 TIP3 H1   HT     0.417000        1.0080           0
   16699 TIP3 2931 TIP3 H2   HT     0.417000        1.0080           0
   16700 TIP3 2932 TIP3 OH2  OT    -0.834000       15.9994           0
   16701 TIP3 2932 TIP3 H1   HT     0.417000        1.0080           0
   16702 TIP3 2932 TIP3 H2   HT     0.417000        1.0080           0
   16703 TIP3 2933 TIP3 OH2  OT    -0.834000       15.9994           0
   16704 TIP3 2933 TIP3 H1   HT     0.417000        1.0080           0
   16705 TIP3 2933 TIP3 H2   HT     0.417000        1.0080           0
   16706 TIP3 2934 TIP3 OH2  OT    -0.834000       15.9994           0
   16707 TIP3 2934 TIP3 H1   HT     0.417000        1.0080           0
   16708 TIP3 2934 TIP3 H2   HT     0.417000        1.0080           0
   16709 TIP3 2935 TIP3 OH2  OT    -0.834000       15.9994           0
   16710 TIP3 2935 TIP3 H1   HT     0.417000        1.0080           0
   16711 TIP3 2935 TIP3 H2   HT     0.417000        1.0080           0
   16712 TIP3 2936 TIP3 OH2  OT    -0.834000       15.9994           0
   16713 TIP3 2936 TIP3 H1   HT     0.417000        1.0080           0
   16714 TIP3 2936 TIP3 H2   HT     0.417000        1.0080           0
   16715 TIP3 2937 TIP3 OH2  OT    -0.834000       15.9994           0
   16716 TIP3 2937 TIP3 H1   HT     0.417000        1.0080           0
   16717 TIP3 2937 TIP3 H2   HT     0.417000        1.0080           0
   16718 TIP3 2938 TIP3 OH2  OT    -0.834000       15.9994           0
   16719 TIP3 2938 TIP3 H1   HT     0.417000        1.0080           0
   16720 TIP3 2938 TIP3 H2   HT     0.417000        1.0080           0
   16721 TIP3 2939 TIP3 OH2  OT    -0.834000       15.9994           0
   16722 TIP3 2939 TIP3 H1   HT     0.417000        1.0080           0
   16723 TIP3 2939 TIP3 H2   HT     0.417000        1.0080           0
   16724 TIP3 2940 TIP3 OH2  OT    -0.834000       15.9994           0
   16725 TIP3 2940 TIP3 H1   HT     0.417000        1.0080           0
   16726 TIP3 2940 TIP3 H2   HT     0.417000        1.0080           0
   16727 TIP3 2941 TIP3 OH2  OT    -0.834000       15.9994           0
   16728 TIP3 2941 TIP3 H1   HT     0.417000        1.0080           0
   16729 TIP3 2941 TIP3 H2   HT     0.417000        1.0080           0
   16730 TIP3 2942 TIP3 OH2  OT    -0.834000       15.9994           0
   16731 TIP3 2942 TIP3 H1   HT     0.417000        1.0080           0
   16732 TIP3 2942 TIP3 H2   HT     0.417000        1.0080           0
   16733 TIP3 2943 TIP3 OH2  OT    -0.834000       15.9994           0
   16734 TIP3 2943 TIP3 H1   HT     0.417000        1.0080           0
   16735 TIP3 2943 TIP3 H2   HT     0.417000        1.0080           0
   16736 TIP3 2944 TIP3 OH2  OT    -0.834000       15.9994           0
   16737 TIP3 2944 TIP3 H1   HT     0.417000        1.0080           0
   16738 TIP3 2944 TIP3 H2   HT     0.417000        1.0080           0
   16739 TIP3 2945 TIP3 OH2  OT    -0.834000       15.9994           0
   16740 TIP3 2945 TIP3 H1   HT     0.417000        1.0080           0
   16741 TIP3 2945 TIP3 H2   HT     0.417000        1.0080           0
   16742 TIP3 2946 TIP3 OH2  OT    -0.834000       15.9994           0
   16743 TIP3 2946 TIP3 H1   HT     0.417000        1.0080           0
   16744 TIP3 2946 TIP3 H2   HT     0.417000        1.0080           0
   16745 TIP3 2947 TIP3 OH2  OT    -0.834000       15.9994           0
   16746 TIP3 2947 TIP3 H1   HT     0.417000        1.0080           0
   16747 TIP3 2947 TIP3 H2   HT     0.417000        1.0080           0
   16748 TIP3 2948 TIP3 OH2  OT    -0.834000       15.9994           0
   16749 TIP3 2948 TIP3 H1   HT     0.417000        1.0080           0
   16750 TIP3 2948 TIP3 H2   HT     0.417000        1.0080           0
   16751 TIP3 2949 TIP3 OH2  OT    -0.834000       15.9994           0
   16752 TIP3 2949 TIP3 H1   HT     0.417000        1.0080           0
   16753 TIP3 2949 TIP3 H2   HT     0.417000        1.0080           0
   16754 TIP3 2950 TIP3 OH2  OT    -0.834000       15.9994           0
   16755 TIP3 2950 TIP3 H1   HT     0.417000        1.0080           0
   16756 TIP3 2950 TIP3 H2   HT     0.417000        1.0080           0
   16757 TIP3 2951 TIP3 OH2  OT    -0.834000       15.9994           0
   16758 TIP3 2951 TIP3 H1   HT     0.417000        1.0080           0
   16759 TIP3 2951 TIP3 H2   HT     0.417000        1.0080           0
   16760 TIP3 2952 TIP3 OH2  OT    -0.834000       15.9994           0
   16761 TIP3 2952 TIP3 H1   HT     0.417000        1.0080           0
   16762 TIP3 2952 TIP3 H2   HT     0.417000        1.0080           0
   16763 TIP3 2953 TIP3 OH2  OT    -0.834000       15.9994           0
   16764 TIP3 2953 TIP3 H1   HT     0.417000        1.0080           0
   16765 TIP3 2953 TIP3 H2   HT     0.417000        1.0080           0
   16766 TIP3 2954 TIP3 OH2  OT    -0.834000       15.9994           0
   16767 TIP3 2954 TIP3 H1   HT     0.417000        1.0080           0
   16768 TIP3 2954 TIP3 H2   HT     0.417000        1.0080           0
   16769 TIP3 2955 TIP3 OH2  OT    -0.834000       15.9994           0
   16770 TIP3 2955 TIP3 H1   HT     0.417000        1.0080           0
   16771 TIP3 2955 TIP3 H2   HT     0.417000        1.0080           0
   16772 TIP3 2956 TIP3 OH2  OT    -0.834000       15.9994           0
   16773 TIP3 2956 TIP3 H1   HT     0.417000        1.0080           0
   16774 TIP3 2956 TIP3 H2   HT     0.417000        1.0080           0
   16775 TIP3 2957 TIP3 OH2  OT    -0.834000       15.9994           0
   16776 TIP3 2957 TIP3 H1   HT     0.417000        1.0080           0
   16777 TIP3 2957 TIP3 H2   HT     0.417000        1.0080           0
   16778 TIP3 2958 TIP3 OH2  OT    -0.834000       15.9994           0
   16779 TIP3 2958 TIP3 H1   HT     0.417000        1.0080           0
   16780 TIP3 2958 TIP3 H2   HT     0.417000        1.0080           0
   16781 TIP3 2959 TIP3 OH2  OT    -0.834000       15.9994           0
   16782 TIP3 2959 TIP3 H1   HT     0.417000        1.0080           0
   16783 TIP3 2959 TIP3 H2   HT     0.417000        1.0080           0
   16784 TIP3 2960 TIP3 OH2  OT    -0.834000       15.9994           0
   16785 TIP3 2960 TIP3 H1   HT     0.417000        1.0080           0
   16786 TIP3 2960 TIP3 H2   HT     0.417000        1.0080           0
   16787 TIP3 2961 TIP3 OH2  OT    -0.834000       15.9994           0
   16788 TIP3 2961 TIP3 H1   HT     0.417000        1.0080           0
   16789 TIP3 2961 TIP3 H2   HT     0.417000        1.0080           0
   16790 TIP3 2962 TIP3 OH2  OT    -0.834000       15.9994           0
   16791 TIP3 2962 TIP3 H1   HT     0.417000        1.0080           0
   16792 TIP3 2962 TIP3 H2   HT     0.417000        1.0080           0
   16793 TIP3 2963 TIP3 OH2  OT    -0.834000       15.9994           0
   16794 TIP3 2963 TIP3 H1   HT     0.417000        1.0080           0
   16795 TIP3 2963 TIP3 H2   HT     0.417000        1.0080           0
   16796 TIP3 2964 TIP3 OH2  OT    -0.834000       15.9994           0
   16797 TIP3 2964 TIP3 H1   HT     0.417000        1.0080           0
   16798 TIP3 2964 TIP3 H2   HT     0.417000        1.0080           0
   16799 TIP3 2965 TIP3 OH2  OT    -0.834000       15.9994           0
   16800 TIP3 2965 TIP3 H1   HT     0.417000        1.0080           0
   16801 TIP3 2965 TIP3 H2   HT     0.417000        1.0080           0
   16802 TIP3 2966 TIP3 OH2  OT    -0.834000       15.9994           0
   16803 TIP3 2966 TIP3 H1   HT     0.417000        1.0080           0
   16804 TIP3 2966 TIP3 H2   HT     0.417000        1.0080           0
   16805 TIP3 2967 TIP3 OH2  OT    -0.834000       15.9994           0
   16806 TIP3 2967 TIP3 H1   HT     0.417000        1.0080           0
   16807 TIP3 2967 TIP3 H2   HT     0.417000        1.0080           0
   16808 TIP3 2968 TIP3 OH2  OT    -0.834000       15.9994           0
   16809 TIP3 2968 TIP3 H1   HT     0.417000        1.0080           0
   16810 TIP3 2968 TIP3 H2   HT     0.417000        1.0080           0
   16811 TIP3 2969 TIP3 OH2  OT    -0.834000       15.9994           0
   16812 TIP3 2969 TIP3 H1   HT     0.417000        1.0080           0
   16813 TIP3 2969 TIP3 H2   HT     0.417000        1.0080           0
   16814 TIP3 2970 TIP3 OH2  OT    -0.834000       15.9994           0
   16815 TIP3 2970 TIP3 H1   HT     0.417000        1.0080           0
   16816 TIP3 2970 TIP3 H2   HT     0.417000        1.0080           0
   16817 TIP3 2971 TIP3 OH2  OT    -0.834000       15.9994           0
   16818 TIP3 2971 TIP3 H1   HT     0.417000        1.0080           0
   16819 TIP3 2971 TIP3 H2   HT     0.417000        1.0080           0
   16820 TIP3 2972 TIP3 OH2  OT    -0.834000       15.9994           0
   16821 TIP3 2972 TIP3 H1   HT     0.417000        1.0080           0
   16822 TIP3 2972 TIP3 H2   HT     0.417000        1.0080           0
   16823 TIP3 2973 TIP3 OH2  OT    -0.834000       15.9994           0
   16824 TIP3 2973 TIP3 H1   HT     0.417000        1.0080           0
   16825 TIP3 2973 TIP3 H2   HT     0.417000        1.0080           0
   16826 TIP3 2974 TIP3 OH2  OT    -0.834000       15.9994           0
   16827 TIP3 2974 TIP3 H1   HT     0.417000        1.0080           0
   16828 TIP3 2974 TIP3 H2   HT     0.417000        1.0080           0
   16829 TIP3 2975 TIP3 OH2  OT    -0.834000       15.9994           0
   16830 TIP3 2975 TIP3 H1   HT     0.417000        1.0080           0
   16831 TIP3 2975 TIP3 H2   HT     0.417000        1.0080           0
   16832 TIP3 2976 TIP3 OH2  OT    -0.834000       15.9994           0
   16833 TIP3 2976 TIP3 H1   HT     0.417000        1.0080           0
   16834 TIP3 2976 TIP3 H2   HT     0.417000        1.0080           0
   16835 TIP3 2977 TIP3 OH2  OT    -0.834000       15.9994           0
   16836 TIP3 2977 TIP3 H1   HT     0.417000        1.0080           0
   16837 TIP3 2977 TIP3 H2   HT     0.417000        1.0080           0
   16838 TIP3 2978 TIP3 OH2  OT    -0.834000       15.9994           0
   16839 TIP3 2978 TIP3 H1   HT     0.417000        1.0080           0
   16840 TIP3 2978 TIP3 H2   HT     0.417000        1.0080           0
   16841 TIP3 2979 TIP3 OH2  OT    -0.834000       15.9994           0
   16842 TIP3 2979 TIP3 H1   HT     0.417000        1.0080           0
   16843 TIP3 2979 TIP3 H2   HT     0.417000        1.0080           0
   16844 TIP3 2980 TIP3 OH2  OT    -0.834000       15.9994           0
   16845 TIP3 2980 TIP3 H1   HT     0.417000        1.0080           0
   16846 TIP3 2980 TIP3 H2   HT     0.417000        1.0080           0
   16847 TIP3 2981 TIP3 OH2  OT    -0.834000       15.9994           0
   16848 TIP3 2981 TIP3 H1   HT     0.417000        1.0080           0
   16849 TIP3 2981 TIP3 H2   HT     0.417000        1.0080           0
   16850 TIP3 2982 TIP3 OH2  OT    -0.834000       15.9994           0
   16851 TIP3 2982 TIP3 H1   HT     0.417000        1.0080           0
   16852 TIP3 2982 TIP3 H2   HT     0.417000        1.0080           0
   16853 TIP3 2983 TIP3 OH2  OT    -0.834000       15.9994           0
   16854 TIP3 2983 TIP3 H1   HT     0.417000        1.0080           0
   16855 TIP3 2983 TIP3 H2   HT     0.417000        1.0080           0
   16856 TIP3 2984 TIP3 OH2  OT    -0.834000       15.9994           0
   16857 TIP3 2984 TIP3 H1   HT     0.417000        1.0080           0
   16858 TIP3 2984 TIP3 H2   HT     0.417000        1.0080           0
   16859 TIP3 2985 TIP3 OH2  OT    -0.834000       15.9994           0
   16860 TIP3 2985 TIP3 H1   HT     0.417000        1.0080           0
   16861 TIP3 2985 TIP3 H2   HT     0.417000        1.0080           0
   16862 TIP3 2986 TIP3 OH2  OT    -0.834000       15.9994           0
   16863 TIP3 2986 TIP3 H1   HT     0.417000        1.0080           0
   16864 TIP3 2986 TIP3 H2   HT     0.417000        1.0080           0
   16865 TIP3 2987 TIP3 OH2  OT    -0.834000       15.9994           0
   16866 TIP3 2987 TIP3 H1   HT     0.417000        1.0080           0
   16867 TIP3 2987 TIP3 H2   HT     0.417000        1.0080           0
   16868 TIP3 2988 TIP3 OH2  OT    -0.834000       15.9994           0
   16869 TIP3 2988 TIP3 H1   HT     0.417000        1.0080           0
   16870 TIP3 2988 TIP3 H2   HT     0.417000        1.0080           0
   16871 TIP3 2989 TIP3 OH2  OT    -0.834000       15.9994           0
   16872 TIP3 2989 TIP3 H1   HT     0.417000        1.0080           0
   16873 TIP3 2989 TIP3 H2   HT     0.417000        1.0080           0
   16874 TIP3 2990 TIP3 OH2  OT    -0.834000       15.9994           0
   16875 TIP3 2990 TIP3 H1   HT     0.417000        1.0080           0
   16876 TIP3 2990 TIP3 H2   HT     0.417000        1.0080           0
   16877 TIP3 2991 TIP3 OH2  OT    -0.834000       15.9994           0
   16878 TIP3 2991 TIP3 H1   HT     0.417000        1.0080           0
   16879 TIP3 2991 TIP3 H2   HT     0.417000        1.0080           0
   16880 TIP3 2992 TIP3 OH2  OT    -0.834000       15.9994           0
   16881 TIP3 2992 TIP3 H1   HT     0.417000        1.0080           0
   16882 TIP3 2992 TIP3 H2   HT     0.417000        1.0080           0
   16883 TIP3 2993 TIP3 OH2  OT    -0.834000       15.9994           0
   16884 TIP3 2993 TIP3 H1   HT     0.417000        1.0080           0
   16885 TIP3 2993 TIP3 H2   HT     0.417000        1.0080           0
   16886 TIP3 2994 TIP3 OH2  OT    -0.834000       15.9994           0
   16887 TIP3 2994 TIP3 H1   HT     0.417000        1.0080           0
   16888 TIP3 2994 TIP3 H2   HT     0.417000        1.0080           0
   16889 TIP3 2995 TIP3 OH2  OT    -0.834000       15.9994           0
   16890 TIP3 2995 TIP3 H1   HT     0.417000        1.0080           0
   16891 TIP3 2995 TIP3 H2   HT     0.417000        1.0080           0
   16892 TIP3 2996 TIP3 OH2  OT    -0.834000       15.9994           0
   16893 TIP3 2996 TIP3 H1   HT     0.417000        1.0080           0
   16894 TIP3 2996 TIP3 H2   HT     0.417000        1.0080           0
   16895 TIP3 2997 TIP3 OH2  OT    -0.834000       15.9994           0
   16896 TIP3 2997 TIP3 H1   HT     0.417000        1.0080           0
   16897 TIP3 2997 TIP3 H2   HT     0.417000        1.0080           0
   16898 TIP3 2998 TIP3 OH2  OT    -0.834000       15.9994           0
   16899 TIP3 2998 TIP3 H1   HT     0.417000        1.0080           0
   16900 TIP3 2998 TIP3 H2   HT     0.417000        1.0080           0
   16901 TIP3 2999 TIP3 OH2  OT    -0.834000       15.9994           0
   16902 TIP3 2999 TIP3 H1   HT     0.417000        1.0080           0
   16903 TIP3 2999 TIP3 H2   HT     0.417000        1.0080           0
   16904 TIP3 3000 TIP3 OH2  OT    -0.834000       15.9994           0
   16905 TIP3 3000 TIP3 H1   HT     0.417000        1.0080           0
   16906 TIP3 3000 TIP3 H2   HT     0.417000        1.0080           0
   16907 TIP3 3001 TIP3 OH2  OT    -0.834000       15.9994           0
   16908 TIP3 3001 TIP3 H1   HT     0.417000        1.0080           0
   16909 TIP3 3001 TIP3 H2   HT     0.417000        1.0080           0
   16910 TIP3 3002 TIP3 OH2  OT    -0.834000       15.9994           0
   16911 TIP3 3002 TIP3 H1   HT     0.417000        1.0080           0
   16912 TIP3 3002 TIP3 H2   HT     0.417000        1.0080           0
   16913 TIP3 3003 TIP3 OH2  OT    -0.834000       15.9994           0
   16914 TIP3 3003 TIP3 H1   HT     0.417000        1.0080           0
   16915 TIP3 3003 TIP3 H2   HT     0.417000        1.0080           0
   16916 TIP3 3004 TIP3 OH2  OT    -0.834000       15.9994           0
   16917 TIP3 3004 TIP3 H1   HT     0.417000        1.0080           0
   16918 TIP3 3004 TIP3 H2   HT     0.417000        1.0080           0
   16919 TIP3 3005 TIP3 OH2  OT    -0.834000       15.9994           0
   16920 TIP3 3005 TIP3 H1   HT     0.417000        1.0080           0
   16921 TIP3 3005 TIP3 H2   HT     0.417000        1.0080           0
   16922 TIP3 3006 TIP3 OH2  OT    -0.834000       15.9994           0
   16923 TIP3 3006 TIP3 H1   HT     0.417000        1.0080           0
   16924 TIP3 3006 TIP3 H2   HT     0.417000        1.0080           0
   16925 TIP3 3007 TIP3 OH2  OT    -0.834000       15.9994           0
   16926 TIP3 3007 TIP3 H1   HT     0.417000        1.0080           0
   16927 TIP3 3007 TIP3 H2   HT     0.417000        1.0080           0
   16928 TIP3 3008 TIP3 OH2  OT    -0.834000       15.9994           0
   16929 TIP3 3008 TIP3 H1   HT     0.417000        1.0080           0
   16930 TIP3 3008 TIP3 H2   HT     0.417000        1.0080           0
   16931 TIP3 3009 TIP3 OH2  OT    -0.834000       15.9994           0
   16932 TIP3 3009 TIP3 H1   HT     0.417000        1.0080           0
   16933 TIP3 3009 TIP3 H2   HT     0.417000        1.0080           0
   16934 TIP3 3010 TIP3 OH2  OT    -0.834000       15.9994           0
   16935 TIP3 3010 TIP3 H1   HT     0.417000        1.0080           0
   16936 TIP3 3010 TIP3 H2   HT     0.417000        1.0080           0
   16937 TIP3 3011 TIP3 OH2  OT    -0.834000       15.9994           0
   16938 TIP3 3011 TIP3 H1   HT     0.417000        1.0080           0
   16939 TIP3 3011 TIP3 H2   HT     0.417000        1.0080           0
   16940 TIP3 3012 TIP3 OH2  OT    -0.834000       15.9994           0
   16941 TIP3 3012 TIP3 H1   HT     0.417000        1.0080           0
   16942 TIP3 3012 TIP3 H2   HT     0.417000        1.0080           0
   16943 TIP3 3013 TIP3 OH2  OT    -0.834000       15.9994           0
   16944 TIP3 3013 TIP3 H1   HT     0.417000        1.0080           0
   16945 TIP3 3013 TIP3 H2   HT     0.417000        1.0080           0
   16946 TIP3 3014 TIP3 OH2  OT    -0.834000       15.9994           0
   16947 TIP3 3014 TIP3 H1   HT     0.417000        1.0080           0
   16948 TIP3 3014 TIP3 H2   HT     0.417000        1.0080           0
   16949 TIP3 3015 TIP3 OH2  OT    -0.834000       15.9994           0
   16950 TIP3 3015 TIP3 H1   HT     0.417000        1.0080           0
   16951 TIP3 3015 TIP3 H2   HT     0.417000        1.0080           0
   16952 TIP3 3016 TIP3 OH2  OT    -0.834000       15.9994           0
   16953 TIP3 3016 TIP3 H1   HT     0.417000        1.0080           0
   16954 TIP3 3016 TIP3 H2   HT     0.417000        1.0080           0
   16955 TIP3 3017 TIP3 OH2  OT    -0.834000       15.9994           0
   16956 TIP3 3017 TIP3 H1   HT     0.417000        1.0080           0
   16957 TIP3 3017 TIP3 H2   HT     0.417000        1.0080           0
   16958 TIP3 3018 TIP3 OH2  OT    -0.834000       15.9994           0
   16959 TIP3 3018 TIP3 H1   HT     0.417000        1.0080           0
   16960 TIP3 3018 TIP3 H2   HT     0.417000        1.0080           0
   16961 TIP3 3019 TIP3 OH2  OT    -0.834000       15.9994           0
   16962 TIP3 3019 TIP3 H1   HT     0.417000        1.0080           0
   16963 TIP3 3019 TIP3 H2   HT     0.417000        1.0080           0
   16964 TIP3 3020 TIP3 OH2  OT    -0.834000       15.9994           0
   16965 TIP3 3020 TIP3 H1   HT     0.417000        1.0080           0
   16966 TIP3 3020 TIP3 H2   HT     0.417000        1.0080           0
   16967 TIP3 3021 TIP3 OH2  OT    -0.834000       15.9994           0
   16968 TIP3 3021 TIP3 H1   HT     0.417000        1.0080           0
   16969 TIP3 3021 TIP3 H2   HT     0.417000        1.0080           0
   16970 TIP3 3022 TIP3 OH2  OT    -0.834000       15.9994           0
   16971 TIP3 3022 TIP3 H1   HT     0.417000        1.0080           0
   16972 TIP3 3022 TIP3 H2   HT     0.417000        1.0080           0
   16973 TIP3 3023 TIP3 OH2  OT    -0.834000       15.9994           0
   16974 TIP3 3023 TIP3 H1   HT     0.417000        1.0080           0
   16975 TIP3 3023 TIP3 H2   HT     0.417000        1.0080           0
   16976 TIP3 3024 TIP3 OH2  OT    -0.834000       15.9994           0
   16977 TIP3 3024 TIP3 H1   HT     0.417000        1.0080           0
   16978 TIP3 3024 TIP3 H2   HT     0.417000        1.0080           0
   16979 TIP3 3025 TIP3 OH2  OT    -0.834000       15.9994           0
   16980 TIP3 3025 TIP3 H1   HT     0.417000        1.0080           0
   16981 TIP3 3025 TIP3 H2   HT     0.417000        1.0080           0
   16982 TIP3 3026 TIP3 OH2  OT    -0.834000       15.9994           0
   16983 TIP3 3026 TIP3 H1   HT     0.417000        1.0080           0
   16984 TIP3 3026 TIP3 H2   HT     0.417000        1.0080           0
   16985 TIP3 3027 TIP3 OH2  OT    -0.834000       15.9994           0
   16986 TIP3 3027 TIP3 H1   HT     0.417000        1.0080           0
   16987 TIP3 3027 TIP3 H2   HT     0.417000        1.0080           0
   16988 TIP3 3028 TIP3 OH2  OT    -0.834000       15.9994           0
   16989 TIP3 3028 TIP3 H1   HT     0.417000        1.0080           0
   16990 TIP3 3028 TIP3 H2   HT     0.417000        1.0080           0
   16991 TIP3 3029 TIP3 OH2  OT    -0.834000       15.9994           0
   16992 TIP3 3029 TIP3 H1   HT     0.417000        1.0080           0
   16993 TIP3 3029 TIP3 H2   HT     0.417000        1.0080           0
   16994 TIP3 3030 TIP3 OH2  OT    -0.834000       15.9994           0
   16995 TIP3 3030 TIP3 H1   HT     0.417000        1.0080           0
   16996 TIP3 3030 TIP3 H2   HT     0.417000        1.0080           0
   16997 TIP3 3031 TIP3 OH2  OT    -0.834000       15.9994           0
   16998 TIP3 3031 TIP3 H1   HT     0.417000        1.0080           0
   16999 TIP3 3031 TIP3 H2   HT     0.417000        1.0080           0
   17000 TIP3 3032 TIP3 OH2  OT    -0.834000       15.9994           0
   17001 TIP3 3032 TIP3 H1   HT     0.417000        1.0080           0
   17002 TIP3 3032 TIP3 H2   HT     0.417000        1.0080           0
   17003 TIP3 3033 TIP3 OH2  OT    -0.834000       15.9994           0
   17004 TIP3 3033 TIP3 H1   HT     0.417000        1.0080           0
   17005 TIP3 3033 TIP3 H2   HT     0.417000        1.0080           0
   17006 TIP3 3034 TIP3 OH2  OT    -0.834000       15.9994           0
   17007 TIP3 3034 TIP3 H1   HT     0.417000        1.0080           0
   17008 TIP3 3034 TIP3 H2   HT     0.417000        1.0080           0
   17009 TIP3 3035 TIP3 OH2  OT    -0.834000       15.9994           0
   17010 TIP3 3035 TIP3 H1   HT     0.417000        1.0080           0
   17011 TIP3 3035 TIP3 H2   HT     0.417000        1.0080           0
   17012 TIP3 3036 TIP3 OH2  OT    -0.834000       15.9994           0
   17013 TIP3 3036 TIP3 H1   HT     0.417000        1.0080           0
   17014 TIP3 3036 TIP3 H2   HT     0.417000        1.0080           0
   17015 TIP3 3037 TIP3 OH2  OT    -0.834000       15.9994           0
   17016 TIP3 3037 TIP3 H1   HT     0.417000        1.0080           0
   17017 TIP3 3037 TIP3 H2   HT     0.417000        1.0080           0
   17018 TIP3 3038 TIP3 OH2  OT    -0.834000       15.9994           0
   17019 TIP3 3038 TIP3 H1   HT     0.417000        1.0080           0
   17020 TIP3 3038 TIP3 H2   HT     0.417000        1.0080           0
   17021 TIP3 3039 TIP3 OH2  OT    -0.834000       15.9994           0
   17022 TIP3 3039 TIP3 H1   HT     0.417000        1.0080           0
   17023 TIP3 3039 TIP3 H2   HT     0.417000        1.0080           0
   17024 TIP3 3040 TIP3 OH2  OT    -0.834000       15.9994           0
   17025 TIP3 3040 TIP3 H1   HT     0.417000        1.0080           0
   17026 TIP3 3040 TIP3 H2   HT     0.417000        1.0080           0
   17027 TIP3 3041 TIP3 OH2  OT    -0.834000       15.9994           0
   17028 TIP3 3041 TIP3 H1   HT     0.417000        1.0080           0
   17029 TIP3 3041 TIP3 H2   HT     0.417000        1.0080           0
   17030 TIP3 3042 TIP3 OH2  OT    -0.834000       15.9994           0
   17031 TIP3 3042 TIP3 H1   HT     0.417000        1.0080           0
   17032 TIP3 3042 TIP3 H2   HT     0.417000        1.0080           0
   17033 TIP3 3043 TIP3 OH2  OT    -0.834000       15.9994           0
   17034 TIP3 3043 TIP3 H1   HT     0.417000        1.0080           0
   17035 TIP3 3043 TIP3 H2   HT     0.417000        1.0080           0
   17036 TIP3 3044 TIP3 OH2  OT    -0.834000       15.9994           0
   17037 TIP3 3044 TIP3 H1   HT     0.417000        1.0080           0
   17038 TIP3 3044 TIP3 H2   HT     0.417000        1.0080           0
   17039 TIP3 3045 TIP3 OH2  OT    -0.834000       15.9994           0
   17040 TIP3 3045 TIP3 H1   HT     0.417000        1.0080           0
   17041 TIP3 3045 TIP3 H2   HT     0.417000        1.0080           0
   17042 TIP3 3046 TIP3 OH2  OT    -0.834000       15.9994           0
   17043 TIP3 3046 TIP3 H1   HT     0.417000        1.0080           0
   17044 TIP3 3046 TIP3 H2   HT     0.417000        1.0080           0
   17045 TIP3 3047 TIP3 OH2  OT    -0.834000       15.9994           0
   17046 TIP3 3047 TIP3 H1   HT     0.417000        1.0080           0
   17047 TIP3 3047 TIP3 H2   HT     0.417000        1.0080           0
   17048 TIP3 3048 TIP3 OH2  OT    -0.834000       15.9994           0
   17049 TIP3 3048 TIP3 H1   HT     0.417000        1.0080           0
   17050 TIP3 3048 TIP3 H2   HT     0.417000        1.0080           0
   17051 TIP3 3049 TIP3 OH2  OT    -0.834000       15.9994           0
   17052 TIP3 3049 TIP3 H1   HT     0.417000        1.0080           0
   17053 TIP3 3049 TIP3 H2   HT     0.417000        1.0080           0
   17054 TIP3 3050 TIP3 OH2  OT    -0.834000       15.9994           0
   17055 TIP3 3050 TIP3 H1   HT     0.417000        1.0080           0
   17056 TIP3 3050 TIP3 H2   HT     0.417000        1.0080           0
   17057 TIP3 3051 TIP3 OH2  OT    -0.834000       15.9994           0
   17058 TIP3 3051 TIP3 H1   HT     0.417000        1.0080           0
   17059 TIP3 3051 TIP3 H2   HT     0.417000        1.0080           0
   17060 TIP3 3052 TIP3 OH2  OT    -0.834000       15.9994           0
   17061 TIP3 3052 TIP3 H1   HT     0.417000        1.0080           0
   17062 TIP3 3052 TIP3 H2   HT     0.417000        1.0080           0
   17063 TIP3 3053 TIP3 OH2  OT    -0.834000       15.9994           0
   17064 TIP3 3053 TIP3 H1   HT     0.417000        1.0080           0
   17065 TIP3 3053 TIP3 H2   HT     0.417000        1.0080           0
   17066 TIP3 3054 TIP3 OH2  OT    -0.834000       15.9994           0
   17067 TIP3 3054 TIP3 H1   HT     0.417000        1.0080           0
   17068 TIP3 3054 TIP3 H2   HT     0.417000        1.0080           0
   17069 TIP3 3055 TIP3 OH2  OT    -0.834000       15.9994           0
   17070 TIP3 3055 TIP3 H1   HT     0.417000        1.0080           0
   17071 TIP3 3055 TIP3 H2   HT     0.417000        1.0080           0
   17072 TIP3 3056 TIP3 OH2  OT    -0.834000       15.9994           0
   17073 TIP3 3056 TIP3 H1   HT     0.417000        1.0080           0
   17074 TIP3 3056 TIP3 H2   HT     0.417000        1.0080           0
   17075 TIP3 3057 TIP3 OH2  OT    -0.834000       15.9994           0
   17076 TIP3 3057 TIP3 H1   HT     0.417000        1.0080           0
   17077 TIP3 3057 TIP3 H2   HT     0.417000        1.0080           0
   17078 TIP3 3058 TIP3 OH2  OT    -0.834000       15.9994           0
   17079 TIP3 3058 TIP3 H1   HT     0.417000        1.0080           0
   17080 TIP3 3058 TIP3 H2   HT     0.417000        1.0080           0
   17081 TIP3 3059 TIP3 OH2  OT    -0.834000       15.9994           0
   17082 TIP3 3059 TIP3 H1   HT     0.417000        1.0080           0
   17083 TIP3 3059 TIP3 H2   HT     0.417000        1.0080           0
   17084 TIP3 3060 TIP3 OH2  OT    -0.834000       15.9994           0
   17085 TIP3 3060 TIP3 H1   HT     0.417000        1.0080           0
   17086 TIP3 3060 TIP3 H2   HT     0.417000        1.0080           0
   17087 TIP3 3061 TIP3 OH2  OT    -0.834000       15.9994           0
   17088 TIP3 3061 TIP3 H1   HT     0.417000        1.0080           0
   17089 TIP3 3061 TIP3 H2   HT     0.417000        1.0080           0
   17090 TIP3 3062 TIP3 OH2  OT    -0.834000       15.9994           0
   17091 TIP3 3062 TIP3 H1   HT     0.417000        1.0080           0
   17092 TIP3 3062 TIP3 H2   HT     0.417000        1.0080           0
   17093 TIP3 3063 TIP3 OH2  OT    -0.834000       15.9994           0
   17094 TIP3 3063 TIP3 H1   HT     0.417000        1.0080           0
   17095 TIP3 3063 TIP3 H2   HT     0.417000        1.0080           0
   17096 TIP3 3064 TIP3 OH2  OT    -0.834000       15.9994           0
   17097 TIP3 3064 TIP3 H1   HT     0.417000        1.0080           0
   17098 TIP3 3064 TIP3 H2   HT     0.417000        1.0080           0
   17099 TIP3 3065 TIP3 OH2  OT    -0.834000       15.9994           0
   17100 TIP3 3065 TIP3 H1   HT     0.417000        1.0080           0
   17101 TIP3 3065 TIP3 H2   HT     0.417000        1.0080           0
   17102 TIP3 3066 TIP3 OH2  OT    -0.834000       15.9994           0
   17103 TIP3 3066 TIP3 H1   HT     0.417000        1.0080           0
   17104 TIP3 3066 TIP3 H2   HT     0.417000        1.0080           0
   17105 TIP3 3067 TIP3 OH2  OT    -0.834000       15.9994           0
   17106 TIP3 3067 TIP3 H1   HT     0.417000        1.0080           0
   17107 TIP3 3067 TIP3 H2   HT     0.417000        1.0080           0
   17108 TIP3 3068 TIP3 OH2  OT    -0.834000       15.9994           0
   17109 TIP3 3068 TIP3 H1   HT     0.417000        1.0080           0
   17110 TIP3 3068 TIP3 H2   HT     0.417000        1.0080           0
   17111 TIP3 3069 TIP3 OH2  OT    -0.834000       15.9994           0
   17112 TIP3 3069 TIP3 H1   HT     0.417000        1.0080           0
   17113 TIP3 3069 TIP3 H2   HT     0.417000        1.0080           0
   17114 TIP3 3070 TIP3 OH2  OT    -0.834000       15.9994           0
   17115 TIP3 3070 TIP3 H1   HT     0.417000        1.0080           0
   17116 TIP3 3070 TIP3 H2   HT     0.417000        1.0080           0
   17117 TIP3 3071 TIP3 OH2  OT    -0.834000       15.9994           0
   17118 TIP3 3071 TIP3 H1   HT     0.417000        1.0080           0
   17119 TIP3 3071 TIP3 H2   HT     0.417000        1.0080           0
   17120 TIP3 3072 TIP3 OH2  OT    -0.834000       15.9994           0
   17121 TIP3 3072 TIP3 H1   HT     0.417000        1.0080           0
   17122 TIP3 3072 TIP3 H2   HT     0.417000        1.0080           0
   17123 TIP3 3073 TIP3 OH2  OT    -0.834000       15.9994           0
   17124 TIP3 3073 TIP3 H1   HT     0.417000        1.0080           0
   17125 TIP3 3073 TIP3 H2   HT     0.417000        1.0080           0
   17126 TIP3 3074 TIP3 OH2  OT    -0.834000       15.9994           0
   17127 TIP3 3074 TIP3 H1   HT     0.417000        1.0080           0
   17128 TIP3 3074 TIP3 H2   HT     0.417000        1.0080           0
   17129 TIP3 3075 TIP3 OH2  OT    -0.834000       15.9994           0
   17130 TIP3 3075 TIP3 H1   HT     0.417000        1.0080           0
   17131 TIP3 3075 TIP3 H2   HT     0.417000        1.0080           0
   17132 TIP3 3076 TIP3 OH2  OT    -0.834000       15.9994           0
   17133 TIP3 3076 TIP3 H1   HT     0.417000        1.0080           0
   17134 TIP3 3076 TIP3 H2   HT     0.417000        1.0080           0
   17135 TIP3 3077 TIP3 OH2  OT    -0.834000       15.9994           0
   17136 TIP3 3077 TIP3 H1   HT     0.417000        1.0080           0
   17137 TIP3 3077 TIP3 H2   HT     0.417000        1.0080           0
   17138 TIP3 3078 TIP3 OH2  OT    -0.834000       15.9994           0
   17139 TIP3 3078 TIP3 H1   HT     0.417000        1.0080           0
   17140 TIP3 3078 TIP3 H2   HT     0.417000        1.0080           0
   17141 TIP3 3079 TIP3 OH2  OT    -0.834000       15.9994           0
   17142 TIP3 3079 TIP3 H1   HT     0.417000        1.0080           0
   17143 TIP3 3079 TIP3 H2   HT     0.417000        1.0080           0
   17144 TIP3 3080 TIP3 OH2  OT    -0.834000       15.9994           0
   17145 TIP3 3080 TIP3 H1   HT     0.417000        1.0080           0
   17146 TIP3 3080 TIP3 H2   HT     0.417000        1.0080           0
   17147 TIP3 3081 TIP3 OH2  OT    -0.834000       15.9994           0
   17148 TIP3 3081 TIP3 H1   HT     0.417000        1.0080           0
   17149 TIP3 3081 TIP3 H2   HT     0.417000        1.0080           0
   17150 TIP3 3082 TIP3 OH2  OT    -0.834000       15.9994           0
   17151 TIP3 3082 TIP3 H1   HT     0.417000        1.0080           0
   17152 TIP3 3082 TIP3 H2   HT     0.417000        1.0080           0
   17153 TIP3 3083 TIP3 OH2  OT    -0.834000       15.9994           0
   17154 TIP3 3083 TIP3 H1   HT     0.417000        1.0080           0
   17155 TIP3 3083 TIP3 H2   HT     0.417000        1.0080           0
   17156 TIP3 3084 TIP3 OH2  OT    -0.834000       15.9994           0
   17157 TIP3 3084 TIP3 H1   HT     0.417000        1.0080           0
   17158 TIP3 3084 TIP3 H2   HT     0.417000        1.0080           0
   17159 TIP3 3085 TIP3 OH2  OT    -0.834000       15.9994           0
   17160 TIP3 3085 TIP3 H1   HT     0.417000        1.0080           0
   17161 TIP3 3085 TIP3 H2   HT     0.417000        1.0080           0
   17162 TIP3 3086 TIP3 OH2  OT    -0.834000       15.9994           0
   17163 TIP3 3086 TIP3 H1   HT     0.417000        1.0080           0
   17164 TIP3 3086 TIP3 H2   HT     0.417000        1.0080           0
   17165 TIP3 3087 TIP3 OH2  OT    -0.834000       15.9994           0
   17166 TIP3 3087 TIP3 H1   HT     0.417000        1.0080           0
   17167 TIP3 3087 TIP3 H2   HT     0.417000        1.0080           0
   17168 TIP3 3088 TIP3 OH2  OT    -0.834000       15.9994           0
   17169 TIP3 3088 TIP3 H1   HT     0.417000        1.0080           0
   17170 TIP3 3088 TIP3 H2   HT     0.417000        1.0080           0
   17171 TIP3 3089 TIP3 OH2  OT    -0.834000       15.9994           0
   17172 TIP3 3089 TIP3 H1   HT     0.417000        1.0080           0
   17173 TIP3 3089 TIP3 H2   HT     0.417000        1.0080           0
   17174 TIP3 3090 TIP3 OH2  OT    -0.834000       15.9994           0
   17175 TIP3 3090 TIP3 H1   HT     0.417000        1.0080           0
   17176 TIP3 3090 TIP3 H2   HT     0.417000        1.0080           0
   17177 TIP3 3091 TIP3 OH2  OT    -0.834000       15.9994           0
   17178 TIP3 3091 TIP3 H1   HT     0.417000        1.0080           0
   17179 TIP3 3091 TIP3 H2   HT     0.417000        1.0080           0
   17180 TIP3 3092 TIP3 OH2  OT    -0.834000       15.9994           0
   17181 TIP3 3092 TIP3 H1   HT     0.417000        1.0080           0
   17182 TIP3 3092 TIP3 H2   HT     0.417000        1.0080           0
   17183 TIP3 3093 TIP3 OH2  OT    -0.834000       15.9994           0
   17184 TIP3 3093 TIP3 H1   HT     0.417000        1.0080           0
   17185 TIP3 3093 TIP3 H2   HT     0.417000        1.0080           0
   17186 TIP3 3094 TIP3 OH2  OT    -0.834000       15.9994           0
   17187 TIP3 3094 TIP3 H1   HT     0.417000        1.0080           0
   17188 TIP3 3094 TIP3 H2   HT     0.417000        1.0080           0
   17189 TIP3 3095 TIP3 OH2  OT    -0.834000       15.9994           0
   17190 TIP3 3095 TIP3 H1   HT     0.417000        1.0080           0
   17191 TIP3 3095 TIP3 H2   HT     0.417000        1.0080           0
   17192 TIP3 3096 TIP3 OH2  OT    -0.834000       15.9994           0
   17193 TIP3 3096 TIP3 H1   HT     0.417000        1.0080           0
   17194 TIP3 3096 TIP3 H2   HT     0.417000        1.0080           0
   17195 TIP3 3097 TIP3 OH2  OT    -0.834000       15.9994           0
   17196 TIP3 3097 TIP3 H1   HT     0.417000        1.0080           0
   17197 TIP3 3097 TIP3 H2   HT     0.417000        1.0080           0
   17198 TIP3 3098 TIP3 OH2  OT    -0.834000       15.9994           0
   17199 TIP3 3098 TIP3 H1   HT     0.417000        1.0080           0
   17200 TIP3 3098 TIP3 H2   HT     0.417000        1.0080           0
   17201 TIP3 3099 TIP3 OH2  OT    -0.834000       15.9994           0
   17202 TIP3 3099 TIP3 H1   HT     0.417000        1.0080           0
   17203 TIP3 3099 TIP3 H2   HT     0.417000        1.0080           0
   17204 TIP3 3100 TIP3 OH2  OT    -0.834000       15.9994           0
   17205 TIP3 3100 TIP3 H1   HT     0.417000        1.0080           0
   17206 TIP3 3100 TIP3 H2   HT     0.417000        1.0080           0
   17207 TIP3 3101 TIP3 OH2  OT    -0.834000       15.9994           0
   17208 TIP3 3101 TIP3 H1   HT     0.417000        1.0080           0
   17209 TIP3 3101 TIP3 H2   HT     0.417000        1.0080           0
   17210 TIP3 3102 TIP3 OH2  OT    -0.834000       15.9994           0
   17211 TIP3 3102 TIP3 H1   HT     0.417000        1.0080           0
   17212 TIP3 3102 TIP3 H2   HT     0.417000        1.0080           0
   17213 TIP3 3103 TIP3 OH2  OT    -0.834000       15.9994           0
   17214 TIP3 3103 TIP3 H1   HT     0.417000        1.0080           0
   17215 TIP3 3103 TIP3 H2   HT     0.417000        1.0080           0
   17216 TIP3 3104 TIP3 OH2  OT    -0.834000       15.9994           0
   17217 TIP3 3104 TIP3 H1   HT     0.417000        1.0080           0
   17218 TIP3 3104 TIP3 H2   HT     0.417000        1.0080           0
   17219 TIP3 3105 TIP3 OH2  OT    -0.834000       15.9994           0
   17220 TIP3 3105 TIP3 H1   HT     0.417000        1.0080           0
   17221 TIP3 3105 TIP3 H2   HT     0.417000        1.0080           0
   17222 TIP3 3106 TIP3 OH2  OT    -0.834000       15.9994           0
   17223 TIP3 3106 TIP3 H1   HT     0.417000        1.0080           0
   17224 TIP3 3106 TIP3 H2   HT     0.417000        1.0080           0
   17225 TIP3 3107 TIP3 OH2  OT    -0.834000       15.9994           0
   17226 TIP3 3107 TIP3 H1   HT     0.417000        1.0080           0
   17227 TIP3 3107 TIP3 H2   HT     0.417000        1.0080           0
   17228 TIP3 3108 TIP3 OH2  OT    -0.834000       15.9994           0
   17229 TIP3 3108 TIP3 H1   HT     0.417000        1.0080           0
   17230 TIP3 3108 TIP3 H2   HT     0.417000        1.0080           0
   17231 TIP3 3109 TIP3 OH2  OT    -0.834000       15.9994           0
   17232 TIP3 3109 TIP3 H1   HT     0.417000        1.0080           0
   17233 TIP3 3109 TIP3 H2   HT     0.417000        1.0080           0
   17234 TIP3 3110 TIP3 OH2  OT    -0.834000       15.9994           0
   17235 TIP3 3110 TIP3 H1   HT     0.417000        1.0080           0
   17236 TIP3 3110 TIP3 H2   HT     0.417000        1.0080           0
   17237 TIP3 3111 TIP3 OH2  OT    -0.834000       15.9994           0
   17238 TIP3 3111 TIP3 H1   HT     0.417000        1.0080           0
   17239 TIP3 3111 TIP3 H2   HT     0.417000        1.0080           0
   17240 TIP3 3112 TIP3 OH2  OT    -0.834000       15.9994           0
   17241 TIP3 3112 TIP3 H1   HT     0.417000        1.0080           0
   17242 TIP3 3112 TIP3 H2   HT     0.417000        1.0080           0
   17243 TIP3 3113 TIP3 OH2  OT    -0.834000       15.9994           0
   17244 TIP3 3113 TIP3 H1   HT     0.417000        1.0080           0
   17245 TIP3 3113 TIP3 H2   HT     0.417000        1.0080           0
   17246 TIP3 3114 TIP3 OH2  OT    -0.834000       15.9994           0
   17247 TIP3 3114 TIP3 H1   HT     0.417000        1.0080           0
   17248 TIP3 3114 TIP3 H2   HT     0.417000        1.0080           0
   17249 TIP3 3115 TIP3 OH2  OT    -0.834000       15.9994           0
   17250 TIP3 3115 TIP3 H1   HT     0.417000        1.0080           0
   17251 TIP3 3115 TIP3 H2   HT     0.417000        1.0080           0
   17252 TIP3 3116 TIP3 OH2  OT    -0.834000       15.9994           0
   17253 TIP3 3116 TIP3 H1   HT     0.417000        1.0080           0
   17254 TIP3 3116 TIP3 H2   HT     0.417000        1.0080           0
   17255 TIP3 3117 TIP3 OH2  OT    -0.834000       15.9994           0
   17256 TIP3 3117 TIP3 H1   HT     0.417000        1.0080           0
   17257 TIP3 3117 TIP3 H2   HT     0.417000        1.0080           0
   17258 TIP3 3118 TIP3 OH2  OT    -0.834000       15.9994           0
   17259 TIP3 3118 TIP3 H1   HT     0.417000        1.0080           0
   17260 TIP3 3118 TIP3 H2   HT     0.417000        1.0080           0
   17261 TIP3 3119 TIP3 OH2  OT    -0.834000       15.9994           0
   17262 TIP3 3119 TIP3 H1   HT     0.417000        1.0080           0
   17263 TIP3 3119 TIP3 H2   HT     0.417000        1.0080           0
   17264 TIP3 3120 TIP3 OH2  OT    -0.834000       15.9994           0
   17265 TIP3 3120 TIP3 H1   HT     0.417000        1.0080           0
   17266 TIP3 3120 TIP3 H2   HT     0.417000        1.0080           0
   17267 TIP3 3121 TIP3 OH2  OT    -0.834000       15.9994           0
   17268 TIP3 3121 TIP3 H1   HT     0.417000        1.0080           0
   17269 TIP3 3121 TIP3 H2   HT     0.417000        1.0080           0
   17270 TIP3 3122 TIP3 OH2  OT    -0.834000       15.9994           0
   17271 TIP3 3122 TIP3 H1   HT     0.417000        1.0080           0
   17272 TIP3 3122 TIP3 H2   HT     0.417000        1.0080           0
   17273 TIP3 3123 TIP3 OH2  OT    -0.834000       15.9994           0
   17274 TIP3 3123 TIP3 H1   HT     0.417000        1.0080           0
   17275 TIP3 3123 TIP3 H2   HT     0.417000        1.0080           0
   17276 TIP3 3124 TIP3 OH2  OT    -0.834000       15.9994           0
   17277 TIP3 3124 TIP3 H1   HT     0.417000        1.0080           0
   17278 TIP3 3124 TIP3 H2   HT     0.417000        1.0080           0
   17279 TIP3 3125 TIP3 OH2  OT    -0.834000       15.9994           0
   17280 TIP3 3125 TIP3 H1   HT     0.417000        1.0080           0
   17281 TIP3 3125 TIP3 H2   HT     0.417000        1.0080           0
   17282 TIP3 3126 TIP3 OH2  OT    -0.834000       15.9994           0
   17283 TIP3 3126 TIP3 H1   HT     0.417000        1.0080           0
   17284 TIP3 3126 TIP3 H2   HT     0.417000        1.0080           0
   17285 TIP3 3127 TIP3 OH2  OT    -0.834000       15.9994           0
   17286 TIP3 3127 TIP3 H1   HT     0.417000        1.0080           0
   17287 TIP3 3127 TIP3 H2   HT     0.417000        1.0080           0
   17288 TIP3 3128 TIP3 OH2  OT    -0.834000       15.9994           0
   17289 TIP3 3128 TIP3 H1   HT     0.417000        1.0080           0
   17290 TIP3 3128 TIP3 H2   HT     0.417000        1.0080           0
   17291 TIP3 3129 TIP3 OH2  OT    -0.834000       15.9994           0
   17292 TIP3 3129 TIP3 H1   HT     0.417000        1.0080           0
   17293 TIP3 3129 TIP3 H2   HT     0.417000        1.0080           0
   17294 TIP3 3130 TIP3 OH2  OT    -0.834000       15.9994           0
   17295 TIP3 3130 TIP3 H1   HT     0.417000        1.0080           0
   17296 TIP3 3130 TIP3 H2   HT     0.417000        1.0080           0
   17297 TIP3 3131 TIP3 OH2  OT    -0.834000       15.9994           0
   17298 TIP3 3131 TIP3 H1   HT     0.417000        1.0080           0
   17299 TIP3 3131 TIP3 H2   HT     0.417000        1.0080           0
   17300 TIP3 3132 TIP3 OH2  OT    -0.834000       15.9994           0
   17301 TIP3 3132 TIP3 H1   HT     0.417000        1.0080           0
   17302 TIP3 3132 TIP3 H2   HT     0.417000        1.0080           0
   17303 TIP3 3133 TIP3 OH2  OT    -0.834000       15.9994           0
   17304 TIP3 3133 TIP3 H1   HT     0.417000        1.0080           0
   17305 TIP3 3133 TIP3 H2   HT     0.417000        1.0080           0
   17306 TIP3 3134 TIP3 OH2  OT    -0.834000       15.9994           0
   17307 TIP3 3134 TIP3 H1   HT     0.417000        1.0080           0
   17308 TIP3 3134 TIP3 H2   HT     0.417000        1.0080           0
   17309 TIP3 3135 TIP3 OH2  OT    -0.834000       15.9994           0
   17310 TIP3 3135 TIP3 H1   HT     0.417000        1.0080           0
   17311 TIP3 3135 TIP3 H2   HT     0.417000        1.0080           0
   17312 TIP3 3136 TIP3 OH2  OT    -0.834000       15.9994           0
   17313 TIP3 3136 TIP3 H1   HT     0.417000        1.0080           0
   17314 TIP3 3136 TIP3 H2   HT     0.417000        1.0080           0
   17315 TIP3 3137 TIP3 OH2  OT    -0.834000       15.9994           0
   17316 TIP3 3137 TIP3 H1   HT     0.417000        1.0080           0
   17317 TIP3 3137 TIP3 H2   HT     0.417000        1.0080           0
   17318 TIP3 3138 TIP3 OH2  OT    -0.834000       15.9994           0
   17319 TIP3 3138 TIP3 H1   HT     0.417000        1.0080           0
   17320 TIP3 3138 TIP3 H2   HT     0.417000        1.0080           0
   17321 TIP3 3139 TIP3 OH2  OT    -0.834000       15.9994           0
   17322 TIP3 3139 TIP3 H1   HT     0.417000        1.0080           0
   17323 TIP3 3139 TIP3 H2   HT     0.417000        1.0080           0
   17324 TIP3 3140 TIP3 OH2  OT    -0.834000       15.9994           0
   17325 TIP3 3140 TIP3 H1   HT     0.417000        1.0080           0
   17326 TIP3 3140 TIP3 H2   HT     0.417000        1.0080           0
   17327 TIP3 3141 TIP3 OH2  OT    -0.834000       15.9994           0
   17328 TIP3 3141 TIP3 H1   HT     0.417000        1.0080           0
   17329 TIP3 3141 TIP3 H2   HT     0.417000        1.0080           0
   17330 TIP3 3142 TIP3 OH2  OT    -0.834000       15.9994           0
   17331 TIP3 3142 TIP3 H1   HT     0.417000        1.0080           0
   17332 TIP3 3142 TIP3 H2   HT     0.417000        1.0080           0
   17333 TIP3 3143 TIP3 OH2  OT    -0.834000       15.9994           0
   17334 TIP3 3143 TIP3 H1   HT     0.417000        1.0080           0
   17335 TIP3 3143 TIP3 H2   HT     0.417000        1.0080           0
   17336 TIP3 3144 TIP3 OH2  OT    -0.834000       15.9994           0
   17337 TIP3 3144 TIP3 H1   HT     0.417000        1.0080           0
   17338 TIP3 3144 TIP3 H2   HT     0.417000        1.0080           0
   17339 TIP3 3145 TIP3 OH2  OT    -0.834000       15.9994           0
   17340 TIP3 3145 TIP3 H1   HT     0.417000        1.0080           0
   17341 TIP3 3145 TIP3 H2   HT     0.417000        1.0080           0
   17342 TIP3 3146 TIP3 OH2  OT    -0.834000       15.9994           0
   17343 TIP3 3146 TIP3 H1   HT     0.417000        1.0080           0
   17344 TIP3 3146 TIP3 H2   HT     0.417000        1.0080           0
   17345 TIP3 3147 TIP3 OH2  OT    -0.834000       15.9994           0
   17346 TIP3 3147 TIP3 H1   HT     0.417000        1.0080           0
   17347 TIP3 3147 TIP3 H2   HT     0.417000        1.0080           0
   17348 TIP3 3148 TIP3 OH2  OT    -0.834000       15.9994           0
   17349 TIP3 3148 TIP3 H1   HT     0.417000        1.0080           0
   17350 TIP3 3148 TIP3 H2   HT     0.417000        1.0080           0
   17351 TIP3 3149 TIP3 OH2  OT    -0.834000       15.9994           0
   17352 TIP3 3149 TIP3 H1   HT     0.417000        1.0080           0
   17353 TIP3 3149 TIP3 H2   HT     0.417000        1.0080           0
   17354 TIP3 3150 TIP3 OH2  OT    -0.834000       15.9994           0
   17355 TIP3 3150 TIP3 H1   HT     0.417000        1.0080           0
   17356 TIP3 3150 TIP3 H2   HT     0.417000        1.0080           0
   17357 TIP3 3151 TIP3 OH2  OT    -0.834000       15.9994           0
   17358 TIP3 3151 TIP3 H1   HT     0.417000        1.0080           0
   17359 TIP3 3151 TIP3 H2   HT     0.417000        1.0080           0
   17360 TIP3 3152 TIP3 OH2  OT    -0.834000       15.9994           0
   17361 TIP3 3152 TIP3 H1   HT     0.417000        1.0080           0
   17362 TIP3 3152 TIP3 H2   HT     0.417000        1.0080           0
   17363 TIP3 3153 TIP3 OH2  OT    -0.834000       15.9994           0
   17364 TIP3 3153 TIP3 H1   HT     0.417000        1.0080           0
   17365 TIP3 3153 TIP3 H2   HT     0.417000        1.0080           0
   17366 TIP3 3154 TIP3 OH2  OT    -0.834000       15.9994           0
   17367 TIP3 3154 TIP3 H1   HT     0.417000        1.0080           0
   17368 TIP3 3154 TIP3 H2   HT     0.417000        1.0080           0
   17369 TIP3 3155 TIP3 OH2  OT    -0.834000       15.9994           0
   17370 TIP3 3155 TIP3 H1   HT     0.417000        1.0080           0
   17371 TIP3 3155 TIP3 H2   HT     0.417000        1.0080           0
   17372 TIP3 3156 TIP3 OH2  OT    -0.834000       15.9994           0
   17373 TIP3 3156 TIP3 H1   HT     0.417000        1.0080           0
   17374 TIP3 3156 TIP3 H2   HT     0.417000        1.0080           0
   17375 TIP3 3157 TIP3 OH2  OT    -0.834000       15.9994           0
   17376 TIP3 3157 TIP3 H1   HT     0.417000        1.0080           0
   17377 TIP3 3157 TIP3 H2   HT     0.417000        1.0080           0
   17378 TIP3 3158 TIP3 OH2  OT    -0.834000       15.9994           0
   17379 TIP3 3158 TIP3 H1   HT     0.417000        1.0080           0
   17380 TIP3 3158 TIP3 H2   HT     0.417000        1.0080           0
   17381 TIP3 3159 TIP3 OH2  OT    -0.834000       15.9994           0
   17382 TIP3 3159 TIP3 H1   HT     0.417000        1.0080           0
   17383 TIP3 3159 TIP3 H2   HT     0.417000        1.0080           0
   17384 TIP3 3160 TIP3 OH2  OT    -0.834000       15.9994           0
   17385 TIP3 3160 TIP3 H1   HT     0.417000        1.0080           0
   17386 TIP3 3160 TIP3 H2   HT     0.417000        1.0080           0
   17387 TIP3 3161 TIP3 OH2  OT    -0.834000       15.9994           0
   17388 TIP3 3161 TIP3 H1   HT     0.417000        1.0080           0
   17389 TIP3 3161 TIP3 H2   HT     0.417000        1.0080           0
   17390 TIP3 3162 TIP3 OH2  OT    -0.834000       15.9994           0
   17391 TIP3 3162 TIP3 H1   HT     0.417000        1.0080           0
   17392 TIP3 3162 TIP3 H2   HT     0.417000        1.0080           0
   17393 TIP3 3163 TIP3 OH2  OT    -0.834000       15.9994           0
   17394 TIP3 3163 TIP3 H1   HT     0.417000        1.0080           0
   17395 TIP3 3163 TIP3 H2   HT     0.417000        1.0080           0
   17396 TIP3 3164 TIP3 OH2  OT    -0.834000       15.9994           0
   17397 TIP3 3164 TIP3 H1   HT     0.417000        1.0080           0
   17398 TIP3 3164 TIP3 H2   HT     0.417000        1.0080           0
   17399 TIP3 3165 TIP3 OH2  OT    -0.834000       15.9994           0
   17400 TIP3 3165 TIP3 H1   HT     0.417000        1.0080           0
   17401 TIP3 3165 TIP3 H2   HT     0.417000        1.0080           0
   17402 TIP3 3166 TIP3 OH2  OT    -0.834000       15.9994           0
   17403 TIP3 3166 TIP3 H1   HT     0.417000        1.0080           0
   17404 TIP3 3166 TIP3 H2   HT     0.417000        1.0080           0
   17405 TIP3 3167 TIP3 OH2  OT    -0.834000       15.9994           0
   17406 TIP3 3167 TIP3 H1   HT     0.417000        1.0080           0
   17407 TIP3 3167 TIP3 H2   HT     0.417000        1.0080           0
   17408 TIP3 3168 TIP3 OH2  OT    -0.834000       15.9994           0
   17409 TIP3 3168 TIP3 H1   HT     0.417000        1.0080           0
   17410 TIP3 3168 TIP3 H2   HT     0.417000        1.0080           0
   17411 TIP3 3169 TIP3 OH2  OT    -0.834000       15.9994           0
   17412 TIP3 3169 TIP3 H1   HT     0.417000        1.0080           0
   17413 TIP3 3169 TIP3 H2   HT     0.417000        1.0080           0
   17414 TIP3 3170 TIP3 OH2  OT    -0.834000       15.9994           0
   17415 TIP3 3170 TIP3 H1   HT     0.417000        1.0080           0
   17416 TIP3 3170 TIP3 H2   HT     0.417000        1.0080           0
   17417 TIP3 3171 TIP3 OH2  OT    -0.834000       15.9994           0
   17418 TIP3 3171 TIP3 H1   HT     0.417000        1.0080           0
   17419 TIP3 3171 TIP3 H2   HT     0.417000        1.0080           0
   17420 TIP3 3172 TIP3 OH2  OT    -0.834000       15.9994           0
   17421 TIP3 3172 TIP3 H1   HT     0.417000        1.0080           0
   17422 TIP3 3172 TIP3 H2   HT     0.417000        1.0080           0
   17423 TIP3 3173 TIP3 OH2  OT    -0.834000       15.9994           0
   17424 TIP3 3173 TIP3 H1   HT     0.417000        1.0080           0
   17425 TIP3 3173 TIP3 H2   HT     0.417000        1.0080           0
   17426 TIP3 3174 TIP3 OH2  OT    -0.834000       15.9994           0
   17427 TIP3 3174 TIP3 H1   HT     0.417000        1.0080           0
   17428 TIP3 3174 TIP3 H2   HT     0.417000        1.0080           0
   17429 TIP3 3175 TIP3 OH2  OT    -0.834000       15.9994           0
   17430 TIP3 3175 TIP3 H1   HT     0.417000        1.0080           0
   17431 TIP3 3175 TIP3 H2   HT     0.417000        1.0080           0
   17432 TIP3 3176 TIP3 OH2  OT    -0.834000       15.9994           0
   17433 TIP3 3176 TIP3 H1   HT     0.417000        1.0080           0
   17434 TIP3 3176 TIP3 H2   HT     0.417000        1.0080           0
   17435 TIP3 3177 TIP3 OH2  OT    -0.834000       15.9994           0
   17436 TIP3 3177 TIP3 H1   HT     0.417000        1.0080           0
   17437 TIP3 3177 TIP3 H2   HT     0.417000        1.0080           0
   17438 TIP3 3178 TIP3 OH2  OT    -0.834000       15.9994           0
   17439 TIP3 3178 TIP3 H1   HT     0.417000        1.0080           0
   17440 TIP3 3178 TIP3 H2   HT     0.417000        1.0080           0
   17441 TIP3 3179 TIP3 OH2  OT    -0.834000       15.9994           0
   17442 TIP3 3179 TIP3 H1   HT     0.417000        1.0080           0
   17443 TIP3 3179 TIP3 H2   HT     0.417000        1.0080           0
   17444 TIP3 3180 TIP3 OH2  OT    -0.834000       15.9994           0
   17445 TIP3 3180 TIP3 H1   HT     0.417000        1.0080           0
   17446 TIP3 3180 TIP3 H2   HT     0.417000        1.0080           0
   17447 TIP3 3181 TIP3 OH2  OT    -0.834000       15.9994           0
   17448 TIP3 3181 TIP3 H1   HT     0.417000        1.0080           0
   17449 TIP3 3181 TIP3 H2   HT     0.417000        1.0080           0
   17450 TIP3 3182 TIP3 OH2  OT    -0.834000       15.9994           0
   17451 TIP3 3182 TIP3 H1   HT     0.417000        1.0080           0
   17452 TIP3 3182 TIP3 H2   HT     0.417000        1.0080           0
   17453 TIP3 3183 TIP3 OH2  OT    -0.834000       15.9994           0
   17454 TIP3 3183 TIP3 H1   HT     0.417000        1.0080           0
   17455 TIP3 3183 TIP3 H2   HT     0.417000        1.0080           0
   17456 TIP3 3184 TIP3 OH2  OT    -0.834000       15.9994           0
   17457 TIP3 3184 TIP3 H1   HT     0.417000        1.0080           0
   17458 TIP3 3184 TIP3 H2   HT     0.417000        1.0080           0
   17459 TIP3 3185 TIP3 OH2  OT    -0.834000       15.9994           0
   17460 TIP3 3185 TIP3 H1   HT     0.417000        1.0080           0
   17461 TIP3 3185 TIP3 H2   HT     0.417000        1.0080           0
   17462 TIP3 3186 TIP3 OH2  OT    -0.834000       15.9994           0
   17463 TIP3 3186 TIP3 H1   HT     0.417000        1.0080           0
   17464 TIP3 3186 TIP3 H2   HT     0.417000        1.0080           0
   17465 TIP3 3187 TIP3 OH2  OT    -0.834000       15.9994           0
   17466 TIP3 3187 TIP3 H1   HT     0.417000        1.0080           0
   17467 TIP3 3187 TIP3 H2   HT     0.417000        1.0080           0
   17468 TIP3 3188 TIP3 OH2  OT    -0.834000       15.9994           0
   17469 TIP3 3188 TIP3 H1   HT     0.417000        1.0080           0
   17470 TIP3 3188 TIP3 H2   HT     0.417000        1.0080           0
   17471 TIP3 3189 TIP3 OH2  OT    -0.834000       15.9994           0
   17472 TIP3 3189 TIP3 H1   HT     0.417000        1.0080           0
   17473 TIP3 3189 TIP3 H2   HT     0.417000        1.0080           0
   17474 TIP3 3190 TIP3 OH2  OT    -0.834000       15.9994           0
   17475 TIP3 3190 TIP3 H1   HT     0.417000        1.0080           0
   17476 TIP3 3190 TIP3 H2   HT     0.417000        1.0080           0
   17477 TIP3 3191 TIP3 OH2  OT    -0.834000       15.9994           0
   17478 TIP3 3191 TIP3 H1   HT     0.417000        1.0080           0
   17479 TIP3 3191 TIP3 H2   HT     0.417000        1.0080           0
   17480 TIP3 3192 TIP3 OH2  OT    -0.834000       15.9994           0
   17481 TIP3 3192 TIP3 H1   HT     0.417000        1.0080           0
   17482 TIP3 3192 TIP3 H2   HT     0.417000        1.0080           0
   17483 TIP3 3193 TIP3 OH2  OT    -0.834000       15.9994           0
   17484 TIP3 3193 TIP3 H1   HT     0.417000        1.0080           0
   17485 TIP3 3193 TIP3 H2   HT     0.417000        1.0080           0
   17486 TIP3 3194 TIP3 OH2  OT    -0.834000       15.9994           0
   17487 TIP3 3194 TIP3 H1   HT     0.417000        1.0080           0
   17488 TIP3 3194 TIP3 H2   HT     0.417000        1.0080           0
   17489 TIP3 3195 TIP3 OH2  OT    -0.834000       15.9994           0
   17490 TIP3 3195 TIP3 H1   HT     0.417000        1.0080           0
   17491 TIP3 3195 TIP3 H2   HT     0.417000        1.0080           0
   17492 TIP3 3196 TIP3 OH2  OT    -0.834000       15.9994           0
   17493 TIP3 3196 TIP3 H1   HT     0.417000        1.0080           0
   17494 TIP3 3196 TIP3 H2   HT     0.417000        1.0080           0
   17495 TIP3 3197 TIP3 OH2  OT    -0.834000       15.9994           0
   17496 TIP3 3197 TIP3 H1   HT     0.417000        1.0080           0
   17497 TIP3 3197 TIP3 H2   HT     0.417000        1.0080           0
   17498 TIP3 3198 TIP3 OH2  OT    -0.834000       15.9994           0
   17499 TIP3 3198 TIP3 H1   HT     0.417000        1.0080           0
   17500 TIP3 3198 TIP3 H2   HT     0.417000        1.0080           0
   17501 TIP3 3199 TIP3 OH2  OT    -0.834000       15.9994           0
   17502 TIP3 3199 TIP3 H1   HT     0.417000        1.0080           0
   17503 TIP3 3199 TIP3 H2   HT     0.417000        1.0080           0
   17504 TIP3 3200 TIP3 OH2  OT    -0.834000       15.9994           0
   17505 TIP3 3200 TIP3 H1   HT     0.417000        1.0080           0
   17506 TIP3 3200 TIP3 H2   HT     0.417000        1.0080           0
   17507 TIP3 3201 TIP3 OH2  OT    -0.834000       15.9994           0
   17508 TIP3 3201 TIP3 H1   HT     0.417000        1.0080           0
   17509 TIP3 3201 TIP3 H2   HT     0.417000        1.0080           0
   17510 TIP3 3202 TIP3 OH2  OT    -0.834000       15.9994           0
   17511 TIP3 3202 TIP3 H1   HT     0.417000        1.0080           0
   17512 TIP3 3202 TIP3 H2   HT     0.417000        1.0080           0
   17513 TIP3 3203 TIP3 OH2  OT    -0.834000       15.9994           0
   17514 TIP3 3203 TIP3 H1   HT     0.417000        1.0080           0
   17515 TIP3 3203 TIP3 H2   HT     0.417000        1.0080           0
   17516 TIP3 3204 TIP3 OH2  OT    -0.834000       15.9994           0
   17517 TIP3 3204 TIP3 H1   HT     0.417000        1.0080           0
   17518 TIP3 3204 TIP3 H2   HT     0.417000        1.0080           0
   17519 TIP3 3205 TIP3 OH2  OT    -0.834000       15.9994           0
   17520 TIP3 3205 TIP3 H1   HT     0.417000        1.0080           0
   17521 TIP3 3205 TIP3 H2   HT     0.417000        1.0080           0
   17522 TIP3 3206 TIP3 OH2  OT    -0.834000       15.9994           0
   17523 TIP3 3206 TIP3 H1   HT     0.417000        1.0080           0
   17524 TIP3 3206 TIP3 H2   HT     0.417000        1.0080           0
   17525 TIP3 3207 TIP3 OH2  OT    -0.834000       15.9994           0
   17526 TIP3 3207 TIP3 H1   HT     0.417000        1.0080           0
   17527 TIP3 3207 TIP3 H2   HT     0.417000        1.0080           0
   17528 TIP3 3208 TIP3 OH2  OT    -0.834000       15.9994           0
   17529 TIP3 3208 TIP3 H1   HT     0.417000        1.0080           0
   17530 TIP3 3208 TIP3 H2   HT     0.417000        1.0080           0
   17531 TIP3 3209 TIP3 OH2  OT    -0.834000       15.9994           0
   17532 TIP3 3209 TIP3 H1   HT     0.417000        1.0080           0
   17533 TIP3 3209 TIP3 H2   HT     0.417000        1.0080           0
   17534 TIP3 3210 TIP3 OH2  OT    -0.834000       15.9994           0
   17535 TIP3 3210 TIP3 H1   HT     0.417000        1.0080           0
   17536 TIP3 3210 TIP3 H2   HT     0.417000        1.0080           0
   17537 TIP3 3211 TIP3 OH2  OT    -0.834000       15.9994           0
   17538 TIP3 3211 TIP3 H1   HT     0.417000        1.0080           0
   17539 TIP3 3211 TIP3 H2   HT     0.417000        1.0080           0
   17540 TIP3 3212 TIP3 OH2  OT    -0.834000       15.9994           0
   17541 TIP3 3212 TIP3 H1   HT     0.417000        1.0080           0
   17542 TIP3 3212 TIP3 H2   HT     0.417000        1.0080           0
   17543 TIP3 3213 TIP3 OH2  OT    -0.834000       15.9994           0
   17544 TIP3 3213 TIP3 H1   HT     0.417000        1.0080           0
   17545 TIP3 3213 TIP3 H2   HT     0.417000        1.0080           0
   17546 TIP3 3214 TIP3 OH2  OT    -0.834000       15.9994           0
   17547 TIP3 3214 TIP3 H1   HT     0.417000        1.0080           0
   17548 TIP3 3214 TIP3 H2   HT     0.417000        1.0080           0
   17549 TIP3 3215 TIP3 OH2  OT    -0.834000       15.9994           0
   17550 TIP3 3215 TIP3 H1   HT     0.417000        1.0080           0
   17551 TIP3 3215 TIP3 H2   HT     0.417000        1.0080           0
   17552 TIP3 3216 TIP3 OH2  OT    -0.834000       15.9994           0
   17553 TIP3 3216 TIP3 H1   HT     0.417000        1.0080           0
   17554 TIP3 3216 TIP3 H2   HT     0.417000        1.0080           0
   17555 TIP3 3217 TIP3 OH2  OT    -0.834000       15.9994           0
   17556 TIP3 3217 TIP3 H1   HT     0.417000        1.0080           0
   17557 TIP3 3217 TIP3 H2   HT     0.417000        1.0080           0
   17558 TIP3 3218 TIP3 OH2  OT    -0.834000       15.9994           0
   17559 TIP3 3218 TIP3 H1   HT     0.417000        1.0080           0
   17560 TIP3 3218 TIP3 H2   HT     0.417000        1.0080           0
   17561 TIP3 3219 TIP3 OH2  OT    -0.834000       15.9994           0
   17562 TIP3 3219 TIP3 H1   HT     0.417000        1.0080           0
   17563 TIP3 3219 TIP3 H2   HT     0.417000        1.0080           0
   17564 TIP3 3220 TIP3 OH2  OT    -0.834000       15.9994           0
   17565 TIP3 3220 TIP3 H1   HT     0.417000        1.0080           0
   17566 TIP3 3220 TIP3 H2   HT     0.417000        1.0080           0
   17567 TIP3 3221 TIP3 OH2  OT    -0.834000       15.9994           0
   17568 TIP3 3221 TIP3 H1   HT     0.417000        1.0080           0
   17569 TIP3 3221 TIP3 H2   HT     0.417000        1.0080           0
   17570 TIP3 3222 TIP3 OH2  OT    -0.834000       15.9994           0
   17571 TIP3 3222 TIP3 H1   HT     0.417000        1.0080           0
   17572 TIP3 3222 TIP3 H2   HT     0.417000        1.0080           0
   17573 TIP3 3223 TIP3 OH2  OT    -0.834000       15.9994           0
   17574 TIP3 3223 TIP3 H1   HT     0.417000        1.0080           0
   17575 TIP3 3223 TIP3 H2   HT     0.417000        1.0080           0
   17576 TIP3 3224 TIP3 OH2  OT    -0.834000       15.9994           0
   17577 TIP3 3224 TIP3 H1   HT     0.417000        1.0080           0
   17578 TIP3 3224 TIP3 H2   HT     0.417000        1.0080           0
   17579 TIP3 3225 TIP3 OH2  OT    -0.834000       15.9994           0
   17580 TIP3 3225 TIP3 H1   HT     0.417000        1.0080           0
   17581 TIP3 3225 TIP3 H2   HT     0.417000        1.0080           0
   17582 TIP3 3226 TIP3 OH2  OT    -0.834000       15.9994           0
   17583 TIP3 3226 TIP3 H1   HT     0.417000        1.0080           0
   17584 TIP3 3226 TIP3 H2   HT     0.417000        1.0080           0
   17585 TIP3 3227 TIP3 OH2  OT    -0.834000       15.9994           0
   17586 TIP3 3227 TIP3 H1   HT     0.417000        1.0080           0
   17587 TIP3 3227 TIP3 H2   HT     0.417000        1.0080           0
   17588 TIP3 3228 TIP3 OH2  OT    -0.834000       15.9994           0
   17589 TIP3 3228 TIP3 H1   HT     0.417000        1.0080           0
   17590 TIP3 3228 TIP3 H2   HT     0.417000        1.0080           0
   17591 TIP3 3229 TIP3 OH2  OT    -0.834000       15.9994           0
   17592 TIP3 3229 TIP3 H1   HT     0.417000        1.0080           0
   17593 TIP3 3229 TIP3 H2   HT     0.417000        1.0080           0
   17594 TIP3 3230 TIP3 OH2  OT    -0.834000       15.9994           0
   17595 TIP3 3230 TIP3 H1   HT     0.417000        1.0080           0
   17596 TIP3 3230 TIP3 H2   HT     0.417000        1.0080           0
   17597 TIP3 3231 TIP3 OH2  OT    -0.834000       15.9994           0
   17598 TIP3 3231 TIP3 H1   HT     0.417000        1.0080           0
   17599 TIP3 3231 TIP3 H2   HT     0.417000        1.0080           0
   17600 TIP3 3232 TIP3 OH2  OT    -0.834000       15.9994           0
   17601 TIP3 3232 TIP3 H1   HT     0.417000        1.0080           0
   17602 TIP3 3232 TIP3 H2   HT     0.417000        1.0080           0
   17603 TIP3 3233 TIP3 OH2  OT    -0.834000       15.9994           0
   17604 TIP3 3233 TIP3 H1   HT     0.417000        1.0080           0
   17605 TIP3 3233 TIP3 H2   HT     0.417000        1.0080           0
   17606 TIP3 3234 TIP3 OH2  OT    -0.834000       15.9994           0
   17607 TIP3 3234 TIP3 H1   HT     0.417000        1.0080           0
   17608 TIP3 3234 TIP3 H2   HT     0.417000        1.0080           0
   17609 TIP3 3235 TIP3 OH2  OT    -0.834000       15.9994           0
   17610 TIP3 3235 TIP3 H1   HT     0.417000        1.0080           0
   17611 TIP3 3235 TIP3 H2   HT     0.417000        1.0080           0
   17612 TIP3 3236 TIP3 OH2  OT    -0.834000       15.9994           0
   17613 TIP3 3236 TIP3 H1   HT     0.417000        1.0080           0
   17614 TIP3 3236 TIP3 H2   HT     0.417000        1.0080           0
   17615 TIP3 3237 TIP3 OH2  OT    -0.834000       15.9994           0
   17616 TIP3 3237 TIP3 H1   HT     0.417000        1.0080           0
   17617 TIP3 3237 TIP3 H2   HT     0.417000        1.0080           0
   17618 TIP3 3238 TIP3 OH2  OT    -0.834000       15.9994           0
   17619 TIP3 3238 TIP3 H1   HT     0.417000        1.0080           0
   17620 TIP3 3238 TIP3 H2   HT     0.417000        1.0080           0
   17621 TIP3 3239 TIP3 OH2  OT    -0.834000       15.9994           0
   17622 TIP3 3239 TIP3 H1   HT     0.417000        1.0080           0
   17623 TIP3 3239 TIP3 H2   HT     0.417000        1.0080           0
   17624 TIP3 3240 TIP3 OH2  OT    -0.834000       15.9994           0
   17625 TIP3 3240 TIP3 H1   HT     0.417000        1.0080           0
   17626 TIP3 3240 TIP3 H2   HT     0.417000        1.0080           0
   17627 TIP3 3241 TIP3 OH2  OT    -0.834000       15.9994           0
   17628 TIP3 3241 TIP3 H1   HT     0.417000        1.0080           0
   17629 TIP3 3241 TIP3 H2   HT     0.417000        1.0080           0
   17630 TIP3 3242 TIP3 OH2  OT    -0.834000       15.9994           0
   17631 TIP3 3242 TIP3 H1   HT     0.417000        1.0080           0
   17632 TIP3 3242 TIP3 H2   HT     0.417000        1.0080           0
   17633 TIP3 3243 TIP3 OH2  OT    -0.834000       15.9994           0
   17634 TIP3 3243 TIP3 H1   HT     0.417000        1.0080           0
   17635 TIP3 3243 TIP3 H2   HT     0.417000        1.0080           0
   17636 TIP3 3244 TIP3 OH2  OT    -0.834000       15.9994           0
   17637 TIP3 3244 TIP3 H1   HT     0.417000        1.0080           0
   17638 TIP3 3244 TIP3 H2   HT     0.417000        1.0080           0
   17639 TIP3 3245 TIP3 OH2  OT    -0.834000       15.9994           0
   17640 TIP3 3245 TIP3 H1   HT     0.417000        1.0080           0
   17641 TIP3 3245 TIP3 H2   HT     0.417000        1.0080           0
   17642 TIP3 3246 TIP3 OH2  OT    -0.834000       15.9994           0
   17643 TIP3 3246 TIP3 H1   HT     0.417000        1.0080           0
   17644 TIP3 3246 TIP3 H2   HT     0.417000        1.0080           0
   17645 TIP3 3247 TIP3 OH2  OT    -0.834000       15.9994           0
   17646 TIP3 3247 TIP3 H1   HT     0.417000        1.0080           0
   17647 TIP3 3247 TIP3 H2   HT     0.417000        1.0080           0
   17648 TIP3 3248 TIP3 OH2  OT    -0.834000       15.9994           0
   17649 TIP3 3248 TIP3 H1   HT     0.417000        1.0080           0
   17650 TIP3 3248 TIP3 H2   HT     0.417000        1.0080           0
   17651 TIP3 3249 TIP3 OH2  OT    -0.834000       15.9994           0
   17652 TIP3 3249 TIP3 H1   HT     0.417000        1.0080           0
   17653 TIP3 3249 TIP3 H2   HT     0.417000        1.0080           0
   17654 TIP3 3250 TIP3 OH2  OT    -0.834000       15.9994           0
   17655 TIP3 3250 TIP3 H1   HT     0.417000        1.0080           0
   17656 TIP3 3250 TIP3 H2   HT     0.417000        1.0080           0
   17657 TIP3 3251 TIP3 OH2  OT    -0.834000       15.9994           0
   17658 TIP3 3251 TIP3 H1   HT     0.417000        1.0080           0
   17659 TIP3 3251 TIP3 H2   HT     0.417000        1.0080           0
   17660 TIP3 3252 TIP3 OH2  OT    -0.834000       15.9994           0
   17661 TIP3 3252 TIP3 H1   HT     0.417000        1.0080           0
   17662 TIP3 3252 TIP3 H2   HT     0.417000        1.0080           0
   17663 TIP3 3253 TIP3 OH2  OT    -0.834000       15.9994           0
   17664 TIP3 3253 TIP3 H1   HT     0.417000        1.0080           0
   17665 TIP3 3253 TIP3 H2   HT     0.417000        1.0080           0
   17666 TIP3 3254 TIP3 OH2  OT    -0.834000       15.9994           0
   17667 TIP3 3254 TIP3 H1   HT     0.417000        1.0080           0
   17668 TIP3 3254 TIP3 H2   HT     0.417000        1.0080           0
   17669 TIP3 3255 TIP3 OH2  OT    -0.834000       15.9994           0
   17670 TIP3 3255 TIP3 H1   HT     0.417000        1.0080           0
   17671 TIP3 3255 TIP3 H2   HT     0.417000        1.0080           0
   17672 TIP3 3256 TIP3 OH2  OT    -0.834000       15.9994           0
   17673 TIP3 3256 TIP3 H1   HT     0.417000        1.0080           0
   17674 TIP3 3256 TIP3 H2   HT     0.417000        1.0080           0
   17675 TIP3 3257 TIP3 OH2  OT    -0.834000       15.9994           0
   17676 TIP3 3257 TIP3 H1   HT     0.417000        1.0080           0
   17677 TIP3 3257 TIP3 H2   HT     0.417000        1.0080           0
   17678 TIP3 3258 TIP3 OH2  OT    -0.834000       15.9994           0
   17679 TIP3 3258 TIP3 H1   HT     0.417000        1.0080           0
   17680 TIP3 3258 TIP3 H2   HT     0.417000        1.0080           0
   17681 TIP3 3259 TIP3 OH2  OT    -0.834000       15.9994           0
   17682 TIP3 3259 TIP3 H1   HT     0.417000        1.0080           0
   17683 TIP3 3259 TIP3 H2   HT     0.417000        1.0080           0
   17684 TIP3 3260 TIP3 OH2  OT    -0.834000       15.9994           0
   17685 TIP3 3260 TIP3 H1   HT     0.417000        1.0080           0
   17686 TIP3 3260 TIP3 H2   HT     0.417000        1.0080           0
   17687 TIP3 3261 TIP3 OH2  OT    -0.834000       15.9994           0
   17688 TIP3 3261 TIP3 H1   HT     0.417000        1.0080           0
   17689 TIP3 3261 TIP3 H2   HT     0.417000        1.0080           0
   17690 TIP3 3262 TIP3 OH2  OT    -0.834000       15.9994           0
   17691 TIP3 3262 TIP3 H1   HT     0.417000        1.0080           0
   17692 TIP3 3262 TIP3 H2   HT     0.417000        1.0080           0
   17693 TIP3 3263 TIP3 OH2  OT    -0.834000       15.9994           0
   17694 TIP3 3263 TIP3 H1   HT     0.417000        1.0080           0
   17695 TIP3 3263 TIP3 H2   HT     0.417000        1.0080           0
   17696 TIP3 3264 TIP3 OH2  OT    -0.834000       15.9994           0
   17697 TIP3 3264 TIP3 H1   HT     0.417000        1.0080           0
   17698 TIP3 3264 TIP3 H2   HT     0.417000        1.0080           0
   17699 TIP3 3265 TIP3 OH2  OT    -0.834000       15.9994           0
   17700 TIP3 3265 TIP3 H1   HT     0.417000        1.0080           0
   17701 TIP3 3265 TIP3 H2   HT     0.417000        1.0080           0
   17702 TIP3 3266 TIP3 OH2  OT    -0.834000       15.9994           0
   17703 TIP3 3266 TIP3 H1   HT     0.417000        1.0080           0
   17704 TIP3 3266 TIP3 H2   HT     0.417000        1.0080           0
   17705 TIP3 3267 TIP3 OH2  OT    -0.834000       15.9994           0
   17706 TIP3 3267 TIP3 H1   HT     0.417000        1.0080           0
   17707 TIP3 3267 TIP3 H2   HT     0.417000        1.0080           0
   17708 TIP3 3268 TIP3 OH2  OT    -0.834000       15.9994           0
   17709 TIP3 3268 TIP3 H1   HT     0.417000        1.0080           0
   17710 TIP3 3268 TIP3 H2   HT     0.417000        1.0080           0
   17711 TIP3 3269 TIP3 OH2  OT    -0.834000       15.9994           0
   17712 TIP3 3269 TIP3 H1   HT     0.417000        1.0080           0
   17713 TIP3 3269 TIP3 H2   HT     0.417000        1.0080           0
   17714 TIP3 3270 TIP3 OH2  OT    -0.834000       15.9994           0
   17715 TIP3 3270 TIP3 H1   HT     0.417000        1.0080           0
   17716 TIP3 3270 TIP3 H2   HT     0.417000        1.0080           0
   17717 TIP3 3271 TIP3 OH2  OT    -0.834000       15.9994           0
   17718 TIP3 3271 TIP3 H1   HT     0.417000        1.0080           0
   17719 TIP3 3271 TIP3 H2   HT     0.417000        1.0080           0
   17720 TIP3 3272 TIP3 OH2  OT    -0.834000       15.9994           0
   17721 TIP3 3272 TIP3 H1   HT     0.417000        1.0080           0
   17722 TIP3 3272 TIP3 H2   HT     0.417000        1.0080           0
   17723 TIP3 3273 TIP3 OH2  OT    -0.834000       15.9994           0
   17724 TIP3 3273 TIP3 H1   HT     0.417000        1.0080           0
   17725 TIP3 3273 TIP3 H2   HT     0.417000        1.0080           0
   17726 TIP3 3274 TIP3 OH2  OT    -0.834000       15.9994           0
   17727 TIP3 3274 TIP3 H1   HT     0.417000        1.0080           0
   17728 TIP3 3274 TIP3 H2   HT     0.417000        1.0080           0
   17729 TIP3 3275 TIP3 OH2  OT    -0.834000       15.9994           0
   17730 TIP3 3275 TIP3 H1   HT     0.417000        1.0080           0
   17731 TIP3 3275 TIP3 H2   HT     0.417000        1.0080           0
   17732 TIP3 3276 TIP3 OH2  OT    -0.834000       15.9994           0
   17733 TIP3 3276 TIP3 H1   HT     0.417000        1.0080           0
   17734 TIP3 3276 TIP3 H2   HT     0.417000        1.0080           0
   17735 TIP3 3277 TIP3 OH2  OT    -0.834000       15.9994           0
   17736 TIP3 3277 TIP3 H1   HT     0.417000        1.0080           0
   17737 TIP3 3277 TIP3 H2   HT     0.417000        1.0080           0
   17738 TIP3 3278 TIP3 OH2  OT    -0.834000       15.9994           0
   17739 TIP3 3278 TIP3 H1   HT     0.417000        1.0080           0
   17740 TIP3 3278 TIP3 H2   HT     0.417000        1.0080           0
   17741 TIP3 3279 TIP3 OH2  OT    -0.834000       15.9994           0
   17742 TIP3 3279 TIP3 H1   HT     0.417000        1.0080           0
   17743 TIP3 3279 TIP3 H2   HT     0.417000        1.0080           0
   17744 TIP3 3280 TIP3 OH2  OT    -0.834000       15.9994           0
   17745 TIP3 3280 TIP3 H1   HT     0.417000        1.0080           0
   17746 TIP3 3280 TIP3 H2   HT     0.417000        1.0080           0
   17747 TIP3 3281 TIP3 OH2  OT    -0.834000       15.9994           0
   17748 TIP3 3281 TIP3 H1   HT     0.417000        1.0080           0
   17749 TIP3 3281 TIP3 H2   HT     0.417000        1.0080           0
   17750 TIP3 3282 TIP3 OH2  OT    -0.834000       15.9994           0
   17751 TIP3 3282 TIP3 H1   HT     0.417000        1.0080           0
   17752 TIP3 3282 TIP3 H2   HT     0.417000        1.0080           0
   17753 TIP3 3283 TIP3 OH2  OT    -0.834000       15.9994           0
   17754 TIP3 3283 TIP3 H1   HT     0.417000        1.0080           0
   17755 TIP3 3283 TIP3 H2   HT     0.417000        1.0080           0
   17756 TIP3 3284 TIP3 OH2  OT    -0.834000       15.9994           0
   17757 TIP3 3284 TIP3 H1   HT     0.417000        1.0080           0
   17758 TIP3 3284 TIP3 H2   HT     0.417000        1.0080           0
   17759 TIP3 3285 TIP3 OH2  OT    -0.834000       15.9994           0
   17760 TIP3 3285 TIP3 H1   HT     0.417000        1.0080           0
   17761 TIP3 3285 TIP3 H2   HT     0.417000        1.0080           0
   17762 TIP3 3286 TIP3 OH2  OT    -0.834000       15.9994           0
   17763 TIP3 3286 TIP3 H1   HT     0.417000        1.0080           0
   17764 TIP3 3286 TIP3 H2   HT     0.417000        1.0080           0
   17765 TIP3 3287 TIP3 OH2  OT    -0.834000       15.9994           0
   17766 TIP3 3287 TIP3 H1   HT     0.417000        1.0080           0
   17767 TIP3 3287 TIP3 H2   HT     0.417000        1.0080           0
   17768 TIP3 3288 TIP3 OH2  OT    -0.834000       15.9994           0
   17769 TIP3 3288 TIP3 H1   HT     0.417000        1.0080           0
   17770 TIP3 3288 TIP3 H2   HT     0.417000        1.0080           0
   17771 TIP3 3289 TIP3 OH2  OT    -0.834000       15.9994           0
   17772 TIP3 3289 TIP3 H1   HT     0.417000        1.0080           0
   17773 TIP3 3289 TIP3 H2   HT     0.417000        1.0080           0
   17774 TIP3 3290 TIP3 OH2  OT    -0.834000       15.9994           0
   17775 TIP3 3290 TIP3 H1   HT     0.417000        1.0080           0
   17776 TIP3 3290 TIP3 H2   HT     0.417000        1.0080           0
   17777 TIP3 3291 TIP3 OH2  OT    -0.834000       15.9994           0
   17778 TIP3 3291 TIP3 H1   HT     0.417000        1.0080           0
   17779 TIP3 3291 TIP3 H2   HT     0.417000        1.0080           0
   17780 TIP3 3292 TIP3 OH2  OT    -0.834000       15.9994           0
   17781 TIP3 3292 TIP3 H1   HT     0.417000        1.0080           0
   17782 TIP3 3292 TIP3 H2   HT     0.417000        1.0080           0
   17783 TIP3 3293 TIP3 OH2  OT    -0.834000       15.9994           0
   17784 TIP3 3293 TIP3 H1   HT     0.417000        1.0080           0
   17785 TIP3 3293 TIP3 H2   HT     0.417000        1.0080           0
   17786 TIP3 3294 TIP3 OH2  OT    -0.834000       15.9994           0
   17787 TIP3 3294 TIP3 H1   HT     0.417000        1.0080           0
   17788 TIP3 3294 TIP3 H2   HT     0.417000        1.0080           0
   17789 TIP3 3295 TIP3 OH2  OT    -0.834000       15.9994           0
   17790 TIP3 3295 TIP3 H1   HT     0.417000        1.0080           0
   17791 TIP3 3295 TIP3 H2   HT     0.417000        1.0080           0
   17792 TIP3 3296 TIP3 OH2  OT    -0.834000       15.9994           0
   17793 TIP3 3296 TIP3 H1   HT     0.417000        1.0080           0
   17794 TIP3 3296 TIP3 H2   HT     0.417000        1.0080           0
   17795 TIP3 3297 TIP3 OH2  OT    -0.834000       15.9994           0
   17796 TIP3 3297 TIP3 H1   HT     0.417000        1.0080           0
   17797 TIP3 3297 TIP3 H2   HT     0.417000        1.0080           0
   17798 TIP3 3298 TIP3 OH2  OT    -0.834000       15.9994           0
   17799 TIP3 3298 TIP3 H1   HT     0.417000        1.0080           0
   17800 TIP3 3298 TIP3 H2   HT     0.417000        1.0080           0
   17801 TIP3 3299 TIP3 OH2  OT    -0.834000       15.9994           0
   17802 TIP3 3299 TIP3 H1   HT     0.417000        1.0080           0
   17803 TIP3 3299 TIP3 H2   HT     0.417000        1.0080           0
   17804 TIP3 3300 TIP3 OH2  OT    -0.834000       15.9994           0
   17805 TIP3 3300 TIP3 H1   HT     0.417000        1.0080           0
   17806 TIP3 3300 TIP3 H2   HT     0.417000        1.0080           0
   17807 TIP3 3301 TIP3 OH2  OT    -0.834000       15.9994           0
   17808 TIP3 3301 TIP3 H1   HT     0.417000        1.0080           0
   17809 TIP3 3301 TIP3 H2   HT     0.417000        1.0080           0
   17810 TIP3 3302 TIP3 OH2  OT    -0.834000       15.9994           0
   17811 TIP3 3302 TIP3 H1   HT     0.417000        1.0080           0
   17812 TIP3 3302 TIP3 H2   HT     0.417000        1.0080           0
   17813 TIP3 3303 TIP3 OH2  OT    -0.834000       15.9994           0
   17814 TIP3 3303 TIP3 H1   HT     0.417000        1.0080           0
   17815 TIP3 3303 TIP3 H2   HT     0.417000        1.0080           0
   17816 TIP3 3304 TIP3 OH2  OT    -0.834000       15.9994           0
   17817 TIP3 3304 TIP3 H1   HT     0.417000        1.0080           0
   17818 TIP3 3304 TIP3 H2   HT     0.417000        1.0080           0
   17819 TIP3 3305 TIP3 OH2  OT    -0.834000       15.9994           0
   17820 TIP3 3305 TIP3 H1   HT     0.417000        1.0080           0
   17821 TIP3 3305 TIP3 H2   HT     0.417000        1.0080           0
   17822 TIP3 3306 TIP3 OH2  OT    -0.834000       15.9994           0
   17823 TIP3 3306 TIP3 H1   HT     0.417000        1.0080           0
   17824 TIP3 3306 TIP3 H2   HT     0.417000        1.0080           0
   17825 TIP3 3307 TIP3 OH2  OT    -0.834000       15.9994           0
   17826 TIP3 3307 TIP3 H1   HT     0.417000        1.0080           0
   17827 TIP3 3307 TIP3 H2   HT     0.417000        1.0080           0
   17828 TIP3 3308 TIP3 OH2  OT    -0.834000       15.9994           0
   17829 TIP3 3308 TIP3 H1   HT     0.417000        1.0080           0
   17830 TIP3 3308 TIP3 H2   HT     0.417000        1.0080           0
   17831 TIP3 3309 TIP3 OH2  OT    -0.834000       15.9994           0
   17832 TIP3 3309 TIP3 H1   HT     0.417000        1.0080           0
   17833 TIP3 3309 TIP3 H2   HT     0.417000        1.0080           0
   17834 TIP3 3310 TIP3 OH2  OT    -0.834000       15.9994           0
   17835 TIP3 3310 TIP3 H1   HT     0.417000        1.0080           0
   17836 TIP3 3310 TIP3 H2   HT     0.417000        1.0080           0
   17837 TIP3 3311 TIP3 OH2  OT    -0.834000       15.9994           0
   17838 TIP3 3311 TIP3 H1   HT     0.417000        1.0080           0
   17839 TIP3 3311 TIP3 H2   HT     0.417000        1.0080           0
   17840 TIP3 3312 TIP3 OH2  OT    -0.834000       15.9994           0
   17841 TIP3 3312 TIP3 H1   HT     0.417000        1.0080           0
   17842 TIP3 3312 TIP3 H2   HT     0.417000        1.0080           0
   17843 TIP3 3313 TIP3 OH2  OT    -0.834000       15.9994           0
   17844 TIP3 3313 TIP3 H1   HT     0.417000        1.0080           0
   17845 TIP3 3313 TIP3 H2   HT     0.417000        1.0080           0
   17846 TIP3 3314 TIP3 OH2  OT    -0.834000       15.9994           0
   17847 TIP3 3314 TIP3 H1   HT     0.417000        1.0080           0
   17848 TIP3 3314 TIP3 H2   HT     0.417000        1.0080           0
   17849 TIP3 3315 TIP3 OH2  OT    -0.834000       15.9994           0
   17850 TIP3 3315 TIP3 H1   HT     0.417000        1.0080           0
   17851 TIP3 3315 TIP3 H2   HT     0.417000        1.0080           0
   17852 TIP3 3316 TIP3 OH2  OT    -0.834000       15.9994           0
   17853 TIP3 3316 TIP3 H1   HT     0.417000        1.0080           0
   17854 TIP3 3316 TIP3 H2   HT     0.417000        1.0080           0
   17855 TIP3 3317 TIP3 OH2  OT    -0.834000       15.9994           0
   17856 TIP3 3317 TIP3 H1   HT     0.417000        1.0080           0
   17857 TIP3 3317 TIP3 H2   HT     0.417000        1.0080           0
   17858 TIP3 3318 TIP3 OH2  OT    -0.834000       15.9994           0
   17859 TIP3 3318 TIP3 H1   HT     0.417000        1.0080           0
   17860 TIP3 3318 TIP3 H2   HT     0.417000        1.0080           0
   17861 TIP3 3319 TIP3 OH2  OT    -0.834000       15.9994           0
   17862 TIP3 3319 TIP3 H1   HT     0.417000        1.0080           0
   17863 TIP3 3319 TIP3 H2   HT     0.417000        1.0080           0
   17864 TIP3 3320 TIP3 OH2  OT    -0.834000       15.9994           0
   17865 TIP3 3320 TIP3 H1   HT     0.417000        1.0080           0
   17866 TIP3 3320 TIP3 H2   HT     0.417000        1.0080           0
   17867 TIP3 3321 TIP3 OH2  OT    -0.834000       15.9994           0
   17868 TIP3 3321 TIP3 H1   HT     0.417000        1.0080           0
   17869 TIP3 3321 TIP3 H2   HT     0.417000        1.0080           0
   17870 TIP3 3322 TIP3 OH2  OT    -0.834000       15.9994           0
   17871 TIP3 3322 TIP3 H1   HT     0.417000        1.0080           0
   17872 TIP3 3322 TIP3 H2   HT     0.417000        1.0080           0
   17873 TIP3 3323 TIP3 OH2  OT    -0.834000       15.9994           0
   17874 TIP3 3323 TIP3 H1   HT     0.417000        1.0080           0
   17875 TIP3 3323 TIP3 H2   HT     0.417000        1.0080           0
   17876 TIP3 3324 TIP3 OH2  OT    -0.834000       15.9994           0
   17877 TIP3 3324 TIP3 H1   HT     0.417000        1.0080           0
   17878 TIP3 3324 TIP3 H2   HT     0.417000        1.0080           0
   17879 TIP3 3325 TIP3 OH2  OT    -0.834000       15.9994           0
   17880 TIP3 3325 TIP3 H1   HT     0.417000        1.0080           0
   17881 TIP3 3325 TIP3 H2   HT     0.417000        1.0080           0
   17882 TIP3 3326 TIP3 OH2  OT    -0.834000       15.9994           0
   17883 TIP3 3326 TIP3 H1   HT     0.417000        1.0080           0
   17884 TIP3 3326 TIP3 H2   HT     0.417000        1.0080           0
   17885 TIP3 3327 TIP3 OH2  OT    -0.834000       15.9994           0
   17886 TIP3 3327 TIP3 H1   HT     0.417000        1.0080           0
   17887 TIP3 3327 TIP3 H2   HT     0.417000        1.0080           0
   17888 TIP3 3328 TIP3 OH2  OT    -0.834000       15.9994           0
   17889 TIP3 3328 TIP3 H1   HT     0.417000        1.0080           0
   17890 TIP3 3328 TIP3 H2   HT     0.417000        1.0080           0
   17891 TIP3 3329 TIP3 OH2  OT    -0.834000       15.9994           0
   17892 TIP3 3329 TIP3 H1   HT     0.417000        1.0080           0
   17893 TIP3 3329 TIP3 H2   HT     0.417000        1.0080           0
   17894 TIP3 3330 TIP3 OH2  OT    -0.834000       15.9994           0
   17895 TIP3 3330 TIP3 H1   HT     0.417000        1.0080           0
   17896 TIP3 3330 TIP3 H2   HT     0.417000        1.0080           0
   17897 TIP3 3331 TIP3 OH2  OT    -0.834000       15.9994           0
   17898 TIP3 3331 TIP3 H1   HT     0.417000        1.0080           0
   17899 TIP3 3331 TIP3 H2   HT     0.417000        1.0080           0
   17900 TIP3 3332 TIP3 OH2  OT    -0.834000       15.9994           0
   17901 TIP3 3332 TIP3 H1   HT     0.417000        1.0080           0
   17902 TIP3 3332 TIP3 H2   HT     0.417000        1.0080           0
   17903 TIP3 3333 TIP3 OH2  OT    -0.834000       15.9994           0
   17904 TIP3 3333 TIP3 H1   HT     0.417000        1.0080           0
   17905 TIP3 3333 TIP3 H2   HT     0.417000        1.0080           0
   17906 TIP3 3334 TIP3 OH2  OT    -0.834000       15.9994           0
   17907 TIP3 3334 TIP3 H1   HT     0.417000        1.0080           0
   17908 TIP3 3334 TIP3 H2   HT     0.417000        1.0080           0
   17909 TIP3 3335 TIP3 OH2  OT    -0.834000       15.9994           0
   17910 TIP3 3335 TIP3 H1   HT     0.417000        1.0080           0
   17911 TIP3 3335 TIP3 H2   HT     0.417000        1.0080           0
   17912 TIP3 3336 TIP3 OH2  OT    -0.834000       15.9994           0
   17913 TIP3 3336 TIP3 H1   HT     0.417000        1.0080           0
   17914 TIP3 3336 TIP3 H2   HT     0.417000        1.0080           0
   17915 TIP3 3337 TIP3 OH2  OT    -0.834000       15.9994           0
   17916 TIP3 3337 TIP3 H1   HT     0.417000        1.0080           0
   17917 TIP3 3337 TIP3 H2   HT     0.417000        1.0080           0
   17918 TIP3 3338 TIP3 OH2  OT    -0.834000       15.9994           0
   17919 TIP3 3338 TIP3 H1   HT     0.417000        1.0080           0
   17920 TIP3 3338 TIP3 H2   HT     0.417000        1.0080           0
   17921 TIP3 3339 TIP3 OH2  OT    -0.834000       15.9994           0
   17922 TIP3 3339 TIP3 H1   HT     0.417000        1.0080           0
   17923 TIP3 3339 TIP3 H2   HT     0.417000        1.0080           0
   17924 TIP3 3340 TIP3 OH2  OT    -0.834000       15.9994           0
   17925 TIP3 3340 TIP3 H1   HT     0.417000        1.0080           0
   17926 TIP3 3340 TIP3 H2   HT     0.417000        1.0080           0
   17927 TIP3 3341 TIP3 OH2  OT    -0.834000       15.9994           0
   17928 TIP3 3341 TIP3 H1   HT     0.417000        1.0080           0
   17929 TIP3 3341 TIP3 H2   HT     0.417000        1.0080           0
   17930 TIP3 3342 TIP3 OH2  OT    -0.834000       15.9994           0
   17931 TIP3 3342 TIP3 H1   HT     0.417000        1.0080           0
   17932 TIP3 3342 TIP3 H2   HT     0.417000        1.0080           0
   17933 TIP3 3343 TIP3 OH2  OT    -0.834000       15.9994           0
   17934 TIP3 3343 TIP3 H1   HT     0.417000        1.0080           0
   17935 TIP3 3343 TIP3 H2   HT     0.417000        1.0080           0
   17936 TIP3 3344 TIP3 OH2  OT    -0.834000       15.9994           0
   17937 TIP3 3344 TIP3 H1   HT     0.417000        1.0080           0
   17938 TIP3 3344 TIP3 H2   HT     0.417000        1.0080           0
   17939 TIP3 3345 TIP3 OH2  OT    -0.834000       15.9994           0
   17940 TIP3 3345 TIP3 H1   HT     0.417000        1.0080           0
   17941 TIP3 3345 TIP3 H2   HT     0.417000        1.0080           0
   17942 TIP3 3346 TIP3 OH2  OT    -0.834000       15.9994           0
   17943 TIP3 3346 TIP3 H1   HT     0.417000        1.0080           0
   17944 TIP3 3346 TIP3 H2   HT     0.417000        1.0080           0
   17945 TIP3 3347 TIP3 OH2  OT    -0.834000       15.9994           0
   17946 TIP3 3347 TIP3 H1   HT     0.417000        1.0080           0
   17947 TIP3 3347 TIP3 H2   HT     0.417000        1.0080           0
   17948 TIP3 3348 TIP3 OH2  OT    -0.834000       15.9994           0
   17949 TIP3 3348 TIP3 H1   HT     0.417000        1.0080           0
   17950 TIP3 3348 TIP3 H2   HT     0.417000        1.0080           0
   17951 TIP3 3349 TIP3 OH2  OT    -0.834000       15.9994           0
   17952 TIP3 3349 TIP3 H1   HT     0.417000        1.0080           0
   17953 TIP3 3349 TIP3 H2   HT     0.417000        1.0080           0
   17954 TIP3 3350 TIP3 OH2  OT    -0.834000       15.9994           0
   17955 TIP3 3350 TIP3 H1   HT     0.417000        1.0080           0
   17956 TIP3 3350 TIP3 H2   HT     0.417000        1.0080           0
   17957 TIP3 3351 TIP3 OH2  OT    -0.834000       15.9994           0
   17958 TIP3 3351 TIP3 H1   HT     0.417000        1.0080           0
   17959 TIP3 3351 TIP3 H2   HT     0.417000        1.0080           0
   17960 TIP3 3352 TIP3 OH2  OT    -0.834000       15.9994           0
   17961 TIP3 3352 TIP3 H1   HT     0.417000        1.0080           0
   17962 TIP3 3352 TIP3 H2   HT     0.417000        1.0080           0
   17963 TIP3 3353 TIP3 OH2  OT    -0.834000       15.9994           0
   17964 TIP3 3353 TIP3 H1   HT     0.417000        1.0080           0
   17965 TIP3 3353 TIP3 H2   HT     0.417000        1.0080           0
   17966 TIP3 3354 TIP3 OH2  OT    -0.834000       15.9994           0
   17967 TIP3 3354 TIP3 H1   HT     0.417000        1.0080           0
   17968 TIP3 3354 TIP3 H2   HT     0.417000        1.0080           0
   17969 TIP3 3355 TIP3 OH2  OT    -0.834000       15.9994           0
   17970 TIP3 3355 TIP3 H1   HT     0.417000        1.0080           0
   17971 TIP3 3355 TIP3 H2   HT     0.417000        1.0080           0
   17972 TIP3 3356 TIP3 OH2  OT    -0.834000       15.9994           0
   17973 TIP3 3356 TIP3 H1   HT     0.417000        1.0080           0
   17974 TIP3 3356 TIP3 H2   HT     0.417000        1.0080           0
   17975 TIP3 3357 TIP3 OH2  OT    -0.834000       15.9994           0
   17976 TIP3 3357 TIP3 H1   HT     0.417000        1.0080           0
   17977 TIP3 3357 TIP3 H2   HT     0.417000        1.0080           0
   17978 TIP3 3358 TIP3 OH2  OT    -0.834000       15.9994           0
   17979 TIP3 3358 TIP3 H1   HT     0.417000        1.0080           0
   17980 TIP3 3358 TIP3 H2   HT     0.417000        1.0080           0
   17981 TIP3 3359 TIP3 OH2  OT    -0.834000       15.9994           0
   17982 TIP3 3359 TIP3 H1   HT     0.417000        1.0080           0
   17983 TIP3 3359 TIP3 H2   HT     0.417000        1.0080           0
   17984 TIP3 3360 TIP3 OH2  OT    -0.834000       15.9994           0
   17985 TIP3 3360 TIP3 H1   HT     0.417000        1.0080           0
   17986 TIP3 3360 TIP3 H2   HT     0.417000        1.0080           0
   17987 TIP3 3361 TIP3 OH2  OT    -0.834000       15.9994           0
   17988 TIP3 3361 TIP3 H1   HT     0.417000        1.0080           0
   17989 TIP3 3361 TIP3 H2   HT     0.417000        1.0080           0
   17990 TIP3 3362 TIP3 OH2  OT    -0.834000       15.9994           0
   17991 TIP3 3362 TIP3 H1   HT     0.417000        1.0080           0
   17992 TIP3 3362 TIP3 H2   HT     0.417000        1.0080           0
   17993 TIP3 3363 TIP3 OH2  OT    -0.834000       15.9994           0
   17994 TIP3 3363 TIP3 H1   HT     0.417000        1.0080           0
   17995 TIP3 3363 TIP3 H2   HT     0.417000        1.0080           0
   17996 TIP3 3364 TIP3 OH2  OT    -0.834000       15.9994           0
   17997 TIP3 3364 TIP3 H1   HT     0.417000        1.0080           0
   17998 TIP3 3364 TIP3 H2   HT     0.417000        1.0080           0
   17999 TIP3 3365 TIP3 OH2  OT    -0.834000       15.9994           0
   18000 TIP3 3365 TIP3 H1   HT     0.417000        1.0080           0
   18001 TIP3 3365 TIP3 H2   HT     0.417000        1.0080           0
   18002 TIP3 3366 TIP3 OH2  OT    -0.834000       15.9994           0
   18003 TIP3 3366 TIP3 H1   HT     0.417000        1.0080           0
   18004 TIP3 3366 TIP3 H2   HT     0.417000        1.0080           0
   18005 TIP3 3367 TIP3 OH2  OT    -0.834000       15.9994           0
   18006 TIP3 3367 TIP3 H1   HT     0.417000        1.0080           0
   18007 TIP3 3367 TIP3 H2   HT     0.417000        1.0080           0
   18008 TIP3 3368 TIP3 OH2  OT    -0.834000       15.9994           0
   18009 TIP3 3368 TIP3 H1   HT     0.417000        1.0080           0
   18010 TIP3 3368 TIP3 H2   HT     0.417000        1.0080           0
   18011 TIP3 3369 TIP3 OH2  OT    -0.834000       15.9994           0
   18012 TIP3 3369 TIP3 H1   HT     0.417000        1.0080           0
   18013 TIP3 3369 TIP3 H2   HT     0.417000        1.0080           0
   18014 TIP3 3370 TIP3 OH2  OT    -0.834000       15.9994           0
   18015 TIP3 3370 TIP3 H1   HT     0.417000        1.0080           0
   18016 TIP3 3370 TIP3 H2   HT     0.417000        1.0080           0
   18017 TIP3 3371 TIP3 OH2  OT    -0.834000       15.9994           0
   18018 TIP3 3371 TIP3 H1   HT     0.417000        1.0080           0
   18019 TIP3 3371 TIP3 H2   HT     0.417000        1.0080           0
   18020 TIP3 3372 TIP3 OH2  OT    -0.834000       15.9994           0
   18021 TIP3 3372 TIP3 H1   HT     0.417000        1.0080           0
   18022 TIP3 3372 TIP3 H2   HT     0.417000        1.0080           0
   18023 TIP3 3373 TIP3 OH2  OT    -0.834000       15.9994           0
   18024 TIP3 3373 TIP3 H1   HT     0.417000        1.0080           0
   18025 TIP3 3373 TIP3 H2   HT     0.417000        1.0080           0
   18026 TIP3 3374 TIP3 OH2  OT    -0.834000       15.9994           0
   18027 TIP3 3374 TIP3 H1   HT     0.417000        1.0080           0
   18028 TIP3 3374 TIP3 H2   HT     0.417000        1.0080           0
   18029 TIP3 3375 TIP3 OH2  OT    -0.834000       15.9994           0
   18030 TIP3 3375 TIP3 H1   HT     0.417000        1.0080           0
   18031 TIP3 3375 TIP3 H2   HT     0.417000        1.0080           0
   18032 TIP3 3376 TIP3 OH2  OT    -0.834000       15.9994           0
   18033 TIP3 3376 TIP3 H1   HT     0.417000        1.0080           0
   18034 TIP3 3376 TIP3 H2   HT     0.417000        1.0080           0
   18035 TIP3 3377 TIP3 OH2  OT    -0.834000       15.9994           0
   18036 TIP3 3377 TIP3 H1   HT     0.417000        1.0080           0
   18037 TIP3 3377 TIP3 H2   HT     0.417000        1.0080           0
   18038 TIP3 3378 TIP3 OH2  OT    -0.834000       15.9994           0
   18039 TIP3 3378 TIP3 H1   HT     0.417000        1.0080           0
   18040 TIP3 3378 TIP3 H2   HT     0.417000        1.0080           0
   18041 TIP3 3379 TIP3 OH2  OT    -0.834000       15.9994           0
   18042 TIP3 3379 TIP3 H1   HT     0.417000        1.0080           0
   18043 TIP3 3379 TIP3 H2   HT     0.417000        1.0080           0
   18044 TIP3 3380 TIP3 OH2  OT    -0.834000       15.9994           0
   18045 TIP3 3380 TIP3 H1   HT     0.417000        1.0080           0
   18046 TIP3 3380 TIP3 H2   HT     0.417000        1.0080           0
   18047 TIP3 3381 TIP3 OH2  OT    -0.834000       15.9994           0
   18048 TIP3 3381 TIP3 H1   HT     0.417000        1.0080           0
   18049 TIP3 3381 TIP3 H2   HT     0.417000        1.0080           0
   18050 TIP3 3382 TIP3 OH2  OT    -0.834000       15.9994           0
   18051 TIP3 3382 TIP3 H1   HT     0.417000        1.0080           0
   18052 TIP3 3382 TIP3 H2   HT     0.417000        1.0080           0
   18053 TIP3 3383 TIP3 OH2  OT    -0.834000       15.9994           0
   18054 TIP3 3383 TIP3 H1   HT     0.417000        1.0080           0
   18055 TIP3 3383 TIP3 H2   HT     0.417000        1.0080           0
   18056 TIP3 3384 TIP3 OH2  OT    -0.834000       15.9994           0
   18057 TIP3 3384 TIP3 H1   HT     0.417000        1.0080           0
   18058 TIP3 3384 TIP3 H2   HT     0.417000        1.0080           0
   18059 TIP3 3385 TIP3 OH2  OT    -0.834000       15.9994           0
   18060 TIP3 3385 TIP3 H1   HT     0.417000        1.0080           0
   18061 TIP3 3385 TIP3 H2   HT     0.417000        1.0080           0
   18062 TIP3 3386 TIP3 OH2  OT    -0.834000       15.9994           0
   18063 TIP3 3386 TIP3 H1   HT     0.417000        1.0080           0
   18064 TIP3 3386 TIP3 H2   HT     0.417000        1.0080           0
   18065 TIP3 3387 TIP3 OH2  OT    -0.834000       15.9994           0
   18066 TIP3 3387 TIP3 H1   HT     0.417000        1.0080           0
   18067 TIP3 3387 TIP3 H2   HT     0.417000        1.0080           0
   18068 TIP3 3388 TIP3 OH2  OT    -0.834000       15.9994           0
   18069 TIP3 3388 TIP3 H1   HT     0.417000        1.0080           0
   18070 TIP3 3388 TIP3 H2   HT     0.417000        1.0080           0
   18071 TIP3 3389 TIP3 OH2  OT    -0.834000       15.9994           0
   18072 TIP3 3389 TIP3 H1   HT     0.417000        1.0080           0
   18073 TIP3 3389 TIP3 H2   HT     0.417000        1.0080           0
   18074 TIP3 3390 TIP3 OH2  OT    -0.834000       15.9994           0
   18075 TIP3 3390 TIP3 H1   HT     0.417000        1.0080           0
   18076 TIP3 3390 TIP3 H2   HT     0.417000        1.0080           0
   18077 TIP3 3391 TIP3 OH2  OT    -0.834000       15.9994           0
   18078 TIP3 3391 TIP3 H1   HT     0.417000        1.0080           0
   18079 TIP3 3391 TIP3 H2   HT     0.417000        1.0080           0
   18080 TIP3 3392 TIP3 OH2  OT    -0.834000       15.9994           0
   18081 TIP3 3392 TIP3 H1   HT     0.417000        1.0080           0
   18082 TIP3 3392 TIP3 H2   HT     0.417000        1.0080           0
   18083 TIP3 3393 TIP3 OH2  OT    -0.834000       15.9994           0
   18084 TIP3 3393 TIP3 H1   HT     0.417000        1.0080           0
   18085 TIP3 3393 TIP3 H2   HT     0.417000        1.0080           0
   18086 TIP3 3394 TIP3 OH2  OT    -0.834000       15.9994           0
   18087 TIP3 3394 TIP3 H1   HT     0.417000        1.0080           0
   18088 TIP3 3394 TIP3 H2   HT     0.417000        1.0080           0
   18089 TIP3 3395 TIP3 OH2  OT    -0.834000       15.9994           0
   18090 TIP3 3395 TIP3 H1   HT     0.417000        1.0080           0
   18091 TIP3 3395 TIP3 H2   HT     0.417000        1.0080           0
   18092 TIP3 3396 TIP3 OH2  OT    -0.834000       15.9994           0
   18093 TIP3 3396 TIP3 H1   HT     0.417000        1.0080           0
   18094 TIP3 3396 TIP3 H2   HT     0.417000        1.0080           0
   18095 TIP3 3397 TIP3 OH2  OT    -0.834000       15.9994           0
   18096 TIP3 3397 TIP3 H1   HT     0.417000        1.0080           0
   18097 TIP3 3397 TIP3 H2   HT     0.417000        1.0080           0
   18098 TIP3 3398 TIP3 OH2  OT    -0.834000       15.9994           0
   18099 TIP3 3398 TIP3 H1   HT     0.417000        1.0080           0
   18100 TIP3 3398 TIP3 H2   HT     0.417000        1.0080           0
   18101 TIP3 3399 TIP3 OH2  OT    -0.834000       15.9994           0
   18102 TIP3 3399 TIP3 H1   HT     0.417000        1.0080           0
   18103 TIP3 3399 TIP3 H2   HT     0.417000        1.0080           0
   18104 TIP3 3400 TIP3 OH2  OT    -0.834000       15.9994           0
   18105 TIP3 3400 TIP3 H1   HT     0.417000        1.0080           0
   18106 TIP3 3400 TIP3 H2   HT     0.417000        1.0080           0
   18107 TIP3 3401 TIP3 OH2  OT    -0.834000       15.9994           0
   18108 TIP3 3401 TIP3 H1   HT     0.417000        1.0080           0
   18109 TIP3 3401 TIP3 H2   HT     0.417000        1.0080           0
   18110 TIP3 3402 TIP3 OH2  OT    -0.834000       15.9994           0
   18111 TIP3 3402 TIP3 H1   HT     0.417000        1.0080           0
   18112 TIP3 3402 TIP3 H2   HT     0.417000        1.0080           0
   18113 TIP3 3403 TIP3 OH2  OT    -0.834000       15.9994           0
   18114 TIP3 3403 TIP3 H1   HT     0.417000        1.0080           0
   18115 TIP3 3403 TIP3 H2   HT     0.417000        1.0080           0
   18116 TIP3 3404 TIP3 OH2  OT    -0.834000       15.9994           0
   18117 TIP3 3404 TIP3 H1   HT     0.417000        1.0080           0
   18118 TIP3 3404 TIP3 H2   HT     0.417000        1.0080           0
   18119 TIP3 3405 TIP3 OH2  OT    -0.834000       15.9994           0
   18120 TIP3 3405 TIP3 H1   HT     0.417000        1.0080           0
   18121 TIP3 3405 TIP3 H2   HT     0.417000        1.0080           0
   18122 TIP3 3406 TIP3 OH2  OT    -0.834000       15.9994           0
   18123 TIP3 3406 TIP3 H1   HT     0.417000        1.0080           0
   18124 TIP3 3406 TIP3 H2   HT     0.417000        1.0080           0
   18125 TIP3 3407 TIP3 OH2  OT    -0.834000       15.9994           0
   18126 TIP3 3407 TIP3 H1   HT     0.417000        1.0080           0
   18127 TIP3 3407 TIP3 H2   HT     0.417000        1.0080           0
   18128 TIP3 3408 TIP3 OH2  OT    -0.834000       15.9994           0
   18129 TIP3 3408 TIP3 H1   HT     0.417000        1.0080           0
   18130 TIP3 3408 TIP3 H2   HT     0.417000        1.0080           0
   18131 TIP3 3409 TIP3 OH2  OT    -0.834000       15.9994           0
   18132 TIP3 3409 TIP3 H1   HT     0.417000        1.0080           0
   18133 TIP3 3409 TIP3 H2   HT     0.417000        1.0080           0
   18134 TIP3 3410 TIP3 OH2  OT    -0.834000       15.9994           0
   18135 TIP3 3410 TIP3 H1   HT     0.417000        1.0080           0
   18136 TIP3 3410 TIP3 H2   HT     0.417000        1.0080           0
   18137 TIP3 3411 TIP3 OH2  OT    -0.834000       15.9994           0
   18138 TIP3 3411 TIP3 H1   HT     0.417000        1.0080           0
   18139 TIP3 3411 TIP3 H2   HT     0.417000        1.0080           0
   18140 TIP3 3412 TIP3 OH2  OT    -0.834000       15.9994           0
   18141 TIP3 3412 TIP3 H1   HT     0.417000        1.0080           0
   18142 TIP3 3412 TIP3 H2   HT     0.417000        1.0080           0
   18143 TIP3 3413 TIP3 OH2  OT    -0.834000       15.9994           0
   18144 TIP3 3413 TIP3 H1   HT     0.417000        1.0080           0
   18145 TIP3 3413 TIP3 H2   HT     0.417000        1.0080           0
   18146 TIP3 3414 TIP3 OH2  OT    -0.834000       15.9994           0
   18147 TIP3 3414 TIP3 H1   HT     0.417000        1.0080           0
   18148 TIP3 3414 TIP3 H2   HT     0.417000        1.0080           0
   18149 TIP3 3415 TIP3 OH2  OT    -0.834000       15.9994           0
   18150 TIP3 3415 TIP3 H1   HT     0.417000        1.0080           0
   18151 TIP3 3415 TIP3 H2   HT     0.417000        1.0080           0
   18152 TIP3 3416 TIP3 OH2  OT    -0.834000       15.9994           0
   18153 TIP3 3416 TIP3 H1   HT     0.417000        1.0080           0
   18154 TIP3 3416 TIP3 H2   HT     0.417000        1.0080           0
   18155 TIP3 3417 TIP3 OH2  OT    -0.834000       15.9994           0
   18156 TIP3 3417 TIP3 H1   HT     0.417000        1.0080           0
   18157 TIP3 3417 TIP3 H2   HT     0.417000        1.0080           0
   18158 TIP3 3418 TIP3 OH2  OT    -0.834000       15.9994           0
   18159 TIP3 3418 TIP3 H1   HT     0.417000        1.0080           0
   18160 TIP3 3418 TIP3 H2   HT     0.417000        1.0080           0
   18161 TIP3 3419 TIP3 OH2  OT    -0.834000       15.9994           0
   18162 TIP3 3419 TIP3 H1   HT     0.417000        1.0080           0
   18163 TIP3 3419 TIP3 H2   HT     0.417000        1.0080           0
   18164 TIP3 3420 TIP3 OH2  OT    -0.834000       15.9994           0
   18165 TIP3 3420 TIP3 H1   HT     0.417000        1.0080           0
   18166 TIP3 3420 TIP3 H2   HT     0.417000        1.0080           0
   18167 TIP3 3421 TIP3 OH2  OT    -0.834000       15.9994           0
   18168 TIP3 3421 TIP3 H1   HT     0.417000        1.0080           0
   18169 TIP3 3421 TIP3 H2   HT     0.417000        1.0080           0
   18170 TIP3 3422 TIP3 OH2  OT    -0.834000       15.9994           0
   18171 TIP3 3422 TIP3 H1   HT     0.417000        1.0080           0
   18172 TIP3 3422 TIP3 H2   HT     0.417000        1.0080           0
   18173 TIP3 3423 TIP3 OH2  OT    -0.834000       15.9994           0
   18174 TIP3 3423 TIP3 H1   HT     0.417000        1.0080           0
   18175 TIP3 3423 TIP3 H2   HT     0.417000        1.0080           0
   18176 TIP3 3424 TIP3 OH2  OT    -0.834000       15.9994           0
   18177 TIP3 3424 TIP3 H1   HT     0.417000        1.0080           0
   18178 TIP3 3424 TIP3 H2   HT     0.417000        1.0080           0
   18179 TIP3 3425 TIP3 OH2  OT    -0.834000       15.9994           0
   18180 TIP3 3425 TIP3 H1   HT     0.417000        1.0080           0
   18181 TIP3 3425 TIP3 H2   HT     0.417000        1.0080           0
   18182 TIP3 3426 TIP3 OH2  OT    -0.834000       15.9994           0
   18183 TIP3 3426 TIP3 H1   HT     0.417000        1.0080           0
   18184 TIP3 3426 TIP3 H2   HT     0.417000        1.0080           0
   18185 TIP3 3427 TIP3 OH2  OT    -0.834000       15.9994           0
   18186 TIP3 3427 TIP3 H1   HT     0.417000        1.0080           0
   18187 TIP3 3427 TIP3 H2   HT     0.417000        1.0080           0
   18188 TIP3 3428 TIP3 OH2  OT    -0.834000       15.9994           0
   18189 TIP3 3428 TIP3 H1   HT     0.417000        1.0080           0
   18190 TIP3 3428 TIP3 H2   HT     0.417000        1.0080           0
   18191 TIP3 3429 TIP3 OH2  OT    -0.834000       15.9994           0
   18192 TIP3 3429 TIP3 H1   HT     0.417000        1.0080           0
   18193 TIP3 3429 TIP3 H2   HT     0.417000        1.0080           0
   18194 TIP3 3430 TIP3 OH2  OT    -0.834000       15.9994           0
   18195 TIP3 3430 TIP3 H1   HT     0.417000        1.0080           0
   18196 TIP3 3430 TIP3 H2   HT     0.417000        1.0080           0
   18197 TIP3 3431 TIP3 OH2  OT    -0.834000       15.9994           0
   18198 TIP3 3431 TIP3 H1   HT     0.417000        1.0080           0
   18199 TIP3 3431 TIP3 H2   HT     0.417000        1.0080           0
   18200 TIP3 3432 TIP3 OH2  OT    -0.834000       15.9994           0
   18201 TIP3 3432 TIP3 H1   HT     0.417000        1.0080           0
   18202 TIP3 3432 TIP3 H2   HT     0.417000        1.0080           0
   18203 TIP3 3433 TIP3 OH2  OT    -0.834000       15.9994           0
   18204 TIP3 3433 TIP3 H1   HT     0.417000        1.0080           0
   18205 TIP3 3433 TIP3 H2   HT     0.417000        1.0080           0
   18206 TIP3 3434 TIP3 OH2  OT    -0.834000       15.9994           0
   18207 TIP3 3434 TIP3 H1   HT     0.417000        1.0080           0
   18208 TIP3 3434 TIP3 H2   HT     0.417000        1.0080           0
   18209 TIP3 3435 TIP3 OH2  OT    -0.834000       15.9994           0
   18210 TIP3 3435 TIP3 H1   HT     0.417000        1.0080           0
   18211 TIP3 3435 TIP3 H2   HT     0.417000        1.0080           0
   18212 TIP3 3436 TIP3 OH2  OT    -0.834000       15.9994           0
   18213 TIP3 3436 TIP3 H1   HT     0.417000        1.0080           0
   18214 TIP3 3436 TIP3 H2   HT     0.417000        1.0080           0
   18215 TIP3 3437 TIP3 OH2  OT    -0.834000       15.9994           0
   18216 TIP3 3437 TIP3 H1   HT     0.417000        1.0080           0
   18217 TIP3 3437 TIP3 H2   HT     0.417000        1.0080           0
   18218 TIP3 3438 TIP3 OH2  OT    -0.834000       15.9994           0
   18219 TIP3 3438 TIP3 H1   HT     0.417000        1.0080           0
   18220 TIP3 3438 TIP3 H2   HT     0.417000        1.0080           0
   18221 TIP3 3439 TIP3 OH2  OT    -0.834000       15.9994           0
   18222 TIP3 3439 TIP3 H1   HT     0.417000        1.0080           0
   18223 TIP3 3439 TIP3 H2   HT     0.417000        1.0080           0
   18224 TIP3 3440 TIP3 OH2  OT    -0.834000       15.9994           0
   18225 TIP3 3440 TIP3 H1   HT     0.417000        1.0080           0
   18226 TIP3 3440 TIP3 H2   HT     0.417000        1.0080           0
   18227 TIP3 3441 TIP3 OH2  OT    -0.834000       15.9994           0
   18228 TIP3 3441 TIP3 H1   HT     0.417000        1.0080           0
   18229 TIP3 3441 TIP3 H2   HT     0.417000        1.0080           0
   18230 TIP3 3442 TIP3 OH2  OT    -0.834000       15.9994           0
   18231 TIP3 3442 TIP3 H1   HT     0.417000        1.0080           0
   18232 TIP3 3442 TIP3 H2   HT     0.417000        1.0080           0
   18233 TIP3 3443 TIP3 OH2  OT    -0.834000       15.9994           0
   18234 TIP3 3443 TIP3 H1   HT     0.417000        1.0080           0
   18235 TIP3 3443 TIP3 H2   HT     0.417000        1.0080           0
   18236 TIP3 3444 TIP3 OH2  OT    -0.834000       15.9994           0
   18237 TIP3 3444 TIP3 H1   HT     0.417000        1.0080           0
   18238 TIP3 3444 TIP3 H2   HT     0.417000        1.0080           0
   18239 TIP3 3445 TIP3 OH2  OT    -0.834000       15.9994           0
   18240 TIP3 3445 TIP3 H1   HT     0.417000        1.0080           0
   18241 TIP3 3445 TIP3 H2   HT     0.417000        1.0080           0
   18242 TIP3 3446 TIP3 OH2  OT    -0.834000       15.9994           0
   18243 TIP3 3446 TIP3 H1   HT     0.417000        1.0080           0
   18244 TIP3 3446 TIP3 H2   HT     0.417000        1.0080           0
   18245 TIP3 3447 TIP3 OH2  OT    -0.834000       15.9994           0
   18246 TIP3 3447 TIP3 H1   HT     0.417000        1.0080           0
   18247 TIP3 3447 TIP3 H2   HT     0.417000        1.0080           0
   18248 TIP3 3448 TIP3 OH2  OT    -0.834000       15.9994           0
   18249 TIP3 3448 TIP3 H1   HT     0.417000        1.0080           0
   18250 TIP3 3448 TIP3 H2   HT     0.417000        1.0080           0
   18251 TIP3 3449 TIP3 OH2  OT    -0.834000       15.9994           0
   18252 TIP3 3449 TIP3 H1   HT     0.417000        1.0080           0
   18253 TIP3 3449 TIP3 H2   HT     0.417000        1.0080           0
   18254 TIP3 3450 TIP3 OH2  OT    -0.834000       15.9994           0
   18255 TIP3 3450 TIP3 H1   HT     0.417000        1.0080           0
   18256 TIP3 3450 TIP3 H2   HT     0.417000        1.0080           0
   18257 TIP3 3451 TIP3 OH2  OT    -0.834000       15.9994           0
   18258 TIP3 3451 TIP3 H1   HT     0.417000        1.0080           0
   18259 TIP3 3451 TIP3 H2   HT     0.417000        1.0080           0
   18260 TIP3 3452 TIP3 OH2  OT    -0.834000       15.9994           0
   18261 TIP3 3452 TIP3 H1   HT     0.417000        1.0080           0
   18262 TIP3 3452 TIP3 H2   HT     0.417000        1.0080           0
   18263 TIP3 3453 TIP3 OH2  OT    -0.834000       15.9994           0
   18264 TIP3 3453 TIP3 H1   HT     0.417000        1.0080           0
   18265 TIP3 3453 TIP3 H2   HT     0.417000        1.0080           0
   18266 TIP3 3454 TIP3 OH2  OT    -0.834000       15.9994           0
   18267 TIP3 3454 TIP3 H1   HT     0.417000        1.0080           0
   18268 TIP3 3454 TIP3 H2   HT     0.417000        1.0080           0
   18269 TIP3 3455 TIP3 OH2  OT    -0.834000       15.9994           0
   18270 TIP3 3455 TIP3 H1   HT     0.417000        1.0080           0
   18271 TIP3 3455 TIP3 H2   HT     0.417000        1.0080           0
   18272 TIP3 3456 TIP3 OH2  OT    -0.834000       15.9994           0
   18273 TIP3 3456 TIP3 H1   HT     0.417000        1.0080           0
   18274 TIP3 3456 TIP3 H2   HT     0.417000        1.0080           0
   18275 TIP3 3457 TIP3 OH2  OT    -0.834000       15.9994           0
   18276 TIP3 3457 TIP3 H1   HT     0.417000        1.0080           0
   18277 TIP3 3457 TIP3 H2   HT     0.417000        1.0080           0
   18278 TIP3 3458 TIP3 OH2  OT    -0.834000       15.9994           0
   18279 TIP3 3458 TIP3 H1   HT     0.417000        1.0080           0
   18280 TIP3 3458 TIP3 H2   HT     0.417000        1.0080           0
   18281 TIP3 3459 TIP3 OH2  OT    -0.834000       15.9994           0
   18282 TIP3 3459 TIP3 H1   HT     0.417000        1.0080           0
   18283 TIP3 3459 TIP3 H2   HT     0.417000        1.0080           0
   18284 TIP3 3460 TIP3 OH2  OT    -0.834000       15.9994           0
   18285 TIP3 3460 TIP3 H1   HT     0.417000        1.0080           0
   18286 TIP3 3460 TIP3 H2   HT     0.417000        1.0080           0
   18287 TIP3 3461 TIP3 OH2  OT    -0.834000       15.9994           0
   18288 TIP3 3461 TIP3 H1   HT     0.417000        1.0080           0
   18289 TIP3 3461 TIP3 H2   HT     0.417000        1.0080           0
   18290 TIP3 3462 TIP3 OH2  OT    -0.834000       15.9994           0
   18291 TIP3 3462 TIP3 H1   HT     0.417000        1.0080           0
   18292 TIP3 3462 TIP3 H2   HT     0.417000        1.0080           0
   18293 TIP3 3463 TIP3 OH2  OT    -0.834000       15.9994           0
   18294 TIP3 3463 TIP3 H1   HT     0.417000        1.0080           0
   18295 TIP3 3463 TIP3 H2   HT     0.417000        1.0080           0
   18296 TIP3 3464 TIP3 OH2  OT    -0.834000       15.9994           0
   18297 TIP3 3464 TIP3 H1   HT     0.417000        1.0080           0
   18298 TIP3 3464 TIP3 H2   HT     0.417000        1.0080           0
   18299 TIP3 3465 TIP3 OH2  OT    -0.834000       15.9994           0
   18300 TIP3 3465 TIP3 H1   HT     0.417000        1.0080           0
   18301 TIP3 3465 TIP3 H2   HT     0.417000        1.0080           0
   18302 TIP3 3466 TIP3 OH2  OT    -0.834000       15.9994           0
   18303 TIP3 3466 TIP3 H1   HT     0.417000        1.0080           0
   18304 TIP3 3466 TIP3 H2   HT     0.417000        1.0080           0
   18305 TIP3 3467 TIP3 OH2  OT    -0.834000       15.9994           0
   18306 TIP3 3467 TIP3 H1   HT     0.417000        1.0080           0
   18307 TIP3 3467 TIP3 H2   HT     0.417000        1.0080           0
   18308 TIP3 3468 TIP3 OH2  OT    -0.834000       15.9994           0
   18309 TIP3 3468 TIP3 H1   HT     0.417000        1.0080           0
   18310 TIP3 3468 TIP3 H2   HT     0.417000        1.0080           0
   18311 TIP3 3469 TIP3 OH2  OT    -0.834000       15.9994           0
   18312 TIP3 3469 TIP3 H1   HT     0.417000        1.0080           0
   18313 TIP3 3469 TIP3 H2   HT     0.417000        1.0080           0
   18314 TIP3 3470 TIP3 OH2  OT    -0.834000       15.9994           0
   18315 TIP3 3470 TIP3 H1   HT     0.417000        1.0080           0
   18316 TIP3 3470 TIP3 H2   HT     0.417000        1.0080           0
   18317 TIP3 3471 TIP3 OH2  OT    -0.834000       15.9994           0
   18318 TIP3 3471 TIP3 H1   HT     0.417000        1.0080           0
   18319 TIP3 3471 TIP3 H2   HT     0.417000        1.0080           0
   18320 TIP3 3472 TIP3 OH2  OT    -0.834000       15.9994           0
   18321 TIP3 3472 TIP3 H1   HT     0.417000        1.0080           0
   18322 TIP3 3472 TIP3 H2   HT     0.417000        1.0080           0
   18323 TIP3 3473 TIP3 OH2  OT    -0.834000       15.9994           0
   18324 TIP3 3473 TIP3 H1   HT     0.417000        1.0080           0
   18325 TIP3 3473 TIP3 H2   HT     0.417000        1.0080           0
   18326 TIP3 3474 TIP3 OH2  OT    -0.834000       15.9994           0
   18327 TIP3 3474 TIP3 H1   HT     0.417000        1.0080           0
   18328 TIP3 3474 TIP3 H2   HT     0.417000        1.0080           0
   18329 TIP3 3475 TIP3 OH2  OT    -0.834000       15.9994           0
   18330 TIP3 3475 TIP3 H1   HT     0.417000        1.0080           0
   18331 TIP3 3475 TIP3 H2   HT     0.417000        1.0080           0
   18332 TIP3 3476 TIP3 OH2  OT    -0.834000       15.9994           0
   18333 TIP3 3476 TIP3 H1   HT     0.417000        1.0080           0
   18334 TIP3 3476 TIP3 H2   HT     0.417000        1.0080           0
   18335 TIP3 3477 TIP3 OH2  OT    -0.834000       15.9994           0
   18336 TIP3 3477 TIP3 H1   HT     0.417000        1.0080           0
   18337 TIP3 3477 TIP3 H2   HT     0.417000        1.0080           0
   18338 TIP3 3478 TIP3 OH2  OT    -0.834000       15.9994           0
   18339 TIP3 3478 TIP3 H1   HT     0.417000        1.0080           0
   18340 TIP3 3478 TIP3 H2   HT     0.417000        1.0080           0
   18341 TIP3 3479 TIP3 OH2  OT    -0.834000       15.9994           0
   18342 TIP3 3479 TIP3 H1   HT     0.417000        1.0080           0
   18343 TIP3 3479 TIP3 H2   HT     0.417000        1.0080           0
   18344 TIP3 3480 TIP3 OH2  OT    -0.834000       15.9994           0
   18345 TIP3 3480 TIP3 H1   HT     0.417000        1.0080           0
   18346 TIP3 3480 TIP3 H2   HT     0.417000        1.0080           0
   18347 TIP3 3481 TIP3 OH2  OT    -0.834000       15.9994           0
   18348 TIP3 3481 TIP3 H1   HT     0.417000        1.0080           0
   18349 TIP3 3481 TIP3 H2   HT     0.417000        1.0080           0
   18350 TIP3 3482 TIP3 OH2  OT    -0.834000       15.9994           0
   18351 TIP3 3482 TIP3 H1   HT     0.417000        1.0080           0
   18352 TIP3 3482 TIP3 H2   HT     0.417000        1.0080           0
   18353 TIP3 3483 TIP3 OH2  OT    -0.834000       15.9994           0
   18354 TIP3 3483 TIP3 H1   HT     0.417000        1.0080           0
   18355 TIP3 3483 TIP3 H2   HT     0.417000        1.0080           0
   18356 TIP3 3484 TIP3 OH2  OT    -0.834000       15.9994           0
   18357 TIP3 3484 TIP3 H1   HT     0.417000        1.0080           0
   18358 TIP3 3484 TIP3 H2   HT     0.417000        1.0080           0
   18359 TIP3 3485 TIP3 OH2  OT    -0.834000       15.9994           0
   18360 TIP3 3485 TIP3 H1   HT     0.417000        1.0080           0
   18361 TIP3 3485 TIP3 H2   HT     0.417000        1.0080           0
   18362 TIP3 3486 TIP3 OH2  OT    -0.834000       15.9994           0
   18363 TIP3 3486 TIP3 H1   HT     0.417000        1.0080           0
   18364 TIP3 3486 TIP3 H2   HT     0.417000        1.0080           0
   18365 TIP3 3487 TIP3 OH2  OT    -0.834000       15.9994           0
   18366 TIP3 3487 TIP3 H1   HT     0.417000        1.0080           0
   18367 TIP3 3487 TIP3 H2   HT     0.417000        1.0080           0
   18368 TIP3 3488 TIP3 OH2  OT    -0.834000       15.9994           0
   18369 TIP3 3488 TIP3 H1   HT     0.417000        1.0080           0
   18370 TIP3 3488 TIP3 H2   HT     0.417000        1.0080           0
   18371 TIP3 3489 TIP3 OH2  OT    -0.834000       15.9994           0
   18372 TIP3 3489 TIP3 H1   HT     0.417000        1.0080           0
   18373 TIP3 3489 TIP3 H2   HT     0.417000        1.0080           0
   18374 TIP3 3490 TIP3 OH2  OT    -0.834000       15.9994           0
   18375 TIP3 3490 TIP3 H1   HT     0.417000        1.0080           0
   18376 TIP3 3490 TIP3 H2   HT     0.417000        1.0080           0
   18377 TIP3 3491 TIP3 OH2  OT    -0.834000       15.9994           0
   18378 TIP3 3491 TIP3 H1   HT     0.417000        1.0080           0
   18379 TIP3 3491 TIP3 H2   HT     0.417000        1.0080           0
   18380 TIP3 3492 TIP3 OH2  OT    -0.834000       15.9994           0
   18381 TIP3 3492 TIP3 H1   HT     0.417000        1.0080           0
   18382 TIP3 3492 TIP3 H2   HT     0.417000        1.0080           0
   18383 TIP3 3493 TIP3 OH2  OT    -0.834000       15.9994           0
   18384 TIP3 3493 TIP3 H1   HT     0.417000        1.0080           0
   18385 TIP3 3493 TIP3 H2   HT     0.417000        1.0080           0
   18386 TIP3 3494 TIP3 OH2  OT    -0.834000       15.9994           0
   18387 TIP3 3494 TIP3 H1   HT     0.417000        1.0080           0
   18388 TIP3 3494 TIP3 H2   HT     0.417000        1.0080           0
   18389 TIP3 3495 TIP3 OH2  OT    -0.834000       15.9994           0
   18390 TIP3 3495 TIP3 H1   HT     0.417000        1.0080           0
   18391 TIP3 3495 TIP3 H2   HT     0.417000        1.0080           0
   18392 TIP3 3496 TIP3 OH2  OT    -0.834000       15.9994           0
   18393 TIP3 3496 TIP3 H1   HT     0.417000        1.0080           0
   18394 TIP3 3496 TIP3 H2   HT     0.417000        1.0080           0
   18395 TIP3 3497 TIP3 OH2  OT    -0.834000       15.9994           0
   18396 TIP3 3497 TIP3 H1   HT     0.417000        1.0080           0
   18397 TIP3 3497 TIP3 H2   HT     0.417000        1.0080           0
   18398 TIP3 3498 TIP3 OH2  OT    -0.834000       15.9994           0
   18399 TIP3 3498 TIP3 H1   HT     0.417000        1.0080           0
   18400 TIP3 3498 TIP3 H2   HT     0.417000        1.0080           0
   18401 TIP3 3499 TIP3 OH2  OT    -0.834000       15.9994           0
   18402 TIP3 3499 TIP3 H1   HT     0.417000        1.0080           0
   18403 TIP3 3499 TIP3 H2   HT     0.417000        1.0080           0
   18404 TIP3 3500 TIP3 OH2  OT    -0.834000       15.9994           0
   18405 TIP3 3500 TIP3 H1   HT     0.417000        1.0080           0
   18406 TIP3 3500 TIP3 H2   HT     0.417000        1.0080           0
   18407 TIP3 3501 TIP3 OH2  OT    -0.834000       15.9994           0
   18408 TIP3 3501 TIP3 H1   HT     0.417000        1.0080           0
   18409 TIP3 3501 TIP3 H2   HT     0.417000        1.0080           0
   18410 TIP3 3502 TIP3 OH2  OT    -0.834000       15.9994           0
   18411 TIP3 3502 TIP3 H1   HT     0.417000        1.0080           0
   18412 TIP3 3502 TIP3 H2   HT     0.417000        1.0080           0
   18413 TIP3 3503 TIP3 OH2  OT    -0.834000       15.9994           0
   18414 TIP3 3503 TIP3 H1   HT     0.417000        1.0080           0
   18415 TIP3 3503 TIP3 H2   HT     0.417000        1.0080           0
   18416 TIP3 3504 TIP3 OH2  OT    -0.834000       15.9994           0
   18417 TIP3 3504 TIP3 H1   HT     0.417000        1.0080           0
   18418 TIP3 3504 TIP3 H2   HT     0.417000        1.0080           0
   18419 TIP3 3505 TIP3 OH2  OT    -0.834000       15.9994           0
   18420 TIP3 3505 TIP3 H1   HT     0.417000        1.0080           0
   18421 TIP3 3505 TIP3 H2   HT     0.417000        1.0080           0
   18422 TIP3 3506 TIP3 OH2  OT    -0.834000       15.9994           0
   18423 TIP3 3506 TIP3 H1   HT     0.417000        1.0080           0
   18424 TIP3 3506 TIP3 H2   HT     0.417000        1.0080           0
   18425 TIP3 3507 TIP3 OH2  OT    -0.834000       15.9994           0
   18426 TIP3 3507 TIP3 H1   HT     0.417000        1.0080           0
   18427 TIP3 3507 TIP3 H2   HT     0.417000        1.0080           0
   18428 TIP3 3508 TIP3 OH2  OT    -0.834000       15.9994           0
   18429 TIP3 3508 TIP3 H1   HT     0.417000        1.0080           0
   18430 TIP3 3508 TIP3 H2   HT     0.417000        1.0080           0
   18431 TIP3 3509 TIP3 OH2  OT    -0.834000       15.9994           0
   18432 TIP3 3509 TIP3 H1   HT     0.417000        1.0080           0
   18433 TIP3 3509 TIP3 H2   HT     0.417000        1.0080           0
   18434 TIP3 3510 TIP3 OH2  OT    -0.834000       15.9994           0
   18435 TIP3 3510 TIP3 H1   HT     0.417000        1.0080           0
   18436 TIP3 3510 TIP3 H2   HT     0.417000        1.0080           0
   18437 TIP3 3511 TIP3 OH2  OT    -0.834000       15.9994           0
   18438 TIP3 3511 TIP3 H1   HT     0.417000        1.0080           0
   18439 TIP3 3511 TIP3 H2   HT     0.417000        1.0080           0
   18440 TIP3 3512 TIP3 OH2  OT    -0.834000       15.9994           0
   18441 TIP3 3512 TIP3 H1   HT     0.417000        1.0080           0
   18442 TIP3 3512 TIP3 H2   HT     0.417000        1.0080           0
   18443 TIP3 3513 TIP3 OH2  OT    -0.834000       15.9994           0
   18444 TIP3 3513 TIP3 H1   HT     0.417000        1.0080           0
   18445 TIP3 3513 TIP3 H2   HT     0.417000        1.0080           0
   18446 TIP3 3514 TIP3 OH2  OT    -0.834000       15.9994           0
   18447 TIP3 3514 TIP3 H1   HT     0.417000        1.0080           0
   18448 TIP3 3514 TIP3 H2   HT     0.417000        1.0080           0
   18449 TIP3 3515 TIP3 OH2  OT    -0.834000       15.9994           0
   18450 TIP3 3515 TIP3 H1   HT     0.417000        1.0080           0
   18451 TIP3 3515 TIP3 H2   HT     0.417000        1.0080           0
   18452 TIP3 3516 TIP3 OH2  OT    -0.834000       15.9994           0
   18453 TIP3 3516 TIP3 H1   HT     0.417000        1.0080           0
   18454 TIP3 3516 TIP3 H2   HT     0.417000        1.0080           0
   18455 TIP3 3517 TIP3 OH2  OT    -0.834000       15.9994           0
   18456 TIP3 3517 TIP3 H1   HT     0.417000        1.0080           0
   18457 TIP3 3517 TIP3 H2   HT     0.417000        1.0080           0
   18458 TIP3 3518 TIP3 OH2  OT    -0.834000       15.9994           0
   18459 TIP3 3518 TIP3 H1   HT     0.417000        1.0080           0
   18460 TIP3 3518 TIP3 H2   HT     0.417000        1.0080           0
   18461 TIP3 3519 TIP3 OH2  OT    -0.834000       15.9994           0
   18462 TIP3 3519 TIP3 H1   HT     0.417000        1.0080           0
   18463 TIP3 3519 TIP3 H2   HT     0.417000        1.0080           0
   18464 TIP3 3520 TIP3 OH2  OT    -0.834000       15.9994           0
   18465 TIP3 3520 TIP3 H1   HT     0.417000        1.0080           0
   18466 TIP3 3520 TIP3 H2   HT     0.417000        1.0080           0
   18467 TIP3 3521 TIP3 OH2  OT    -0.834000       15.9994           0
   18468 TIP3 3521 TIP3 H1   HT     0.417000        1.0080           0
   18469 TIP3 3521 TIP3 H2   HT     0.417000        1.0080           0
   18470 TIP3 3522 TIP3 OH2  OT    -0.834000       15.9994           0
   18471 TIP3 3522 TIP3 H1   HT     0.417000        1.0080           0
   18472 TIP3 3522 TIP3 H2   HT     0.417000        1.0080           0
   18473 TIP3 3523 TIP3 OH2  OT    -0.834000       15.9994           0
   18474 TIP3 3523 TIP3 H1   HT     0.417000        1.0080           0
   18475 TIP3 3523 TIP3 H2   HT     0.417000        1.0080           0
   18476 TIP3 3524 TIP3 OH2  OT    -0.834000       15.9994           0
   18477 TIP3 3524 TIP3 H1   HT     0.417000        1.0080           0
   18478 TIP3 3524 TIP3 H2   HT     0.417000        1.0080           0
   18479 TIP3 3525 TIP3 OH2  OT    -0.834000       15.9994           0
   18480 TIP3 3525 TIP3 H1   HT     0.417000        1.0080           0
   18481 TIP3 3525 TIP3 H2   HT     0.417000        1.0080           0
   18482 TIP3 3526 TIP3 OH2  OT    -0.834000       15.9994           0
   18483 TIP3 3526 TIP3 H1   HT     0.417000        1.0080           0
   18484 TIP3 3526 TIP3 H2   HT     0.417000        1.0080           0
   18485 TIP3 3527 TIP3 OH2  OT    -0.834000       15.9994           0
   18486 TIP3 3527 TIP3 H1   HT     0.417000        1.0080           0
   18487 TIP3 3527 TIP3 H2   HT     0.417000        1.0080           0
   18488 TIP3 3528 TIP3 OH2  OT    -0.834000       15.9994           0
   18489 TIP3 3528 TIP3 H1   HT     0.417000        1.0080           0
   18490 TIP3 3528 TIP3 H2   HT     0.417000        1.0080           0
   18491 TIP3 3529 TIP3 OH2  OT    -0.834000       15.9994           0
   18492 TIP3 3529 TIP3 H1   HT     0.417000        1.0080           0
   18493 TIP3 3529 TIP3 H2   HT     0.417000        1.0080           0
   18494 TIP3 3530 TIP3 OH2  OT    -0.834000       15.9994           0
   18495 TIP3 3530 TIP3 H1   HT     0.417000        1.0080           0
   18496 TIP3 3530 TIP3 H2   HT     0.417000        1.0080           0
   18497 TIP3 3531 TIP3 OH2  OT    -0.834000       15.9994           0
   18498 TIP3 3531 TIP3 H1   HT     0.417000        1.0080           0
   18499 TIP3 3531 TIP3 H2   HT     0.417000        1.0080           0
   18500 TIP3 3532 TIP3 OH2  OT    -0.834000       15.9994           0
   18501 TIP3 3532 TIP3 H1   HT     0.417000        1.0080           0
   18502 TIP3 3532 TIP3 H2   HT     0.417000        1.0080           0
   18503 TIP3 3533 TIP3 OH2  OT    -0.834000       15.9994           0
   18504 TIP3 3533 TIP3 H1   HT     0.417000        1.0080           0
   18505 TIP3 3533 TIP3 H2   HT     0.417000        1.0080           0
   18506 TIP3 3534 TIP3 OH2  OT    -0.834000       15.9994           0
   18507 TIP3 3534 TIP3 H1   HT     0.417000        1.0080           0
   18508 TIP3 3534 TIP3 H2   HT     0.417000        1.0080           0
   18509 TIP3 3535 TIP3 OH2  OT    -0.834000       15.9994           0
   18510 TIP3 3535 TIP3 H1   HT     0.417000        1.0080           0
   18511 TIP3 3535 TIP3 H2   HT     0.417000        1.0080           0
   18512 TIP3 3536 TIP3 OH2  OT    -0.834000       15.9994           0
   18513 TIP3 3536 TIP3 H1   HT     0.417000        1.0080           0
   18514 TIP3 3536 TIP3 H2   HT     0.417000        1.0080           0
   18515 TIP3 3537 TIP3 OH2  OT    -0.834000       15.9994           0
   18516 TIP3 3537 TIP3 H1   HT     0.417000        1.0080           0
   18517 TIP3 3537 TIP3 H2   HT     0.417000        1.0080           0
   18518 TIP3 3538 TIP3 OH2  OT    -0.834000       15.9994           0
   18519 TIP3 3538 TIP3 H1   HT     0.417000        1.0080           0
   18520 TIP3 3538 TIP3 H2   HT     0.417000        1.0080           0
   18521 TIP3 3539 TIP3 OH2  OT    -0.834000       15.9994           0
   18522 TIP3 3539 TIP3 H1   HT     0.417000        1.0080           0
   18523 TIP3 3539 TIP3 H2   HT     0.417000        1.0080           0
   18524 TIP3 3540 TIP3 OH2  OT    -0.834000       15.9994           0
   18525 TIP3 3540 TIP3 H1   HT     0.417000        1.0080           0
   18526 TIP3 3540 TIP3 H2   HT     0.417000        1.0080           0
   18527 TIP3 3541 TIP3 OH2  OT    -0.834000       15.9994           0
   18528 TIP3 3541 TIP3 H1   HT     0.417000        1.0080           0
   18529 TIP3 3541 TIP3 H2   HT     0.417000        1.0080           0
   18530 TIP3 3542 TIP3 OH2  OT    -0.834000       15.9994           0
   18531 TIP3 3542 TIP3 H1   HT     0.417000        1.0080           0
   18532 TIP3 3542 TIP3 H2   HT     0.417000        1.0080           0
   18533 TIP3 3543 TIP3 OH2  OT    -0.834000       15.9994           0
   18534 TIP3 3543 TIP3 H1   HT     0.417000        1.0080           0
   18535 TIP3 3543 TIP3 H2   HT     0.417000        1.0080           0
   18536 TIP3 3544 TIP3 OH2  OT    -0.834000       15.9994           0
   18537 TIP3 3544 TIP3 H1   HT     0.417000        1.0080           0
   18538 TIP3 3544 TIP3 H2   HT     0.417000        1.0080           0
   18539 TIP3 3545 TIP3 OH2  OT    -0.834000       15.9994           0
   18540 TIP3 3545 TIP3 H1   HT     0.417000        1.0080           0
   18541 TIP3 3545 TIP3 H2   HT     0.417000        1.0080           0
   18542 TIP3 3546 TIP3 OH2  OT    -0.834000       15.9994           0
   18543 TIP3 3546 TIP3 H1   HT     0.417000        1.0080           0
   18544 TIP3 3546 TIP3 H2   HT     0.417000        1.0080           0
   18545 TIP3 3547 TIP3 OH2  OT    -0.834000       15.9994           0
   18546 TIP3 3547 TIP3 H1   HT     0.417000        1.0080           0
   18547 TIP3 3547 TIP3 H2   HT     0.417000        1.0080           0
   18548 TIP3 3548 TIP3 OH2  OT    -0.834000       15.9994           0
   18549 TIP3 3548 TIP3 H1   HT     0.417000        1.0080           0
   18550 TIP3 3548 TIP3 H2   HT     0.417000        1.0080           0
   18551 TIP3 3549 TIP3 OH2  OT    -0.834000       15.9994           0
   18552 TIP3 3549 TIP3 H1   HT     0.417000        1.0080           0
   18553 TIP3 3549 TIP3 H2   HT     0.417000        1.0080           0
   18554 TIP3 3550 TIP3 OH2  OT    -0.834000       15.9994           0
   18555 TIP3 3550 TIP3 H1   HT     0.417000        1.0080           0
   18556 TIP3 3550 TIP3 H2   HT     0.417000        1.0080           0
   18557 TIP3 3551 TIP3 OH2  OT    -0.834000       15.9994           0
   18558 TIP3 3551 TIP3 H1   HT     0.417000        1.0080           0
   18559 TIP3 3551 TIP3 H2   HT     0.417000        1.0080           0
   18560 TIP3 3552 TIP3 OH2  OT    -0.834000       15.9994           0
   18561 TIP3 3552 TIP3 H1   HT     0.417000        1.0080           0
   18562 TIP3 3552 TIP3 H2   HT     0.417000        1.0080           0
   18563 TIP3 3553 TIP3 OH2  OT    -0.834000       15.9994           0
   18564 TIP3 3553 TIP3 H1   HT     0.417000        1.0080           0
   18565 TIP3 3553 TIP3 H2   HT     0.417000        1.0080           0
   18566 TIP3 3554 TIP3 OH2  OT    -0.834000       15.9994           0
   18567 TIP3 3554 TIP3 H1   HT     0.417000        1.0080           0
   18568 TIP3 3554 TIP3 H2   HT     0.417000        1.0080           0
   18569 TIP3 3555 TIP3 OH2  OT    -0.834000       15.9994           0
   18570 TIP3 3555 TIP3 H1   HT     0.417000        1.0080           0
   18571 TIP3 3555 TIP3 H2   HT     0.417000        1.0080           0
   18572 TIP3 3556 TIP3 OH2  OT    -0.834000       15.9994           0
   18573 TIP3 3556 TIP3 H1   HT     0.417000        1.0080           0
   18574 TIP3 3556 TIP3 H2   HT     0.417000        1.0080           0
   18575 TIP3 3557 TIP3 OH2  OT    -0.834000       15.9994           0
   18576 TIP3 3557 TIP3 H1   HT     0.417000        1.0080           0
   18577 TIP3 3557 TIP3 H2   HT     0.417000        1.0080           0
   18578 TIP3 3558 TIP3 OH2  OT    -0.834000       15.9994           0
   18579 TIP3 3558 TIP3 H1   HT     0.417000        1.0080           0
   18580 TIP3 3558 TIP3 H2   HT     0.417000        1.0080           0
   18581 TIP3 3559 TIP3 OH2  OT    -0.834000       15.9994           0
   18582 TIP3 3559 TIP3 H1   HT     0.417000        1.0080           0
   18583 TIP3 3559 TIP3 H2   HT     0.417000        1.0080           0
   18584 TIP3 3560 TIP3 OH2  OT    -0.834000       15.9994           0
   18585 TIP3 3560 TIP3 H1   HT     0.417000        1.0080           0
   18586 TIP3 3560 TIP3 H2   HT     0.417000        1.0080           0
   18587 TIP3 3561 TIP3 OH2  OT    -0.834000       15.9994           0
   18588 TIP3 3561 TIP3 H1   HT     0.417000        1.0080           0
   18589 TIP3 3561 TIP3 H2   HT     0.417000        1.0080           0
   18590 TIP3 3562 TIP3 OH2  OT    -0.834000       15.9994           0
   18591 TIP3 3562 TIP3 H1   HT     0.417000        1.0080           0
   18592 TIP3 3562 TIP3 H2   HT     0.417000        1.0080           0
   18593 TIP3 3563 TIP3 OH2  OT    -0.834000       15.9994           0
   18594 TIP3 3563 TIP3 H1   HT     0.417000        1.0080           0
   18595 TIP3 3563 TIP3 H2   HT     0.417000        1.0080           0
   18596 TIP3 3564 TIP3 OH2  OT    -0.834000       15.9994           0
   18597 TIP3 3564 TIP3 H1   HT     0.417000        1.0080           0
   18598 TIP3 3564 TIP3 H2   HT     0.417000        1.0080           0
   18599 TIP3 3565 TIP3 OH2  OT    -0.834000       15.9994           0
   18600 TIP3 3565 TIP3 H1   HT     0.417000        1.0080           0
   18601 TIP3 3565 TIP3 H2   HT     0.417000        1.0080           0
   18602 TIP3 3566 TIP3 OH2  OT    -0.834000       15.9994           0
   18603 TIP3 3566 TIP3 H1   HT     0.417000        1.0080           0
   18604 TIP3 3566 TIP3 H2   HT     0.417000        1.0080           0
   18605 TIP3 3567 TIP3 OH2  OT    -0.834000       15.9994           0
   18606 TIP3 3567 TIP3 H1   HT     0.417000        1.0080           0
   18607 TIP3 3567 TIP3 H2   HT     0.417000        1.0080           0
   18608 TIP3 3568 TIP3 OH2  OT    -0.834000       15.9994           0
   18609 TIP3 3568 TIP3 H1   HT     0.417000        1.0080           0
   18610 TIP3 3568 TIP3 H2   HT     0.417000        1.0080           0
   18611 TIP3 3569 TIP3 OH2  OT    -0.834000       15.9994           0
   18612 TIP3 3569 TIP3 H1   HT     0.417000        1.0080           0
   18613 TIP3 3569 TIP3 H2   HT     0.417000        1.0080           0
   18614 TIP3 3570 TIP3 OH2  OT    -0.834000       15.9994           0
   18615 TIP3 3570 TIP3 H1   HT     0.417000        1.0080           0
   18616 TIP3 3570 TIP3 H2   HT     0.417000        1.0080           0
   18617 TIP3 3571 TIP3 OH2  OT    -0.834000       15.9994           0
   18618 TIP3 3571 TIP3 H1   HT     0.417000        1.0080           0
   18619 TIP3 3571 TIP3 H2   HT     0.417000        1.0080           0
   18620 TIP3 3572 TIP3 OH2  OT    -0.834000       15.9994           0
   18621 TIP3 3572 TIP3 H1   HT     0.417000        1.0080           0
   18622 TIP3 3572 TIP3 H2   HT     0.417000        1.0080           0
   18623 TIP3 3573 TIP3 OH2  OT    -0.834000       15.9994           0
   18624 TIP3 3573 TIP3 H1   HT     0.417000        1.0080           0
   18625 TIP3 3573 TIP3 H2   HT     0.417000        1.0080           0
   18626 TIP3 3574 TIP3 OH2  OT    -0.834000       15.9994           0
   18627 TIP3 3574 TIP3 H1   HT     0.417000        1.0080           0
   18628 TIP3 3574 TIP3 H2   HT     0.417000        1.0080           0
   18629 TIP3 3575 TIP3 OH2  OT    -0.834000       15.9994           0
   18630 TIP3 3575 TIP3 H1   HT     0.417000        1.0080           0
   18631 TIP3 3575 TIP3 H2   HT     0.417000        1.0080           0
   18632 TIP3 3576 TIP3 OH2  OT    -0.834000       15.9994           0
   18633 TIP3 3576 TIP3 H1   HT     0.417000        1.0080           0
   18634 TIP3 3576 TIP3 H2   HT     0.417000        1.0080           0
   18635 TIP3 3577 TIP3 OH2  OT    -0.834000       15.9994           0
   18636 TIP3 3577 TIP3 H1   HT     0.417000        1.0080           0
   18637 TIP3 3577 TIP3 H2   HT     0.417000        1.0080           0
   18638 TIP3 3578 TIP3 OH2  OT    -0.834000       15.9994           0
   18639 TIP3 3578 TIP3 H1   HT     0.417000        1.0080           0
   18640 TIP3 3578 TIP3 H2   HT     0.417000        1.0080           0
   18641 TIP3 3579 TIP3 OH2  OT    -0.834000       15.9994           0
   18642 TIP3 3579 TIP3 H1   HT     0.417000        1.0080           0
   18643 TIP3 3579 TIP3 H2   HT     0.417000        1.0080           0
   18644 TIP3 3580 TIP3 OH2  OT    -0.834000       15.9994           0
   18645 TIP3 3580 TIP3 H1   HT     0.417000        1.0080           0
   18646 TIP3 3580 TIP3 H2   HT     0.417000        1.0080           0
   18647 TIP3 3581 TIP3 OH2  OT    -0.834000       15.9994           0
   18648 TIP3 3581 TIP3 H1   HT     0.417000        1.0080           0
   18649 TIP3 3581 TIP3 H2   HT     0.417000        1.0080           0
   18650 TIP3 3582 TIP3 OH2  OT    -0.834000       15.9994           0
   18651 TIP3 3582 TIP3 H1   HT     0.417000        1.0080           0
   18652 TIP3 3582 TIP3 H2   HT     0.417000        1.0080           0
   18653 TIP3 3583 TIP3 OH2  OT    -0.834000       15.9994           0
   18654 TIP3 3583 TIP3 H1   HT     0.417000        1.0080           0
   18655 TIP3 3583 TIP3 H2   HT     0.417000        1.0080           0
   18656 TIP3 3584 TIP3 OH2  OT    -0.834000       15.9994           0
   18657 TIP3 3584 TIP3 H1   HT     0.417000        1.0080           0
   18658 TIP3 3584 TIP3 H2   HT     0.417000        1.0080           0
   18659 TIP3 3585 TIP3 OH2  OT    -0.834000       15.9994           0
   18660 TIP3 3585 TIP3 H1   HT     0.417000        1.0080           0
   18661 TIP3 3585 TIP3 H2   HT     0.417000        1.0080           0
   18662 TIP3 3586 TIP3 OH2  OT    -0.834000       15.9994           0
   18663 TIP3 3586 TIP3 H1   HT     0.417000        1.0080           0
   18664 TIP3 3586 TIP3 H2   HT     0.417000        1.0080           0
   18665 TIP3 3587 TIP3 OH2  OT    -0.834000       15.9994           0
   18666 TIP3 3587 TIP3 H1   HT     0.417000        1.0080           0
   18667 TIP3 3587 TIP3 H2   HT     0.417000        1.0080           0
   18668 TIP3 3588 TIP3 OH2  OT    -0.834000       15.9994           0
   18669 TIP3 3588 TIP3 H1   HT     0.417000        1.0080           0
   18670 TIP3 3588 TIP3 H2   HT     0.417000        1.0080           0
   18671 TIP3 3589 TIP3 OH2  OT    -0.834000       15.9994           0
   18672 TIP3 3589 TIP3 H1   HT     0.417000        1.0080           0
   18673 TIP3 3589 TIP3 H2   HT     0.417000        1.0080           0
   18674 TIP3 3590 TIP3 OH2  OT    -0.834000       15.9994           0
   18675 TIP3 3590 TIP3 H1   HT     0.417000        1.0080           0
   18676 TIP3 3590 TIP3 H2   HT     0.417000        1.0080           0
   18677 TIP3 3591 TIP3 OH2  OT    -0.834000       15.9994           0
   18678 TIP3 3591 TIP3 H1   HT     0.417000        1.0080           0
   18679 TIP3 3591 TIP3 H2   HT     0.417000        1.0080           0
   18680 TIP3 3592 TIP3 OH2  OT    -0.834000       15.9994           0
   18681 TIP3 3592 TIP3 H1   HT     0.417000        1.0080           0
   18682 TIP3 3592 TIP3 H2   HT     0.417000        1.0080           0
   18683 TIP3 3593 TIP3 OH2  OT    -0.834000       15.9994           0
   18684 TIP3 3593 TIP3 H1   HT     0.417000        1.0080           0
   18685 TIP3 3593 TIP3 H2   HT     0.417000        1.0080           0
   18686 TIP3 3594 TIP3 OH2  OT    -0.834000       15.9994           0
   18687 TIP3 3594 TIP3 H1   HT     0.417000        1.0080           0
   18688 TIP3 3594 TIP3 H2   HT     0.417000        1.0080           0
   18689 TIP3 3595 TIP3 OH2  OT    -0.834000       15.9994           0
   18690 TIP3 3595 TIP3 H1   HT     0.417000        1.0080           0
   18691 TIP3 3595 TIP3 H2   HT     0.417000        1.0080           0
   18692 TIP3 3596 TIP3 OH2  OT    -0.834000       15.9994           0
   18693 TIP3 3596 TIP3 H1   HT     0.417000        1.0080           0
   18694 TIP3 3596 TIP3 H2   HT     0.417000        1.0080           0
   18695 TIP3 3597 TIP3 OH2  OT    -0.834000       15.9994           0
   18696 TIP3 3597 TIP3 H1   HT     0.417000        1.0080           0
   18697 TIP3 3597 TIP3 H2   HT     0.417000        1.0080           0
   18698 TIP3 3598 TIP3 OH2  OT    -0.834000       15.9994           0
   18699 TIP3 3598 TIP3 H1   HT     0.417000        1.0080           0
   18700 TIP3 3598 TIP3 H2   HT     0.417000        1.0080           0
   18701 TIP3 3599 TIP3 OH2  OT    -0.834000       15.9994           0
   18702 TIP3 3599 TIP3 H1   HT     0.417000        1.0080           0
   18703 TIP3 3599 TIP3 H2   HT     0.417000        1.0080           0
   18704 TIP3 3600 TIP3 OH2  OT    -0.834000       15.9994           0
   18705 TIP3 3600 TIP3 H1   HT     0.417000        1.0080           0
   18706 TIP3 3600 TIP3 H2   HT     0.417000        1.0080           0
   18707 TIP3 3601 TIP3 OH2  OT    -0.834000       15.9994           0
   18708 TIP3 3601 TIP3 H1   HT     0.417000        1.0080           0
   18709 TIP3 3601 TIP3 H2   HT     0.417000        1.0080           0
   18710 TIP3 3602 TIP3 OH2  OT    -0.834000       15.9994           0
   18711 TIP3 3602 TIP3 H1   HT     0.417000        1.0080           0
   18712 TIP3 3602 TIP3 H2   HT     0.417000        1.0080           0
   18713 TIP3 3603 TIP3 OH2  OT    -0.834000       15.9994           0
   18714 TIP3 3603 TIP3 H1   HT     0.417000        1.0080           0
   18715 TIP3 3603 TIP3 H2   HT     0.417000        1.0080           0
   18716 TIP3 3604 TIP3 OH2  OT    -0.834000       15.9994           0
   18717 TIP3 3604 TIP3 H1   HT     0.417000        1.0080           0
   18718 TIP3 3604 TIP3 H2   HT     0.417000        1.0080           0
   18719 TIP3 3605 TIP3 OH2  OT    -0.834000       15.9994           0
   18720 TIP3 3605 TIP3 H1   HT     0.417000        1.0080           0
   18721 TIP3 3605 TIP3 H2   HT     0.417000        1.0080           0
   18722 TIP3 3606 TIP3 OH2  OT    -0.834000       15.9994           0
   18723 TIP3 3606 TIP3 H1   HT     0.417000        1.0080           0
   18724 TIP3 3606 TIP3 H2   HT     0.417000        1.0080           0
   18725 TIP3 3607 TIP3 OH2  OT    -0.834000       15.9994           0
   18726 TIP3 3607 TIP3 H1   HT     0.417000        1.0080           0
   18727 TIP3 3607 TIP3 H2   HT     0.417000        1.0080           0
   18728 TIP3 3608 TIP3 OH2  OT    -0.834000       15.9994           0
   18729 TIP3 3608 TIP3 H1   HT     0.417000        1.0080           0
   18730 TIP3 3608 TIP3 H2   HT     0.417000        1.0080           0
   18731 TIP3 3609 TIP3 OH2  OT    -0.834000       15.9994           0
   18732 TIP3 3609 TIP3 H1   HT     0.417000        1.0080           0
   18733 TIP3 3609 TIP3 H2   HT     0.417000        1.0080           0
   18734 TIP3 3610 TIP3 OH2  OT    -0.834000       15.9994           0
   18735 TIP3 3610 TIP3 H1   HT     0.417000        1.0080           0
   18736 TIP3 3610 TIP3 H2   HT     0.417000        1.0080           0
   18737 TIP3 3611 TIP3 OH2  OT    -0.834000       15.9994           0
   18738 TIP3 3611 TIP3 H1   HT     0.417000        1.0080           0
   18739 TIP3 3611 TIP3 H2   HT     0.417000        1.0080           0
   18740 TIP3 3612 TIP3 OH2  OT    -0.834000       15.9994           0
   18741 TIP3 3612 TIP3 H1   HT     0.417000        1.0080           0
   18742 TIP3 3612 TIP3 H2   HT     0.417000        1.0080           0
   18743 TIP3 3613 TIP3 OH2  OT    -0.834000       15.9994           0
   18744 TIP3 3613 TIP3 H1   HT     0.417000        1.0080           0
   18745 TIP3 3613 TIP3 H2   HT     0.417000        1.0080           0
   18746 TIP3 3614 TIP3 OH2  OT    -0.834000       15.9994           0
   18747 TIP3 3614 TIP3 H1   HT     0.417000        1.0080           0
   18748 TIP3 3614 TIP3 H2   HT     0.417000        1.0080           0
   18749 TIP3 3615 TIP3 OH2  OT    -0.834000       15.9994           0
   18750 TIP3 3615 TIP3 H1   HT     0.417000        1.0080           0
   18751 TIP3 3615 TIP3 H2   HT     0.417000        1.0080           0
   18752 TIP3 3616 TIP3 OH2  OT    -0.834000       15.9994           0
   18753 TIP3 3616 TIP3 H1   HT     0.417000        1.0080           0
   18754 TIP3 3616 TIP3 H2   HT     0.417000        1.0080           0
   18755 TIP3 3617 TIP3 OH2  OT    -0.834000       15.9994           0
   18756 TIP3 3617 TIP3 H1   HT     0.417000        1.0080           0
   18757 TIP3 3617 TIP3 H2   HT     0.417000        1.0080           0
   18758 TIP3 3618 TIP3 OH2  OT    -0.834000       15.9994           0
   18759 TIP3 3618 TIP3 H1   HT     0.417000        1.0080           0
   18760 TIP3 3618 TIP3 H2   HT     0.417000        1.0080           0
   18761 TIP3 3619 TIP3 OH2  OT    -0.834000       15.9994           0
   18762 TIP3 3619 TIP3 H1   HT     0.417000        1.0080           0
   18763 TIP3 3619 TIP3 H2   HT     0.417000        1.0080           0
   18764 TIP3 3620 TIP3 OH2  OT    -0.834000       15.9994           0
   18765 TIP3 3620 TIP3 H1   HT     0.417000        1.0080           0
   18766 TIP3 3620 TIP3 H2   HT     0.417000        1.0080           0
   18767 TIP3 3621 TIP3 OH2  OT    -0.834000       15.9994           0
   18768 TIP3 3621 TIP3 H1   HT     0.417000        1.0080           0
   18769 TIP3 3621 TIP3 H2   HT     0.417000        1.0080           0
   18770 TIP3 3622 TIP3 OH2  OT    -0.834000       15.9994           0
   18771 TIP3 3622 TIP3 H1   HT     0.417000        1.0080           0
   18772 TIP3 3622 TIP3 H2   HT     0.417000        1.0080           0
   18773 TIP3 3623 TIP3 OH2  OT    -0.834000       15.9994           0
   18774 TIP3 3623 TIP3 H1   HT     0.417000        1.0080           0
   18775 TIP3 3623 TIP3 H2   HT     0.417000        1.0080           0
   18776 TIP3 3624 TIP3 OH2  OT    -0.834000       15.9994           0
   18777 TIP3 3624 TIP3 H1   HT     0.417000        1.0080           0
   18778 TIP3 3624 TIP3 H2   HT     0.417000        1.0080           0
   18779 TIP3 3625 TIP3 OH2  OT    -0.834000       15.9994           0
   18780 TIP3 3625 TIP3 H1   HT     0.417000        1.0080           0
   18781 TIP3 3625 TIP3 H2   HT     0.417000        1.0080           0
   18782 TIP3 3626 TIP3 OH2  OT    -0.834000       15.9994           0
   18783 TIP3 3626 TIP3 H1   HT     0.417000        1.0080           0
   18784 TIP3 3626 TIP3 H2   HT     0.417000        1.0080           0
   18785 TIP3 3627 TIP3 OH2  OT    -0.834000       15.9994           0
   18786 TIP3 3627 TIP3 H1   HT     0.417000        1.0080           0
   18787 TIP3 3627 TIP3 H2   HT     0.417000        1.0080           0
   18788 TIP3 3628 TIP3 OH2  OT    -0.834000       15.9994           0
   18789 TIP3 3628 TIP3 H1   HT     0.417000        1.0080           0
   18790 TIP3 3628 TIP3 H2   HT     0.417000        1.0080           0
   18791 TIP3 3629 TIP3 OH2  OT    -0.834000       15.9994           0
   18792 TIP3 3629 TIP3 H1   HT     0.417000        1.0080           0
   18793 TIP3 3629 TIP3 H2   HT     0.417000        1.0080           0
   18794 TIP3 3630 TIP3 OH2  OT    -0.834000       15.9994           0
   18795 TIP3 3630 TIP3 H1   HT     0.417000        1.0080           0
   18796 TIP3 3630 TIP3 H2   HT     0.417000        1.0080           0
   18797 TIP3 3631 TIP3 OH2  OT    -0.834000       15.9994           0
   18798 TIP3 3631 TIP3 H1   HT     0.417000        1.0080           0
   18799 TIP3 3631 TIP3 H2   HT     0.417000        1.0080           0
   18800 TIP3 3632 TIP3 OH2  OT    -0.834000       15.9994           0
   18801 TIP3 3632 TIP3 H1   HT     0.417000        1.0080           0
   18802 TIP3 3632 TIP3 H2   HT     0.417000        1.0080           0
   18803 TIP3 3633 TIP3 OH2  OT    -0.834000       15.9994           0
   18804 TIP3 3633 TIP3 H1   HT     0.417000        1.0080           0
   18805 TIP3 3633 TIP3 H2   HT     0.417000        1.0080           0
   18806 TIP3 3634 TIP3 OH2  OT    -0.834000       15.9994           0
   18807 TIP3 3634 TIP3 H1   HT     0.417000        1.0080           0
   18808 TIP3 3634 TIP3 H2   HT     0.417000        1.0080           0
   18809 TIP3 3635 TIP3 OH2  OT    -0.834000       15.9994           0
   18810 TIP3 3635 TIP3 H1   HT     0.417000        1.0080           0
   18811 TIP3 3635 TIP3 H2   HT     0.417000        1.0080           0
   18812 TIP3 3636 TIP3 OH2  OT    -0.834000       15.9994           0
   18813 TIP3 3636 TIP3 H1   HT     0.417000        1.0080           0
   18814 TIP3 3636 TIP3 H2   HT     0.417000        1.0080           0
   18815 TIP3 3637 TIP3 OH2  OT    -0.834000       15.9994           0
   18816 TIP3 3637 TIP3 H1   HT     0.417000        1.0080           0
   18817 TIP3 3637 TIP3 H2   HT     0.417000        1.0080           0
   18818 TIP3 3638 TIP3 OH2  OT    -0.834000       15.9994           0
   18819 TIP3 3638 TIP3 H1   HT     0.417000        1.0080           0
   18820 TIP3 3638 TIP3 H2   HT     0.417000        1.0080           0
   18821 TIP3 3639 TIP3 OH2  OT    -0.834000       15.9994           0
   18822 TIP3 3639 TIP3 H1   HT     0.417000        1.0080           0
   18823 TIP3 3639 TIP3 H2   HT     0.417000        1.0080           0
   18824 TIP3 3640 TIP3 OH2  OT    -0.834000       15.9994           0
   18825 TIP3 3640 TIP3 H1   HT     0.417000        1.0080           0
   18826 TIP3 3640 TIP3 H2   HT     0.417000        1.0080           0
   18827 TIP3 3641 TIP3 OH2  OT    -0.834000       15.9994           0
   18828 TIP3 3641 TIP3 H1   HT     0.417000        1.0080           0
   18829 TIP3 3641 TIP3 H2   HT     0.417000        1.0080           0
   18830 TIP3 3642 TIP3 OH2  OT    -0.834000       15.9994           0
   18831 TIP3 3642 TIP3 H1   HT     0.417000        1.0080           0
   18832 TIP3 3642 TIP3 H2   HT     0.417000        1.0080           0
   18833 TIP3 3643 TIP3 OH2  OT    -0.834000       15.9994           0
   18834 TIP3 3643 TIP3 H1   HT     0.417000        1.0080           0
   18835 TIP3 3643 TIP3 H2   HT     0.417000        1.0080           0
   18836 TIP3 3644 TIP3 OH2  OT    -0.834000       15.9994           0
   18837 TIP3 3644 TIP3 H1   HT     0.417000        1.0080           0
   18838 TIP3 3644 TIP3 H2   HT     0.417000        1.0080           0
   18839 TIP3 3645 TIP3 OH2  OT    -0.834000       15.9994           0
   18840 TIP3 3645 TIP3 H1   HT     0.417000        1.0080           0
   18841 TIP3 3645 TIP3 H2   HT     0.417000        1.0080           0
   18842 TIP3 3646 TIP3 OH2  OT    -0.834000       15.9994           0
   18843 TIP3 3646 TIP3 H1   HT     0.417000        1.0080           0
   18844 TIP3 3646 TIP3 H2   HT     0.417000        1.0080           0
   18845 TIP3 3647 TIP3 OH2  OT    -0.834000       15.9994           0
   18846 TIP3 3647 TIP3 H1   HT     0.417000        1.0080           0
   18847 TIP3 3647 TIP3 H2   HT     0.417000        1.0080           0
   18848 TIP3 3648 TIP3 OH2  OT    -0.834000       15.9994           0
   18849 TIP3 3648 TIP3 H1   HT     0.417000        1.0080           0
   18850 TIP3 3648 TIP3 H2   HT     0.417000        1.0080           0
   18851 TIP3 3649 TIP3 OH2  OT    -0.834000       15.9994           0
   18852 TIP3 3649 TIP3 H1   HT     0.417000        1.0080           0
   18853 TIP3 3649 TIP3 H2   HT     0.417000        1.0080           0
   18854 TIP3 3650 TIP3 OH2  OT    -0.834000       15.9994           0
   18855 TIP3 3650 TIP3 H1   HT     0.417000        1.0080           0
   18856 TIP3 3650 TIP3 H2   HT     0.417000        1.0080           0
   18857 TIP3 3651 TIP3 OH2  OT    -0.834000       15.9994           0
   18858 TIP3 3651 TIP3 H1   HT     0.417000        1.0080           0
   18859 TIP3 3651 TIP3 H2   HT     0.417000        1.0080           0
   18860 TIP3 3652 TIP3 OH2  OT    -0.834000       15.9994           0
   18861 TIP3 3652 TIP3 H1   HT     0.417000        1.0080           0
   18862 TIP3 3652 TIP3 H2   HT     0.417000        1.0080           0
   18863 TIP3 3653 TIP3 OH2  OT    -0.834000       15.9994           0
   18864 TIP3 3653 TIP3 H1   HT     0.417000        1.0080           0
   18865 TIP3 3653 TIP3 H2   HT     0.417000        1.0080           0
   18866 TIP3 3654 TIP3 OH2  OT    -0.834000       15.9994           0
   18867 TIP3 3654 TIP3 H1   HT     0.417000        1.0080           0
   18868 TIP3 3654 TIP3 H2   HT     0.417000        1.0080           0
   18869 TIP3 3655 TIP3 OH2  OT    -0.834000       15.9994           0
   18870 TIP3 3655 TIP3 H1   HT     0.417000        1.0080           0
   18871 TIP3 3655 TIP3 H2   HT     0.417000        1.0080           0
   18872 TIP3 3656 TIP3 OH2  OT    -0.834000       15.9994           0
   18873 TIP3 3656 TIP3 H1   HT     0.417000        1.0080           0
   18874 TIP3 3656 TIP3 H2   HT     0.417000        1.0080           0
   18875 TIP3 3657 TIP3 OH2  OT    -0.834000       15.9994           0
   18876 TIP3 3657 TIP3 H1   HT     0.417000        1.0080           0
   18877 TIP3 3657 TIP3 H2   HT     0.417000        1.0080           0
   18878 TIP3 3658 TIP3 OH2  OT    -0.834000       15.9994           0
   18879 TIP3 3658 TIP3 H1   HT     0.417000        1.0080           0
   18880 TIP3 3658 TIP3 H2   HT     0.417000        1.0080           0
   18881 TIP3 3659 TIP3 OH2  OT    -0.834000       15.9994           0
   18882 TIP3 3659 TIP3 H1   HT     0.417000        1.0080           0
   18883 TIP3 3659 TIP3 H2   HT     0.417000        1.0080           0
   18884 TIP3 3660 TIP3 OH2  OT    -0.834000       15.9994           0
   18885 TIP3 3660 TIP3 H1   HT     0.417000        1.0080           0
   18886 TIP3 3660 TIP3 H2   HT     0.417000        1.0080           0
   18887 TIP3 3661 TIP3 OH2  OT    -0.834000       15.9994           0
   18888 TIP3 3661 TIP3 H1   HT     0.417000        1.0080           0
   18889 TIP3 3661 TIP3 H2   HT     0.417000        1.0080           0
   18890 TIP3 3662 TIP3 OH2  OT    -0.834000       15.9994           0
   18891 TIP3 3662 TIP3 H1   HT     0.417000        1.0080           0
   18892 TIP3 3662 TIP3 H2   HT     0.417000        1.0080           0
   18893 TIP3 3663 TIP3 OH2  OT    -0.834000       15.9994           0
   18894 TIP3 3663 TIP3 H1   HT     0.417000        1.0080           0
   18895 TIP3 3663 TIP3 H2   HT     0.417000        1.0080           0
   18896 TIP3 3664 TIP3 OH2  OT    -0.834000       15.9994           0
   18897 TIP3 3664 TIP3 H1   HT     0.417000        1.0080           0
   18898 TIP3 3664 TIP3 H2   HT     0.417000        1.0080           0
   18899 TIP3 3665 TIP3 OH2  OT    -0.834000       15.9994           0
   18900 TIP3 3665 TIP3 H1   HT     0.417000        1.0080           0
   18901 TIP3 3665 TIP3 H2   HT     0.417000        1.0080           0
   18902 TIP3 3666 TIP3 OH2  OT    -0.834000       15.9994           0
   18903 TIP3 3666 TIP3 H1   HT     0.417000        1.0080           0
   18904 TIP3 3666 TIP3 H2   HT     0.417000        1.0080           0
   18905 TIP3 3667 TIP3 OH2  OT    -0.834000       15.9994           0
   18906 TIP3 3667 TIP3 H1   HT     0.417000        1.0080           0
   18907 TIP3 3667 TIP3 H2   HT     0.417000        1.0080           0
   18908 TIP3 3668 TIP3 OH2  OT    -0.834000       15.9994           0
   18909 TIP3 3668 TIP3 H1   HT     0.417000        1.0080           0
   18910 TIP3 3668 TIP3 H2   HT     0.417000        1.0080           0
   18911 TIP3 3669 TIP3 OH2  OT    -0.834000       15.9994           0
   18912 TIP3 3669 TIP3 H1   HT     0.417000        1.0080           0
   18913 TIP3 3669 TIP3 H2   HT     0.417000        1.0080           0
   18914 TIP3 3670 TIP3 OH2  OT    -0.834000       15.9994           0
   18915 TIP3 3670 TIP3 H1   HT     0.417000        1.0080           0
   18916 TIP3 3670 TIP3 H2   HT     0.417000        1.0080           0
   18917 TIP3 3671 TIP3 OH2  OT    -0.834000       15.9994           0
   18918 TIP3 3671 TIP3 H1   HT     0.417000        1.0080           0
   18919 TIP3 3671 TIP3 H2   HT     0.417000        1.0080           0
   18920 TIP3 3672 TIP3 OH2  OT    -0.834000       15.9994           0
   18921 TIP3 3672 TIP3 H1   HT     0.417000        1.0080           0
   18922 TIP3 3672 TIP3 H2   HT     0.417000        1.0080           0
   18923 TIP3 3673 TIP3 OH2  OT    -0.834000       15.9994           0
   18924 TIP3 3673 TIP3 H1   HT     0.417000        1.0080           0
   18925 TIP3 3673 TIP3 H2   HT     0.417000        1.0080           0
   18926 TIP3 3674 TIP3 OH2  OT    -0.834000       15.9994           0
   18927 TIP3 3674 TIP3 H1   HT     0.417000        1.0080           0
   18928 TIP3 3674 TIP3 H2   HT     0.417000        1.0080           0
   18929 TIP3 3675 TIP3 OH2  OT    -0.834000       15.9994           0
   18930 TIP3 3675 TIP3 H1   HT     0.417000        1.0080           0
   18931 TIP3 3675 TIP3 H2   HT     0.417000        1.0080           0
   18932 TIP3 3676 TIP3 OH2  OT    -0.834000       15.9994           0
   18933 TIP3 3676 TIP3 H1   HT     0.417000        1.0080           0
   18934 TIP3 3676 TIP3 H2   HT     0.417000        1.0080           0
   18935 TIP3 3677 TIP3 OH2  OT    -0.834000       15.9994           0
   18936 TIP3 3677 TIP3 H1   HT     0.417000        1.0080           0
   18937 TIP3 3677 TIP3 H2   HT     0.417000        1.0080           0
   18938 TIP3 3678 TIP3 OH2  OT    -0.834000       15.9994           0
   18939 TIP3 3678 TIP3 H1   HT     0.417000        1.0080           0
   18940 TIP3 3678 TIP3 H2   HT     0.417000        1.0080           0
   18941 TIP3 3679 TIP3 OH2  OT    -0.834000       15.9994           0
   18942 TIP3 3679 TIP3 H1   HT     0.417000        1.0080           0
   18943 TIP3 3679 TIP3 H2   HT     0.417000        1.0080           0
   18944 TIP3 3680 TIP3 OH2  OT    -0.834000       15.9994           0
   18945 TIP3 3680 TIP3 H1   HT     0.417000        1.0080           0
   18946 TIP3 3680 TIP3 H2   HT     0.417000        1.0080           0
   18947 TIP3 3681 TIP3 OH2  OT    -0.834000       15.9994           0
   18948 TIP3 3681 TIP3 H1   HT     0.417000        1.0080           0
   18949 TIP3 3681 TIP3 H2   HT     0.417000        1.0080           0
   18950 TIP3 3682 TIP3 OH2  OT    -0.834000       15.9994           0
   18951 TIP3 3682 TIP3 H1   HT     0.417000        1.0080           0
   18952 TIP3 3682 TIP3 H2   HT     0.417000        1.0080           0
   18953 TIP3 3683 TIP3 OH2  OT    -0.834000       15.9994           0
   18954 TIP3 3683 TIP3 H1   HT     0.417000        1.0080           0
   18955 TIP3 3683 TIP3 H2   HT     0.417000        1.0080           0
   18956 TIP3 3684 TIP3 OH2  OT    -0.834000       15.9994           0
   18957 TIP3 3684 TIP3 H1   HT     0.417000        1.0080           0
   18958 TIP3 3684 TIP3 H2   HT     0.417000        1.0080           0
   18959 TIP3 3685 TIP3 OH2  OT    -0.834000       15.9994           0
   18960 TIP3 3685 TIP3 H1   HT     0.417000        1.0080           0
   18961 TIP3 3685 TIP3 H2   HT     0.417000        1.0080           0
   18962 TIP3 3686 TIP3 OH2  OT    -0.834000       15.9994           0
   18963 TIP3 3686 TIP3 H1   HT     0.417000        1.0080           0
   18964 TIP3 3686 TIP3 H2   HT     0.417000        1.0080           0
   18965 TIP3 3687 TIP3 OH2  OT    -0.834000       15.9994           0
   18966 TIP3 3687 TIP3 H1   HT     0.417000        1.0080           0
   18967 TIP3 3687 TIP3 H2   HT     0.417000        1.0080           0
   18968 TIP3 3688 TIP3 OH2  OT    -0.834000       15.9994           0
   18969 TIP3 3688 TIP3 H1   HT     0.417000        1.0080           0
   18970 TIP3 3688 TIP3 H2   HT     0.417000        1.0080           0
   18971 TIP3 3689 TIP3 OH2  OT    -0.834000       15.9994           0
   18972 TIP3 3689 TIP3 H1   HT     0.417000        1.0080           0
   18973 TIP3 3689 TIP3 H2   HT     0.417000        1.0080           0
   18974 TIP3 3690 TIP3 OH2  OT    -0.834000       15.9994           0
   18975 TIP3 3690 TIP3 H1   HT     0.417000        1.0080           0
   18976 TIP3 3690 TIP3 H2   HT     0.417000        1.0080           0
   18977 TIP3 3691 TIP3 OH2  OT    -0.834000       15.9994           0
   18978 TIP3 3691 TIP3 H1   HT     0.417000        1.0080           0
   18979 TIP3 3691 TIP3 H2   HT     0.417000        1.0080           0
   18980 TIP3 3692 TIP3 OH2  OT    -0.834000       15.9994           0
   18981 TIP3 3692 TIP3 H1   HT     0.417000        1.0080           0
   18982 TIP3 3692 TIP3 H2   HT     0.417000        1.0080           0
   18983 TIP3 3693 TIP3 OH2  OT    -0.834000       15.9994           0
   18984 TIP3 3693 TIP3 H1   HT     0.417000        1.0080           0
   18985 TIP3 3693 TIP3 H2   HT     0.417000        1.0080           0
   18986 TIP3 3694 TIP3 OH2  OT    -0.834000       15.9994           0
   18987 TIP3 3694 TIP3 H1   HT     0.417000        1.0080           0
   18988 TIP3 3694 TIP3 H2   HT     0.417000        1.0080           0
   18989 TIP3 3695 TIP3 OH2  OT    -0.834000       15.9994           0
   18990 TIP3 3695 TIP3 H1   HT     0.417000        1.0080           0
   18991 TIP3 3695 TIP3 H2   HT     0.417000        1.0080           0
   18992 TIP3 3696 TIP3 OH2  OT    -0.834000       15.9994           0
   18993 TIP3 3696 TIP3 H1   HT     0.417000        1.0080           0
   18994 TIP3 3696 TIP3 H2   HT     0.417000        1.0080           0
   18995 TIP3 3697 TIP3 OH2  OT    -0.834000       15.9994           0
   18996 TIP3 3697 TIP3 H1   HT     0.417000        1.0080           0
   18997 TIP3 3697 TIP3 H2   HT     0.417000        1.0080           0
   18998 TIP3 3698 TIP3 OH2  OT    -0.834000       15.9994           0
   18999 TIP3 3698 TIP3 H1   HT     0.417000        1.0080           0
   19000 TIP3 3698 TIP3 H2   HT     0.417000        1.0080           0
   19001 TIP3 3699 TIP3 OH2  OT    -0.834000       15.9994           0
   19002 TIP3 3699 TIP3 H1   HT     0.417000        1.0080           0
   19003 TIP3 3699 TIP3 H2   HT     0.417000        1.0080           0
   19004 TIP3 3700 TIP3 OH2  OT    -0.834000       15.9994           0
   19005 TIP3 3700 TIP3 H1   HT     0.417000        1.0080           0
   19006 TIP3 3700 TIP3 H2   HT     0.417000        1.0080           0
   19007 TIP3 3701 TIP3 OH2  OT    -0.834000       15.9994           0
   19008 TIP3 3701 TIP3 H1   HT     0.417000        1.0080           0
   19009 TIP3 3701 TIP3 H2   HT     0.417000        1.0080           0
   19010 TIP3 3702 TIP3 OH2  OT    -0.834000       15.9994           0
   19011 TIP3 3702 TIP3 H1   HT     0.417000        1.0080           0
   19012 TIP3 3702 TIP3 H2   HT     0.417000        1.0080           0
   19013 TIP3 3703 TIP3 OH2  OT    -0.834000       15.9994           0
   19014 TIP3 3703 TIP3 H1   HT     0.417000        1.0080           0
   19015 TIP3 3703 TIP3 H2   HT     0.417000        1.0080           0
   19016 TIP3 3704 TIP3 OH2  OT    -0.834000       15.9994           0
   19017 TIP3 3704 TIP3 H1   HT     0.417000        1.0080           0
   19018 TIP3 3704 TIP3 H2   HT     0.417000        1.0080           0
   19019 TIP3 3705 TIP3 OH2  OT    -0.834000       15.9994           0
   19020 TIP3 3705 TIP3 H1   HT     0.417000        1.0080           0
   19021 TIP3 3705 TIP3 H2   HT     0.417000        1.0080           0
   19022 TIP3 3706 TIP3 OH2  OT    -0.834000       15.9994           0
   19023 TIP3 3706 TIP3 H1   HT     0.417000        1.0080           0
   19024 TIP3 3706 TIP3 H2   HT     0.417000        1.0080           0
   19025 TIP3 3707 TIP3 OH2  OT    -0.834000       15.9994           0
   19026 TIP3 3707 TIP3 H1   HT     0.417000        1.0080           0
   19027 TIP3 3707 TIP3 H2   HT     0.417000        1.0080           0
   19028 TIP3 3708 TIP3 OH2  OT    -0.834000       15.9994           0
   19029 TIP3 3708 TIP3 H1   HT     0.417000        1.0080           0
   19030 TIP3 3708 TIP3 H2   HT     0.417000        1.0080           0
   19031 TIP3 3709 TIP3 OH2  OT    -0.834000       15.9994           0
   19032 TIP3 3709 TIP3 H1   HT     0.417000        1.0080           0
   19033 TIP3 3709 TIP3 H2   HT     0.417000        1.0080           0
   19034 TIP3 3710 TIP3 OH2  OT    -0.834000       15.9994           0
   19035 TIP3 3710 TIP3 H1   HT     0.417000        1.0080           0
   19036 TIP3 3710 TIP3 H2   HT     0.417000        1.0080           0
   19037 TIP3 3711 TIP3 OH2  OT    -0.834000       15.9994           0
   19038 TIP3 3711 TIP3 H1   HT     0.417000        1.0080           0
   19039 TIP3 3711 TIP3 H2   HT     0.417000        1.0080           0
   19040 TIP3 3712 TIP3 OH2  OT    -0.834000       15.9994           0
   19041 TIP3 3712 TIP3 H1   HT     0.417000        1.0080           0
   19042 TIP3 3712 TIP3 H2   HT     0.417000        1.0080           0
   19043 TIP3 3713 TIP3 OH2  OT    -0.834000       15.9994           0
   19044 TIP3 3713 TIP3 H1   HT     0.417000        1.0080           0
   19045 TIP3 3713 TIP3 H2   HT     0.417000        1.0080           0
   19046 TIP3 3714 TIP3 OH2  OT    -0.834000       15.9994           0
   19047 TIP3 3714 TIP3 H1   HT     0.417000        1.0080           0
   19048 TIP3 3714 TIP3 H2   HT     0.417000        1.0080           0
   19049 TIP3 3715 TIP3 OH2  OT    -0.834000       15.9994           0
   19050 TIP3 3715 TIP3 H1   HT     0.417000        1.0080           0
   19051 TIP3 3715 TIP3 H2   HT     0.417000        1.0080           0
   19052 TIP3 3716 TIP3 OH2  OT    -0.834000       15.9994           0
   19053 TIP3 3716 TIP3 H1   HT     0.417000        1.0080           0
   19054 TIP3 3716 TIP3 H2   HT     0.417000        1.0080           0
   19055 TIP3 3717 TIP3 OH2  OT    -0.834000       15.9994           0
   19056 TIP3 3717 TIP3 H1   HT     0.417000        1.0080           0
   19057 TIP3 3717 TIP3 H2   HT     0.417000        1.0080           0
   19058 TIP3 3718 TIP3 OH2  OT    -0.834000       15.9994           0
   19059 TIP3 3718 TIP3 H1   HT     0.417000        1.0080           0
   19060 TIP3 3718 TIP3 H2   HT     0.417000        1.0080           0
   19061 TIP3 3719 TIP3 OH2  OT    -0.834000       15.9994           0
   19062 TIP3 3719 TIP3 H1   HT     0.417000        1.0080           0
   19063 TIP3 3719 TIP3 H2   HT     0.417000        1.0080           0
   19064 TIP3 3720 TIP3 OH2  OT    -0.834000       15.9994           0
   19065 TIP3 3720 TIP3 H1   HT     0.417000        1.0080           0
   19066 TIP3 3720 TIP3 H2   HT     0.417000        1.0080           0
   19067 TIP3 3721 TIP3 OH2  OT    -0.834000       15.9994           0
   19068 TIP3 3721 TIP3 H1   HT     0.417000        1.0080           0
   19069 TIP3 3721 TIP3 H2   HT     0.417000        1.0080           0
   19070 TIP3 3722 TIP3 OH2  OT    -0.834000       15.9994           0
   19071 TIP3 3722 TIP3 H1   HT     0.417000        1.0080           0
   19072 TIP3 3722 TIP3 H2   HT     0.417000        1.0080           0
   19073 TIP3 3723 TIP3 OH2  OT    -0.834000       15.9994           0
   19074 TIP3 3723 TIP3 H1   HT     0.417000        1.0080           0
   19075 TIP3 3723 TIP3 H2   HT     0.417000        1.0080           0
   19076 TIP3 3724 TIP3 OH2  OT    -0.834000       15.9994           0
   19077 TIP3 3724 TIP3 H1   HT     0.417000        1.0080           0
   19078 TIP3 3724 TIP3 H2   HT     0.417000        1.0080           0
   19079 TIP3 3725 TIP3 OH2  OT    -0.834000       15.9994           0
   19080 TIP3 3725 TIP3 H1   HT     0.417000        1.0080           0
   19081 TIP3 3725 TIP3 H2   HT     0.417000        1.0080           0
   19082 TIP3 3726 TIP3 OH2  OT    -0.834000       15.9994           0
   19083 TIP3 3726 TIP3 H1   HT     0.417000        1.0080           0
   19084 TIP3 3726 TIP3 H2   HT     0.417000        1.0080           0
   19085 TIP3 3727 TIP3 OH2  OT    -0.834000       15.9994           0
   19086 TIP3 3727 TIP3 H1   HT     0.417000        1.0080           0
   19087 TIP3 3727 TIP3 H2   HT     0.417000        1.0080           0
   19088 TIP3 3728 TIP3 OH2  OT    -0.834000       15.9994           0
   19089 TIP3 3728 TIP3 H1   HT     0.417000        1.0080           0
   19090 TIP3 3728 TIP3 H2   HT     0.417000        1.0080           0
   19091 TIP3 3729 TIP3 OH2  OT    -0.834000       15.9994           0
   19092 TIP3 3729 TIP3 H1   HT     0.417000        1.0080           0
   19093 TIP3 3729 TIP3 H2   HT     0.417000        1.0080           0
   19094 TIP3 3730 TIP3 OH2  OT    -0.834000       15.9994           0
   19095 TIP3 3730 TIP3 H1   HT     0.417000        1.0080           0
   19096 TIP3 3730 TIP3 H2   HT     0.417000        1.0080           0
   19097 TIP3 3731 TIP3 OH2  OT    -0.834000       15.9994           0
   19098 TIP3 3731 TIP3 H1   HT     0.417000        1.0080           0
   19099 TIP3 3731 TIP3 H2   HT     0.417000        1.0080           0
   19100 TIP3 3732 TIP3 OH2  OT    -0.834000       15.9994           0
   19101 TIP3 3732 TIP3 H1   HT     0.417000        1.0080           0
   19102 TIP3 3732 TIP3 H2   HT     0.417000        1.0080           0
   19103 TIP3 3733 TIP3 OH2  OT    -0.834000       15.9994           0
   19104 TIP3 3733 TIP3 H1   HT     0.417000        1.0080           0
   19105 TIP3 3733 TIP3 H2   HT     0.417000        1.0080           0
   19106 TIP3 3734 TIP3 OH2  OT    -0.834000       15.9994           0
   19107 TIP3 3734 TIP3 H1   HT     0.417000        1.0080           0
   19108 TIP3 3734 TIP3 H2   HT     0.417000        1.0080           0
   19109 TIP3 3735 TIP3 OH2  OT    -0.834000       15.9994           0
   19110 TIP3 3735 TIP3 H1   HT     0.417000        1.0080           0
   19111 TIP3 3735 TIP3 H2   HT     0.417000        1.0080           0
   19112 TIP3 3736 TIP3 OH2  OT    -0.834000       15.9994           0
   19113 TIP3 3736 TIP3 H1   HT     0.417000        1.0080           0
   19114 TIP3 3736 TIP3 H2   HT     0.417000        1.0080           0
   19115 TIP3 3737 TIP3 OH2  OT    -0.834000       15.9994           0
   19116 TIP3 3737 TIP3 H1   HT     0.417000        1.0080           0
   19117 TIP3 3737 TIP3 H2   HT     0.417000        1.0080           0
   19118 TIP3 3738 TIP3 OH2  OT    -0.834000       15.9994           0
   19119 TIP3 3738 TIP3 H1   HT     0.417000        1.0080           0
   19120 TIP3 3738 TIP3 H2   HT     0.417000        1.0080           0
   19121 TIP3 3739 TIP3 OH2  OT    -0.834000       15.9994           0
   19122 TIP3 3739 TIP3 H1   HT     0.417000        1.0080           0
   19123 TIP3 3739 TIP3 H2   HT     0.417000        1.0080           0
   19124 TIP3 3740 TIP3 OH2  OT    -0.834000       15.9994           0
   19125 TIP3 3740 TIP3 H1   HT     0.417000        1.0080           0
   19126 TIP3 3740 TIP3 H2   HT     0.417000        1.0080           0
   19127 TIP3 3741 TIP3 OH2  OT    -0.834000       15.9994           0
   19128 TIP3 3741 TIP3 H1   HT     0.417000        1.0080           0
   19129 TIP3 3741 TIP3 H2   HT     0.417000        1.0080           0
   19130 TIP3 3742 TIP3 OH2  OT    -0.834000       15.9994           0
   19131 TIP3 3742 TIP3 H1   HT     0.417000        1.0080           0
   19132 TIP3 3742 TIP3 H2   HT     0.417000        1.0080           0
   19133 TIP3 3743 TIP3 OH2  OT    -0.834000       15.9994           0
   19134 TIP3 3743 TIP3 H1   HT     0.417000        1.0080           0
   19135 TIP3 3743 TIP3 H2   HT     0.417000        1.0080           0
   19136 TIP3 3744 TIP3 OH2  OT    -0.834000       15.9994           0
   19137 TIP3 3744 TIP3 H1   HT     0.417000        1.0080           0
   19138 TIP3 3744 TIP3 H2   HT     0.417000        1.0080           0
   19139 TIP3 3745 TIP3 OH2  OT    -0.834000       15.9994           0
   19140 TIP3 3745 TIP3 H1   HT     0.417000        1.0080           0
   19141 TIP3 3745 TIP3 H2   HT     0.417000        1.0080           0
   19142 TIP3 3746 TIP3 OH2  OT    -0.834000       15.9994           0
   19143 TIP3 3746 TIP3 H1   HT     0.417000        1.0080           0
   19144 TIP3 3746 TIP3 H2   HT     0.417000        1.0080           0
   19145 TIP3 3747 TIP3 OH2  OT    -0.834000       15.9994           0
   19146 TIP3 3747 TIP3 H1   HT     0.417000        1.0080           0
   19147 TIP3 3747 TIP3 H2   HT     0.417000        1.0080           0
   19148 TIP3 3748 TIP3 OH2  OT    -0.834000       15.9994           0
   19149 TIP3 3748 TIP3 H1   HT     0.417000        1.0080           0
   19150 TIP3 3748 TIP3 H2   HT     0.417000        1.0080           0
   19151 TIP3 3749 TIP3 OH2  OT    -0.834000       15.9994           0
   19152 TIP3 3749 TIP3 H1   HT     0.417000        1.0080           0
   19153 TIP3 3749 TIP3 H2   HT     0.417000        1.0080           0
   19154 TIP3 3750 TIP3 OH2  OT    -0.834000       15.9994           0
   19155 TIP3 3750 TIP3 H1   HT     0.417000        1.0080           0
   19156 TIP3 3750 TIP3 H2   HT     0.417000        1.0080           0
   19157 TIP3 3751 TIP3 OH2  OT    -0.834000       15.9994           0
   19158 TIP3 3751 TIP3 H1   HT     0.417000        1.0080           0
   19159 TIP3 3751 TIP3 H2   HT     0.417000        1.0080           0
   19160 TIP3 3752 TIP3 OH2  OT    -0.834000       15.9994           0
   19161 TIP3 3752 TIP3 H1   HT     0.417000        1.0080           0
   19162 TIP3 3752 TIP3 H2   HT     0.417000        1.0080           0
   19163 TIP3 3753 TIP3 OH2  OT    -0.834000       15.9994           0
   19164 TIP3 3753 TIP3 H1   HT     0.417000        1.0080           0
   19165 TIP3 3753 TIP3 H2   HT     0.417000        1.0080           0
   19166 TIP3 3754 TIP3 OH2  OT    -0.834000       15.9994           0
   19167 TIP3 3754 TIP3 H1   HT     0.417000        1.0080           0
   19168 TIP3 3754 TIP3 H2   HT     0.417000        1.0080           0
   19169 TIP3 3755 TIP3 OH2  OT    -0.834000       15.9994           0
   19170 TIP3 3755 TIP3 H1   HT     0.417000        1.0080           0
   19171 TIP3 3755 TIP3 H2   HT     0.417000        1.0080           0
   19172 TIP3 3756 TIP3 OH2  OT    -0.834000       15.9994           0
   19173 TIP3 3756 TIP3 H1   HT     0.417000        1.0080           0
   19174 TIP3 3756 TIP3 H2   HT     0.417000        1.0080           0
   19175 TIP3 3757 TIP3 OH2  OT    -0.834000       15.9994           0
   19176 TIP3 3757 TIP3 H1   HT     0.417000        1.0080           0
   19177 TIP3 3757 TIP3 H2   HT     0.417000        1.0080           0
   19178 TIP3 3758 TIP3 OH2  OT    -0.834000       15.9994           0
   19179 TIP3 3758 TIP3 H1   HT     0.417000        1.0080           0
   19180 TIP3 3758 TIP3 H2   HT     0.417000        1.0080           0
   19181 TIP3 3759 TIP3 OH2  OT    -0.834000       15.9994           0
   19182 TIP3 3759 TIP3 H1   HT     0.417000        1.0080           0
   19183 TIP3 3759 TIP3 H2   HT     0.417000        1.0080           0
   19184 TIP3 3760 TIP3 OH2  OT    -0.834000       15.9994           0
   19185 TIP3 3760 TIP3 H1   HT     0.417000        1.0080           0
   19186 TIP3 3760 TIP3 H2   HT     0.417000        1.0080           0
   19187 TIP3 3761 TIP3 OH2  OT    -0.834000       15.9994           0
   19188 TIP3 3761 TIP3 H1   HT     0.417000        1.0080           0
   19189 TIP3 3761 TIP3 H2   HT     0.417000        1.0080           0
   19190 TIP3 3762 TIP3 OH2  OT    -0.834000       15.9994           0
   19191 TIP3 3762 TIP3 H1   HT     0.417000        1.0080           0
   19192 TIP3 3762 TIP3 H2   HT     0.417000        1.0080           0
   19193 TIP3 3763 TIP3 OH2  OT    -0.834000       15.9994           0
   19194 TIP3 3763 TIP3 H1   HT     0.417000        1.0080           0
   19195 TIP3 3763 TIP3 H2   HT     0.417000        1.0080           0
   19196 TIP3 3764 TIP3 OH2  OT    -0.834000       15.9994           0
   19197 TIP3 3764 TIP3 H1   HT     0.417000        1.0080           0
   19198 TIP3 3764 TIP3 H2   HT     0.417000        1.0080           0
   19199 TIP3 3765 TIP3 OH2  OT    -0.834000       15.9994           0
   19200 TIP3 3765 TIP3 H1   HT     0.417000        1.0080           0
   19201 TIP3 3765 TIP3 H2   HT     0.417000        1.0080           0
   19202 TIP3 3766 TIP3 OH2  OT    -0.834000       15.9994           0
   19203 TIP3 3766 TIP3 H1   HT     0.417000        1.0080           0
   19204 TIP3 3766 TIP3 H2   HT     0.417000        1.0080           0
   19205 TIP3 3767 TIP3 OH2  OT    -0.834000       15.9994           0
   19206 TIP3 3767 TIP3 H1   HT     0.417000        1.0080           0
   19207 TIP3 3767 TIP3 H2   HT     0.417000        1.0080           0
   19208 TIP3 3768 TIP3 OH2  OT    -0.834000       15.9994           0
   19209 TIP3 3768 TIP3 H1   HT     0.417000        1.0080           0
   19210 TIP3 3768 TIP3 H2   HT     0.417000        1.0080           0
   19211 TIP3 3769 TIP3 OH2  OT    -0.834000       15.9994           0
   19212 TIP3 3769 TIP3 H1   HT     0.417000        1.0080           0
   19213 TIP3 3769 TIP3 H2   HT     0.417000        1.0080           0
   19214 TIP3 3770 TIP3 OH2  OT    -0.834000       15.9994           0
   19215 TIP3 3770 TIP3 H1   HT     0.417000        1.0080           0
   19216 TIP3 3770 TIP3 H2   HT     0.417000        1.0080           0
   19217 TIP3 3771 TIP3 OH2  OT    -0.834000       15.9994           0
   19218 TIP3 3771 TIP3 H1   HT     0.417000        1.0080           0
   19219 TIP3 3771 TIP3 H2   HT     0.417000        1.0080           0
   19220 TIP3 3772 TIP3 OH2  OT    -0.834000       15.9994           0
   19221 TIP3 3772 TIP3 H1   HT     0.417000        1.0080           0
   19222 TIP3 3772 TIP3 H2   HT     0.417000        1.0080           0
   19223 TIP3 3773 TIP3 OH2  OT    -0.834000       15.9994           0
   19224 TIP3 3773 TIP3 H1   HT     0.417000        1.0080           0
   19225 TIP3 3773 TIP3 H2   HT     0.417000        1.0080           0
   19226 TIP3 3774 TIP3 OH2  OT    -0.834000       15.9994           0
   19227 TIP3 3774 TIP3 H1   HT     0.417000        1.0080           0
   19228 TIP3 3774 TIP3 H2   HT     0.417000        1.0080           0
   19229 TIP3 3775 TIP3 OH2  OT    -0.834000       15.9994           0
   19230 TIP3 3775 TIP3 H1   HT     0.417000        1.0080           0
   19231 TIP3 3775 TIP3 H2   HT     0.417000        1.0080           0
   19232 TIP3 3776 TIP3 OH2  OT    -0.834000       15.9994           0
   19233 TIP3 3776 TIP3 H1   HT     0.417000        1.0080           0
   19234 TIP3 3776 TIP3 H2   HT     0.417000        1.0080           0
   19235 TIP3 3777 TIP3 OH2  OT    -0.834000       15.9994           0
   19236 TIP3 3777 TIP3 H1   HT     0.417000        1.0080           0
   19237 TIP3 3777 TIP3 H2   HT     0.417000        1.0080           0
   19238 TIP3 3778 TIP3 OH2  OT    -0.834000       15.9994           0
   19239 TIP3 3778 TIP3 H1   HT     0.417000        1.0080           0
   19240 TIP3 3778 TIP3 H2   HT     0.417000        1.0080           0
   19241 TIP3 3779 TIP3 OH2  OT    -0.834000       15.9994           0
   19242 TIP3 3779 TIP3 H1   HT     0.417000        1.0080           0
   19243 TIP3 3779 TIP3 H2   HT     0.417000        1.0080           0
   19244 TIP3 3780 TIP3 OH2  OT    -0.834000       15.9994           0
   19245 TIP3 3780 TIP3 H1   HT     0.417000        1.0080           0
   19246 TIP3 3780 TIP3 H2   HT     0.417000        1.0080           0
   19247 TIP3 3781 TIP3 OH2  OT    -0.834000       15.9994           0
   19248 TIP3 3781 TIP3 H1   HT     0.417000        1.0080           0
   19249 TIP3 3781 TIP3 H2   HT     0.417000        1.0080           0
   19250 TIP3 3782 TIP3 OH2  OT    -0.834000       15.9994           0
   19251 TIP3 3782 TIP3 H1   HT     0.417000        1.0080           0
   19252 TIP3 3782 TIP3 H2   HT     0.417000        1.0080           0
   19253 TIP3 3783 TIP3 OH2  OT    -0.834000       15.9994           0
   19254 TIP3 3783 TIP3 H1   HT     0.417000        1.0080           0
   19255 TIP3 3783 TIP3 H2   HT     0.417000        1.0080           0
   19256 TIP3 3784 TIP3 OH2  OT    -0.834000       15.9994           0
   19257 TIP3 3784 TIP3 H1   HT     0.417000        1.0080           0
   19258 TIP3 3784 TIP3 H2   HT     0.417000        1.0080           0
   19259 TIP3 3785 TIP3 OH2  OT    -0.834000       15.9994           0
   19260 TIP3 3785 TIP3 H1   HT     0.417000        1.0080           0
   19261 TIP3 3785 TIP3 H2   HT     0.417000        1.0080           0
   19262 TIP3 3786 TIP3 OH2  OT    -0.834000       15.9994           0
   19263 TIP3 3786 TIP3 H1   HT     0.417000        1.0080           0
   19264 TIP3 3786 TIP3 H2   HT     0.417000        1.0080           0
   19265 TIP3 3787 TIP3 OH2  OT    -0.834000       15.9994           0
   19266 TIP3 3787 TIP3 H1   HT     0.417000        1.0080           0
   19267 TIP3 3787 TIP3 H2   HT     0.417000        1.0080           0
   19268 TIP3 3788 TIP3 OH2  OT    -0.834000       15.9994           0
   19269 TIP3 3788 TIP3 H1   HT     0.417000        1.0080           0
   19270 TIP3 3788 TIP3 H2   HT     0.417000        1.0080           0
   19271 TIP3 3789 TIP3 OH2  OT    -0.834000       15.9994           0
   19272 TIP3 3789 TIP3 H1   HT     0.417000        1.0080           0
   19273 TIP3 3789 TIP3 H2   HT     0.417000        1.0080           0
   19274 TIP3 3790 TIP3 OH2  OT    -0.834000       15.9994           0
   19275 TIP3 3790 TIP3 H1   HT     0.417000        1.0080           0
   19276 TIP3 3790 TIP3 H2   HT     0.417000        1.0080           0
   19277 TIP3 3791 TIP3 OH2  OT    -0.834000       15.9994           0
   19278 TIP3 3791 TIP3 H1   HT     0.417000        1.0080           0
   19279 TIP3 3791 TIP3 H2   HT     0.417000        1.0080           0
   19280 TIP3 3792 TIP3 OH2  OT    -0.834000       15.9994           0
   19281 TIP3 3792 TIP3 H1   HT     0.417000        1.0080           0
   19282 TIP3 3792 TIP3 H2   HT     0.417000        1.0080           0
   19283 TIP3 3793 TIP3 OH2  OT    -0.834000       15.9994           0
   19284 TIP3 3793 TIP3 H1   HT     0.417000        1.0080           0
   19285 TIP3 3793 TIP3 H2   HT     0.417000        1.0080           0
   19286 TIP3 3794 TIP3 OH2  OT    -0.834000       15.9994           0
   19287 TIP3 3794 TIP3 H1   HT     0.417000        1.0080           0
   19288 TIP3 3794 TIP3 H2   HT     0.417000        1.0080           0
   19289 TIP3 3795 TIP3 OH2  OT    -0.834000       15.9994           0
   19290 TIP3 3795 TIP3 H1   HT     0.417000        1.0080           0
   19291 TIP3 3795 TIP3 H2   HT     0.417000        1.0080           0
   19292 TIP3 3796 TIP3 OH2  OT    -0.834000       15.9994           0
   19293 TIP3 3796 TIP3 H1   HT     0.417000        1.0080           0
   19294 TIP3 3796 TIP3 H2   HT     0.417000        1.0080           0
   19295 TIP3 3797 TIP3 OH2  OT    -0.834000       15.9994           0
   19296 TIP3 3797 TIP3 H1   HT     0.417000        1.0080           0
   19297 TIP3 3797 TIP3 H2   HT     0.417000        1.0080           0
   19298 TIP3 3798 TIP3 OH2  OT    -0.834000       15.9994           0
   19299 TIP3 3798 TIP3 H1   HT     0.417000        1.0080           0
   19300 TIP3 3798 TIP3 H2   HT     0.417000        1.0080           0
   19301 TIP3 3799 TIP3 OH2  OT    -0.834000       15.9994           0
   19302 TIP3 3799 TIP3 H1   HT     0.417000        1.0080           0
   19303 TIP3 3799 TIP3 H2   HT     0.417000        1.0080           0
   19304 TIP3 3800 TIP3 OH2  OT    -0.834000       15.9994           0
   19305 TIP3 3800 TIP3 H1   HT     0.417000        1.0080           0
   19306 TIP3 3800 TIP3 H2   HT     0.417000        1.0080           0
   19307 TIP3 3801 TIP3 OH2  OT    -0.834000       15.9994           0
   19308 TIP3 3801 TIP3 H1   HT     0.417000        1.0080           0
   19309 TIP3 3801 TIP3 H2   HT     0.417000        1.0080           0
   19310 TIP3 3802 TIP3 OH2  OT    -0.834000       15.9994           0
   19311 TIP3 3802 TIP3 H1   HT     0.417000        1.0080           0
   19312 TIP3 3802 TIP3 H2   HT     0.417000        1.0080           0
   19313 TIP3 3803 TIP3 OH2  OT    -0.834000       15.9994           0
   19314 TIP3 3803 TIP3 H1   HT     0.417000        1.0080           0
   19315 TIP3 3803 TIP3 H2   HT     0.417000        1.0080           0
   19316 TIP3 3804 TIP3 OH2  OT    -0.834000       15.9994           0
   19317 TIP3 3804 TIP3 H1   HT     0.417000        1.0080           0
   19318 TIP3 3804 TIP3 H2   HT     0.417000        1.0080           0
   19319 TIP3 3805 TIP3 OH2  OT    -0.834000       15.9994           0
   19320 TIP3 3805 TIP3 H1   HT     0.417000        1.0080           0
   19321 TIP3 3805 TIP3 H2   HT     0.417000        1.0080           0
   19322 TIP3 3806 TIP3 OH2  OT    -0.834000       15.9994           0
   19323 TIP3 3806 TIP3 H1   HT     0.417000        1.0080           0
   19324 TIP3 3806 TIP3 H2   HT     0.417000        1.0080           0
   19325 TIP3 3807 TIP3 OH2  OT    -0.834000       15.9994           0
   19326 TIP3 3807 TIP3 H1   HT     0.417000        1.0080           0
   19327 TIP3 3807 TIP3 H2   HT     0.417000        1.0080           0
   19328 TIP3 3808 TIP3 OH2  OT    -0.834000       15.9994           0
   19329 TIP3 3808 TIP3 H1   HT     0.417000        1.0080           0
   19330 TIP3 3808 TIP3 H2   HT     0.417000        1.0080           0
   19331 TIP3 3809 TIP3 OH2  OT    -0.834000       15.9994           0
   19332 TIP3 3809 TIP3 H1   HT     0.417000        1.0080           0
   19333 TIP3 3809 TIP3 H2   HT     0.417000        1.0080           0
   19334 TIP3 3810 TIP3 OH2  OT    -0.834000       15.9994           0
   19335 TIP3 3810 TIP3 H1   HT     0.417000        1.0080           0
   19336 TIP3 3810 TIP3 H2   HT     0.417000        1.0080           0
   19337 TIP3 3811 TIP3 OH2  OT    -0.834000       15.9994           0
   19338 TIP3 3811 TIP3 H1   HT     0.417000        1.0080           0
   19339 TIP3 3811 TIP3 H2   HT     0.417000        1.0080           0
   19340 TIP3 3812 TIP3 OH2  OT    -0.834000       15.9994           0
   19341 TIP3 3812 TIP3 H1   HT     0.417000        1.0080           0
   19342 TIP3 3812 TIP3 H2   HT     0.417000        1.0080           0
   19343 TIP3 3813 TIP3 OH2  OT    -0.834000       15.9994           0
   19344 TIP3 3813 TIP3 H1   HT     0.417000        1.0080           0
   19345 TIP3 3813 TIP3 H2   HT     0.417000        1.0080           0
   19346 TIP3 3814 TIP3 OH2  OT    -0.834000       15.9994           0
   19347 TIP3 3814 TIP3 H1   HT     0.417000        1.0080           0
   19348 TIP3 3814 TIP3 H2   HT     0.417000        1.0080           0
   19349 TIP3 3815 TIP3 OH2  OT    -0.834000       15.9994           0
   19350 TIP3 3815 TIP3 H1   HT     0.417000        1.0080           0
   19351 TIP3 3815 TIP3 H2   HT     0.417000        1.0080           0
   19352 TIP3 3816 TIP3 OH2  OT    -0.834000       15.9994           0
   19353 TIP3 3816 TIP3 H1   HT     0.417000        1.0080           0
   19354 TIP3 3816 TIP3 H2   HT     0.417000        1.0080           0
   19355 TIP3 3817 TIP3 OH2  OT    -0.834000       15.9994           0
   19356 TIP3 3817 TIP3 H1   HT     0.417000        1.0080           0
   19357 TIP3 3817 TIP3 H2   HT     0.417000        1.0080           0
   19358 TIP3 3818 TIP3 OH2  OT    -0.834000       15.9994           0
   19359 TIP3 3818 TIP3 H1   HT     0.417000        1.0080           0
   19360 TIP3 3818 TIP3 H2   HT     0.417000        1.0080           0
   19361 TIP3 3819 TIP3 OH2  OT    -0.834000       15.9994           0
   19362 TIP3 3819 TIP3 H1   HT     0.417000        1.0080           0
   19363 TIP3 3819 TIP3 H2   HT     0.417000        1.0080           0
   19364 TIP3 3820 TIP3 OH2  OT    -0.834000       15.9994           0
   19365 TIP3 3820 TIP3 H1   HT     0.417000        1.0080           0
   19366 TIP3 3820 TIP3 H2   HT     0.417000        1.0080           0
   19367 TIP3 3821 TIP3 OH2  OT    -0.834000       15.9994           0
   19368 TIP3 3821 TIP3 H1   HT     0.417000        1.0080           0
   19369 TIP3 3821 TIP3 H2   HT     0.417000        1.0080           0
   19370 TIP3 3822 TIP3 OH2  OT    -0.834000       15.9994           0
   19371 TIP3 3822 TIP3 H1   HT     0.417000        1.0080           0
   19372 TIP3 3822 TIP3 H2   HT     0.417000        1.0080           0
   19373 TIP3 3823 TIP3 OH2  OT    -0.834000       15.9994           0
   19374 TIP3 3823 TIP3 H1   HT     0.417000        1.0080           0
   19375 TIP3 3823 TIP3 H2   HT     0.417000        1.0080           0
   19376 TIP3 3824 TIP3 OH2  OT    -0.834000       15.9994           0
   19377 TIP3 3824 TIP3 H1   HT     0.417000        1.0080           0
   19378 TIP3 3824 TIP3 H2   HT     0.417000        1.0080           0
   19379 TIP3 3825 TIP3 OH2  OT    -0.834000       15.9994           0
   19380 TIP3 3825 TIP3 H1   HT     0.417000        1.0080           0
   19381 TIP3 3825 TIP3 H2   HT     0.417000        1.0080           0
   19382 TIP3 3826 TIP3 OH2  OT    -0.834000       15.9994           0
   19383 TIP3 3826 TIP3 H1   HT     0.417000        1.0080           0
   19384 TIP3 3826 TIP3 H2   HT     0.417000        1.0080           0
   19385 TIP3 3827 TIP3 OH2  OT    -0.834000       15.9994           0
   19386 TIP3 3827 TIP3 H1   HT     0.417000        1.0080           0
   19387 TIP3 3827 TIP3 H2   HT     0.417000        1.0080           0
   19388 TIP3 3828 TIP3 OH2  OT    -0.834000       15.9994           0
   19389 TIP3 3828 TIP3 H1   HT     0.417000        1.0080           0
   19390 TIP3 3828 TIP3 H2   HT     0.417000        1.0080           0
   19391 TIP3 3829 TIP3 OH2  OT    -0.834000       15.9994           0
   19392 TIP3 3829 TIP3 H1   HT     0.417000        1.0080           0
   19393 TIP3 3829 TIP3 H2   HT     0.417000        1.0080           0
   19394 TIP3 3830 TIP3 OH2  OT    -0.834000       15.9994           0
   19395 TIP3 3830 TIP3 H1   HT     0.417000        1.0080           0
   19396 TIP3 3830 TIP3 H2   HT     0.417000        1.0080           0
   19397 TIP3 3831 TIP3 OH2  OT    -0.834000       15.9994           0
   19398 TIP3 3831 TIP3 H1   HT     0.417000        1.0080           0
   19399 TIP3 3831 TIP3 H2   HT     0.417000        1.0080           0
   19400 TIP3 3832 TIP3 OH2  OT    -0.834000       15.9994           0
   19401 TIP3 3832 TIP3 H1   HT     0.417000        1.0080           0
   19402 TIP3 3832 TIP3 H2   HT     0.417000        1.0080           0
   19403 TIP3 3833 TIP3 OH2  OT    -0.834000       15.9994           0
   19404 TIP3 3833 TIP3 H1   HT     0.417000        1.0080           0
   19405 TIP3 3833 TIP3 H2   HT     0.417000        1.0080           0
   19406 TIP3 3834 TIP3 OH2  OT    -0.834000       15.9994           0
   19407 TIP3 3834 TIP3 H1   HT     0.417000        1.0080           0
   19408 TIP3 3834 TIP3 H2   HT     0.417000        1.0080           0
   19409 TIP3 3835 TIP3 OH2  OT    -0.834000       15.9994           0
   19410 TIP3 3835 TIP3 H1   HT     0.417000        1.0080           0
   19411 TIP3 3835 TIP3 H2   HT     0.417000        1.0080           0
   19412 TIP3 3836 TIP3 OH2  OT    -0.834000       15.9994           0
   19413 TIP3 3836 TIP3 H1   HT     0.417000        1.0080           0
   19414 TIP3 3836 TIP3 H2   HT     0.417000        1.0080           0
   19415 TIP3 3837 TIP3 OH2  OT    -0.834000       15.9994           0
   19416 TIP3 3837 TIP3 H1   HT     0.417000        1.0080           0
   19417 TIP3 3837 TIP3 H2   HT     0.417000        1.0080           0
   19418 TIP3 3838 TIP3 OH2  OT    -0.834000       15.9994           0
   19419 TIP3 3838 TIP3 H1   HT     0.417000        1.0080           0
   19420 TIP3 3838 TIP3 H2   HT     0.417000        1.0080           0
   19421 TIP3 3839 TIP3 OH2  OT    -0.834000       15.9994           0
   19422 TIP3 3839 TIP3 H1   HT     0.417000        1.0080           0
   19423 TIP3 3839 TIP3 H2   HT     0.417000        1.0080           0
   19424 TIP3 3840 TIP3 OH2  OT    -0.834000       15.9994           0
   19425 TIP3 3840 TIP3 H1   HT     0.417000        1.0080           0
   19426 TIP3 3840 TIP3 H2   HT     0.417000        1.0080           0
   19427 TIP3 3841 TIP3 OH2  OT    -0.834000       15.9994           0
   19428 TIP3 3841 TIP3 H1   HT     0.417000        1.0080           0
   19429 TIP3 3841 TIP3 H2   HT     0.417000        1.0080           0
   19430 TIP3 3842 TIP3 OH2  OT    -0.834000       15.9994           0
   19431 TIP3 3842 TIP3 H1   HT     0.417000        1.0080           0
   19432 TIP3 3842 TIP3 H2   HT     0.417000        1.0080           0
   19433 TIP3 3843 TIP3 OH2  OT    -0.834000       15.9994           0
   19434 TIP3 3843 TIP3 H1   HT     0.417000        1.0080           0
   19435 TIP3 3843 TIP3 H2   HT     0.417000        1.0080           0
   19436 TIP3 3844 TIP3 OH2  OT    -0.834000       15.9994           0
   19437 TIP3 3844 TIP3 H1   HT     0.417000        1.0080           0
   19438 TIP3 3844 TIP3 H2   HT     0.417000        1.0080           0
   19439 TIP3 3845 TIP3 OH2  OT    -0.834000       15.9994           0
   19440 TIP3 3845 TIP3 H1   HT     0.417000        1.0080           0
   19441 TIP3 3845 TIP3 H2   HT     0.417000        1.0080           0
   19442 TIP3 3846 TIP3 OH2  OT    -0.834000       15.9994           0
   19443 TIP3 3846 TIP3 H1   HT     0.417000        1.0080           0
   19444 TIP3 3846 TIP3 H2   HT     0.417000        1.0080           0
   19445 TIP3 3847 TIP3 OH2  OT    -0.834000       15.9994           0
   19446 TIP3 3847 TIP3 H1   HT     0.417000        1.0080           0
   19447 TIP3 3847 TIP3 H2   HT     0.417000        1.0080           0
   19448 TIP3 3848 TIP3 OH2  OT    -0.834000       15.9994           0
   19449 TIP3 3848 TIP3 H1   HT     0.417000        1.0080           0
   19450 TIP3 3848 TIP3 H2   HT     0.417000        1.0080           0
   19451 TIP3 3849 TIP3 OH2  OT    -0.834000       15.9994           0
   19452 TIP3 3849 TIP3 H1   HT     0.417000        1.0080           0
   19453 TIP3 3849 TIP3 H2   HT     0.417000        1.0080           0
   19454 TIP3 3850 TIP3 OH2  OT    -0.834000       15.9994           0
   19455 TIP3 3850 TIP3 H1   HT     0.417000        1.0080           0
   19456 TIP3 3850 TIP3 H2   HT     0.417000        1.0080           0
   19457 TIP3 3851 TIP3 OH2  OT    -0.834000       15.9994           0
   19458 TIP3 3851 TIP3 H1   HT     0.417000        1.0080           0
   19459 TIP3 3851 TIP3 H2   HT     0.417000        1.0080           0
   19460 TIP3 3852 TIP3 OH2  OT    -0.834000       15.9994           0
   19461 TIP3 3852 TIP3 H1   HT     0.417000        1.0080           0
   19462 TIP3 3852 TIP3 H2   HT     0.417000        1.0080           0
   19463 TIP3 3853 TIP3 OH2  OT    -0.834000       15.9994           0
   19464 TIP3 3853 TIP3 H1   HT     0.417000        1.0080           0
   19465 TIP3 3853 TIP3 H2   HT     0.417000        1.0080           0
   19466 TIP3 3854 TIP3 OH2  OT    -0.834000       15.9994           0
   19467 TIP3 3854 TIP3 H1   HT     0.417000        1.0080           0
   19468 TIP3 3854 TIP3 H2   HT     0.417000        1.0080           0
   19469 TIP3 3855 TIP3 OH2  OT    -0.834000       15.9994           0
   19470 TIP3 3855 TIP3 H1   HT     0.417000        1.0080           0
   19471 TIP3 3855 TIP3 H2   HT     0.417000        1.0080           0
   19472 TIP3 3856 TIP3 OH2  OT    -0.834000       15.9994           0
   19473 TIP3 3856 TIP3 H1   HT     0.417000        1.0080           0
   19474 TIP3 3856 TIP3 H2   HT     0.417000        1.0080           0
   19475 TIP3 3857 TIP3 OH2  OT    -0.834000       15.9994           0
   19476 TIP3 3857 TIP3 H1   HT     0.417000        1.0080           0
   19477 TIP3 3857 TIP3 H2   HT     0.417000        1.0080           0
   19478 TIP3 3858 TIP3 OH2  OT    -0.834000       15.9994           0
   19479 TIP3 3858 TIP3 H1   HT     0.417000        1.0080           0
   19480 TIP3 3858 TIP3 H2   HT     0.417000        1.0080           0
   19481 TIP3 3859 TIP3 OH2  OT    -0.834000       15.9994           0
   19482 TIP3 3859 TIP3 H1   HT     0.417000        1.0080           0
   19483 TIP3 3859 TIP3 H2   HT     0.417000        1.0080           0
   19484 TIP3 3860 TIP3 OH2  OT    -0.834000       15.9994           0
   19485 TIP3 3860 TIP3 H1   HT     0.417000        1.0080           0
   19486 TIP3 3860 TIP3 H2   HT     0.417000        1.0080           0
   19487 TIP3 3861 TIP3 OH2  OT    -0.834000       15.9994           0
   19488 TIP3 3861 TIP3 H1   HT     0.417000        1.0080           0
   19489 TIP3 3861 TIP3 H2   HT     0.417000        1.0080           0
   19490 TIP3 3862 TIP3 OH2  OT    -0.834000       15.9994           0
   19491 TIP3 3862 TIP3 H1   HT     0.417000        1.0080           0
   19492 TIP3 3862 TIP3 H2   HT     0.417000        1.0080           0
   19493 TIP3 3863 TIP3 OH2  OT    -0.834000       15.9994           0
   19494 TIP3 3863 TIP3 H1   HT     0.417000        1.0080           0
   19495 TIP3 3863 TIP3 H2   HT     0.417000        1.0080           0
   19496 TIP3 3864 TIP3 OH2  OT    -0.834000       15.9994           0
   19497 TIP3 3864 TIP3 H1   HT     0.417000        1.0080           0
   19498 TIP3 3864 TIP3 H2   HT     0.417000        1.0080           0
   19499 TIP3 3865 TIP3 OH2  OT    -0.834000       15.9994           0
   19500 TIP3 3865 TIP3 H1   HT     0.417000        1.0080           0
   19501 TIP3 3865 TIP3 H2   HT     0.417000        1.0080           0
   19502 TIP3 3866 TIP3 OH2  OT    -0.834000       15.9994           0
   19503 TIP3 3866 TIP3 H1   HT     0.417000        1.0080           0
   19504 TIP3 3866 TIP3 H2   HT     0.417000        1.0080           0
   19505 TIP3 3867 TIP3 OH2  OT    -0.834000       15.9994           0
   19506 TIP3 3867 TIP3 H1   HT     0.417000        1.0080           0
   19507 TIP3 3867 TIP3 H2   HT     0.417000        1.0080           0
   19508 TIP3 3868 TIP3 OH2  OT    -0.834000       15.9994           0
   19509 TIP3 3868 TIP3 H1   HT     0.417000        1.0080           0
   19510 TIP3 3868 TIP3 H2   HT     0.417000        1.0080           0
   19511 TIP3 3869 TIP3 OH2  OT    -0.834000       15.9994           0
   19512 TIP3 3869 TIP3 H1   HT     0.417000        1.0080           0
   19513 TIP3 3869 TIP3 H2   HT     0.417000        1.0080           0
   19514 TIP3 3870 TIP3 OH2  OT    -0.834000       15.9994           0
   19515 TIP3 3870 TIP3 H1   HT     0.417000        1.0080           0
   19516 TIP3 3870 TIP3 H2   HT     0.417000        1.0080           0
   19517 TIP3 3871 TIP3 OH2  OT    -0.834000       15.9994           0
   19518 TIP3 3871 TIP3 H1   HT     0.417000        1.0080           0
   19519 TIP3 3871 TIP3 H2   HT     0.417000        1.0080           0
   19520 TIP3 3872 TIP3 OH2  OT    -0.834000       15.9994           0
   19521 TIP3 3872 TIP3 H1   HT     0.417000        1.0080           0
   19522 TIP3 3872 TIP3 H2   HT     0.417000        1.0080           0
   19523 TIP3 3873 TIP3 OH2  OT    -0.834000       15.9994           0
   19524 TIP3 3873 TIP3 H1   HT     0.417000        1.0080           0
   19525 TIP3 3873 TIP3 H2   HT     0.417000        1.0080           0
   19526 TIP3 3874 TIP3 OH2  OT    -0.834000       15.9994           0
   19527 TIP3 3874 TIP3 H1   HT     0.417000        1.0080           0
   19528 TIP3 3874 TIP3 H2   HT     0.417000        1.0080           0
   19529 TIP3 3875 TIP3 OH2  OT    -0.834000       15.9994           0
   19530 TIP3 3875 TIP3 H1   HT     0.417000        1.0080           0
   19531 TIP3 3875 TIP3 H2   HT     0.417000        1.0080           0
   19532 TIP3 3876 TIP3 OH2  OT    -0.834000       15.9994           0
   19533 TIP3 3876 TIP3 H1   HT     0.417000        1.0080           0
   19534 TIP3 3876 TIP3 H2   HT     0.417000        1.0080           0
   19535 TIP3 3877 TIP3 OH2  OT    -0.834000       15.9994           0
   19536 TIP3 3877 TIP3 H1   HT     0.417000        1.0080           0
   19537 TIP3 3877 TIP3 H2   HT     0.417000        1.0080           0
   19538 TIP3 3878 TIP3 OH2  OT    -0.834000       15.9994           0
   19539 TIP3 3878 TIP3 H1   HT     0.417000        1.0080           0
   19540 TIP3 3878 TIP3 H2   HT     0.417000        1.0080           0
   19541 TIP3 3879 TIP3 OH2  OT    -0.834000       15.9994           0
   19542 TIP3 3879 TIP3 H1   HT     0.417000        1.0080           0
   19543 TIP3 3879 TIP3 H2   HT     0.417000        1.0080           0
   19544 TIP3 3880 TIP3 OH2  OT    -0.834000       15.9994           0
   19545 TIP3 3880 TIP3 H1   HT     0.417000        1.0080           0
   19546 TIP3 3880 TIP3 H2   HT     0.417000        1.0080           0
   19547 TIP3 3881 TIP3 OH2  OT    -0.834000       15.9994           0
   19548 TIP3 3881 TIP3 H1   HT     0.417000        1.0080           0
   19549 TIP3 3881 TIP3 H2   HT     0.417000        1.0080           0
   19550 TIP3 3882 TIP3 OH2  OT    -0.834000       15.9994           0
   19551 TIP3 3882 TIP3 H1   HT     0.417000        1.0080           0
   19552 TIP3 3882 TIP3 H2   HT     0.417000        1.0080           0
   19553 TIP3 3883 TIP3 OH2  OT    -0.834000       15.9994           0
   19554 TIP3 3883 TIP3 H1   HT     0.417000        1.0080           0
   19555 TIP3 3883 TIP3 H2   HT     0.417000        1.0080           0
   19556 TIP3 3884 TIP3 OH2  OT    -0.834000       15.9994           0
   19557 TIP3 3884 TIP3 H1   HT     0.417000        1.0080           0
   19558 TIP3 3884 TIP3 H2   HT     0.417000        1.0080           0
   19559 TIP3 3885 TIP3 OH2  OT    -0.834000       15.9994           0
   19560 TIP3 3885 TIP3 H1   HT     0.417000        1.0080           0
   19561 TIP3 3885 TIP3 H2   HT     0.417000        1.0080           0
   19562 TIP3 3886 TIP3 OH2  OT    -0.834000       15.9994           0
   19563 TIP3 3886 TIP3 H1   HT     0.417000        1.0080           0
   19564 TIP3 3886 TIP3 H2   HT     0.417000        1.0080           0
   19565 TIP3 3887 TIP3 OH2  OT    -0.834000       15.9994           0
   19566 TIP3 3887 TIP3 H1   HT     0.417000        1.0080           0
   19567 TIP3 3887 TIP3 H2   HT     0.417000        1.0080           0
   19568 TIP3 3888 TIP3 OH2  OT    -0.834000       15.9994           0
   19569 TIP3 3888 TIP3 H1   HT     0.417000        1.0080           0
   19570 TIP3 3888 TIP3 H2   HT     0.417000        1.0080           0
   19571 TIP3 3889 TIP3 OH2  OT    -0.834000       15.9994           0
   19572 TIP3 3889 TIP3 H1   HT     0.417000        1.0080           0
   19573 TIP3 3889 TIP3 H2   HT     0.417000        1.0080           0
   19574 TIP3 3890 TIP3 OH2  OT    -0.834000       15.9994           0
   19575 TIP3 3890 TIP3 H1   HT     0.417000        1.0080           0
   19576 TIP3 3890 TIP3 H2   HT     0.417000        1.0080           0
   19577 TIP3 3891 TIP3 OH2  OT    -0.834000       15.9994           0
   19578 TIP3 3891 TIP3 H1   HT     0.417000        1.0080           0
   19579 TIP3 3891 TIP3 H2   HT     0.417000        1.0080           0
   19580 TIP3 3892 TIP3 OH2  OT    -0.834000       15.9994           0
   19581 TIP3 3892 TIP3 H1   HT     0.417000        1.0080           0
   19582 TIP3 3892 TIP3 H2   HT     0.417000        1.0080           0
   19583 TIP3 3893 TIP3 OH2  OT    -0.834000       15.9994           0
   19584 TIP3 3893 TIP3 H1   HT     0.417000        1.0080           0
   19585 TIP3 3893 TIP3 H2   HT     0.417000        1.0080           0
   19586 TIP3 3894 TIP3 OH2  OT    -0.834000       15.9994           0
   19587 TIP3 3894 TIP3 H1   HT     0.417000        1.0080           0
   19588 TIP3 3894 TIP3 H2   HT     0.417000        1.0080           0
   19589 TIP3 3895 TIP3 OH2  OT    -0.834000       15.9994           0
   19590 TIP3 3895 TIP3 H1   HT     0.417000        1.0080           0
   19591 TIP3 3895 TIP3 H2   HT     0.417000        1.0080           0
   19592 TIP3 3896 TIP3 OH2  OT    -0.834000       15.9994           0
   19593 TIP3 3896 TIP3 H1   HT     0.417000        1.0080           0
   19594 TIP3 3896 TIP3 H2   HT     0.417000        1.0080           0
   19595 TIP3 3897 TIP3 OH2  OT    -0.834000       15.9994           0
   19596 TIP3 3897 TIP3 H1   HT     0.417000        1.0080           0
   19597 TIP3 3897 TIP3 H2   HT     0.417000        1.0080           0
   19598 TIP3 3898 TIP3 OH2  OT    -0.834000       15.9994           0
   19599 TIP3 3898 TIP3 H1   HT     0.417000        1.0080           0
   19600 TIP3 3898 TIP3 H2   HT     0.417000        1.0080           0
   19601 TIP3 3899 TIP3 OH2  OT    -0.834000       15.9994           0
   19602 TIP3 3899 TIP3 H1   HT     0.417000        1.0080           0
   19603 TIP3 3899 TIP3 H2   HT     0.417000        1.0080           0
   19604 TIP3 3900 TIP3 OH2  OT    -0.834000       15.9994           0
   19605 TIP3 3900 TIP3 H1   HT     0.417000        1.0080           0
   19606 TIP3 3900 TIP3 H2   HT     0.417000        1.0080           0
   19607 TIP3 3901 TIP3 OH2  OT    -0.834000       15.9994           0
   19608 TIP3 3901 TIP3 H1   HT     0.417000        1.0080           0
   19609 TIP3 3901 TIP3 H2   HT     0.417000        1.0080           0
   19610 TIP3 3902 TIP3 OH2  OT    -0.834000       15.9994           0
   19611 TIP3 3902 TIP3 H1   HT     0.417000        1.0080           0
   19612 TIP3 3902 TIP3 H2   HT     0.417000        1.0080           0
   19613 TIP3 3903 TIP3 OH2  OT    -0.834000       15.9994           0
   19614 TIP3 3903 TIP3 H1   HT     0.417000        1.0080           0
   19615 TIP3 3903 TIP3 H2   HT     0.417000        1.0080           0
   19616 TIP3 3904 TIP3 OH2  OT    -0.834000       15.9994           0
   19617 TIP3 3904 TIP3 H1   HT     0.417000        1.0080           0
   19618 TIP3 3904 TIP3 H2   HT     0.417000        1.0080           0
   19619 TIP3 3905 TIP3 OH2  OT    -0.834000       15.9994           0
   19620 TIP3 3905 TIP3 H1   HT     0.417000        1.0080           0
   19621 TIP3 3905 TIP3 H2   HT     0.417000        1.0080           0
   19622 TIP3 3906 TIP3 OH2  OT    -0.834000       15.9994           0
   19623 TIP3 3906 TIP3 H1   HT     0.417000        1.0080           0
   19624 TIP3 3906 TIP3 H2   HT     0.417000        1.0080           0
   19625 TIP3 3907 TIP3 OH2  OT    -0.834000       15.9994           0
   19626 TIP3 3907 TIP3 H1   HT     0.417000        1.0080           0
   19627 TIP3 3907 TIP3 H2   HT     0.417000        1.0080           0
   19628 TIP3 3908 TIP3 OH2  OT    -0.834000       15.9994           0
   19629 TIP3 3908 TIP3 H1   HT     0.417000        1.0080           0
   19630 TIP3 3908 TIP3 H2   HT     0.417000        1.0080           0
   19631 TIP3 3909 TIP3 OH2  OT    -0.834000       15.9994           0
   19632 TIP3 3909 TIP3 H1   HT     0.417000        1.0080           0
   19633 TIP3 3909 TIP3 H2   HT     0.417000        1.0080           0
   19634 TIP3 3910 TIP3 OH2  OT    -0.834000       15.9994           0
   19635 TIP3 3910 TIP3 H1   HT     0.417000        1.0080           0
   19636 TIP3 3910 TIP3 H2   HT     0.417000        1.0080           0
   19637 TIP3 3911 TIP3 OH2  OT    -0.834000       15.9994           0
   19638 TIP3 3911 TIP3 H1   HT     0.417000        1.0080           0
   19639 TIP3 3911 TIP3 H2   HT     0.417000        1.0080           0
   19640 TIP3 3912 TIP3 OH2  OT    -0.834000       15.9994           0
   19641 TIP3 3912 TIP3 H1   HT     0.417000        1.0080           0
   19642 TIP3 3912 TIP3 H2   HT     0.417000        1.0080           0
   19643 TIP3 3913 TIP3 OH2  OT    -0.834000       15.9994           0
   19644 TIP3 3913 TIP3 H1   HT     0.417000        1.0080           0
   19645 TIP3 3913 TIP3 H2   HT     0.417000        1.0080           0
   19646 TIP3 3914 TIP3 OH2  OT    -0.834000       15.9994           0
   19647 TIP3 3914 TIP3 H1   HT     0.417000        1.0080           0
   19648 TIP3 3914 TIP3 H2   HT     0.417000        1.0080           0
   19649 TIP3 3915 TIP3 OH2  OT    -0.834000       15.9994           0
   19650 TIP3 3915 TIP3 H1   HT     0.417000        1.0080           0
   19651 TIP3 3915 TIP3 H2   HT     0.417000        1.0080           0
   19652 TIP3 3916 TIP3 OH2  OT    -0.834000       15.9994           0
   19653 TIP3 3916 TIP3 H1   HT     0.417000        1.0080           0
   19654 TIP3 3916 TIP3 H2   HT     0.417000        1.0080           0
   19655 TIP3 3917 TIP3 OH2  OT    -0.834000       15.9994           0
   19656 TIP3 3917 TIP3 H1   HT     0.417000        1.0080           0
   19657 TIP3 3917 TIP3 H2   HT     0.417000        1.0080           0
   19658 TIP3 3918 TIP3 OH2  OT    -0.834000       15.9994           0
   19659 TIP3 3918 TIP3 H1   HT     0.417000        1.0080           0
   19660 TIP3 3918 TIP3 H2   HT     0.417000        1.0080           0
   19661 TIP3 3919 TIP3 OH2  OT    -0.834000       15.9994           0
   19662 TIP3 3919 TIP3 H1   HT     0.417000        1.0080           0
   19663 TIP3 3919 TIP3 H2   HT     0.417000        1.0080           0
   19664 TIP3 3920 TIP3 OH2  OT    -0.834000       15.9994           0
   19665 TIP3 3920 TIP3 H1   HT     0.417000        1.0080           0
   19666 TIP3 3920 TIP3 H2   HT     0.417000        1.0080           0
   19667 TIP3 3921 TIP3 OH2  OT    -0.834000       15.9994           0
   19668 TIP3 3921 TIP3 H1   HT     0.417000        1.0080           0
   19669 TIP3 3921 TIP3 H2   HT     0.417000        1.0080           0
   19670 TIP3 3922 TIP3 OH2  OT    -0.834000       15.9994           0
   19671 TIP3 3922 TIP3 H1   HT     0.417000        1.0080           0
   19672 TIP3 3922 TIP3 H2   HT     0.417000        1.0080           0
   19673 TIP3 3923 TIP3 OH2  OT    -0.834000       15.9994           0
   19674 TIP3 3923 TIP3 H1   HT     0.417000        1.0080           0
   19675 TIP3 3923 TIP3 H2   HT     0.417000        1.0080           0
   19676 TIP3 3924 TIP3 OH2  OT    -0.834000       15.9994           0
   19677 TIP3 3924 TIP3 H1   HT     0.417000        1.0080           0
   19678 TIP3 3924 TIP3 H2   HT     0.417000        1.0080           0
   19679 TIP3 3925 TIP3 OH2  OT    -0.834000       15.9994           0
   19680 TIP3 3925 TIP3 H1   HT     0.417000        1.0080           0
   19681 TIP3 3925 TIP3 H2   HT     0.417000        1.0080           0
   19682 TIP3 3926 TIP3 OH2  OT    -0.834000       15.9994           0
   19683 TIP3 3926 TIP3 H1   HT     0.417000        1.0080           0
   19684 TIP3 3926 TIP3 H2   HT     0.417000        1.0080           0
   19685 TIP3 3927 TIP3 OH2  OT    -0.834000       15.9994           0
   19686 TIP3 3927 TIP3 H1   HT     0.417000        1.0080           0
   19687 TIP3 3927 TIP3 H2   HT     0.417000        1.0080           0
   19688 TIP3 3928 TIP3 OH2  OT    -0.834000       15.9994           0
   19689 TIP3 3928 TIP3 H1   HT     0.417000        1.0080           0
   19690 TIP3 3928 TIP3 H2   HT     0.417000        1.0080           0
   19691 TIP3 3929 TIP3 OH2  OT    -0.834000       15.9994           0
   19692 TIP3 3929 TIP3 H1   HT     0.417000        1.0080           0
   19693 TIP3 3929 TIP3 H2   HT     0.417000        1.0080           0
   19694 TIP3 3930 TIP3 OH2  OT    -0.834000       15.9994           0
   19695 TIP3 3930 TIP3 H1   HT     0.417000        1.0080           0
   19696 TIP3 3930 TIP3 H2   HT     0.417000        1.0080           0
   19697 TIP3 3931 TIP3 OH2  OT    -0.834000       15.9994           0
   19698 TIP3 3931 TIP3 H1   HT     0.417000        1.0080           0
   19699 TIP3 3931 TIP3 H2   HT     0.417000        1.0080           0
   19700 TIP3 3932 TIP3 OH2  OT    -0.834000       15.9994           0
   19701 TIP3 3932 TIP3 H1   HT     0.417000        1.0080           0
   19702 TIP3 3932 TIP3 H2   HT     0.417000        1.0080           0
   19703 TIP3 3933 TIP3 OH2  OT    -0.834000       15.9994           0
   19704 TIP3 3933 TIP3 H1   HT     0.417000        1.0080           0
   19705 TIP3 3933 TIP3 H2   HT     0.417000        1.0080           0
   19706 TIP3 3934 TIP3 OH2  OT    -0.834000       15.9994           0
   19707 TIP3 3934 TIP3 H1   HT     0.417000        1.0080           0
   19708 TIP3 3934 TIP3 H2   HT     0.417000        1.0080           0
   19709 TIP3 3935 TIP3 OH2  OT    -0.834000       15.9994           0
   19710 TIP3 3935 TIP3 H1   HT     0.417000        1.0080           0
   19711 TIP3 3935 TIP3 H2   HT     0.417000        1.0080           0
   19712 TIP3 3936 TIP3 OH2  OT    -0.834000       15.9994           0
   19713 TIP3 3936 TIP3 H1   HT     0.417000        1.0080           0
   19714 TIP3 3936 TIP3 H2   HT     0.417000        1.0080           0
   19715 TIP3 3937 TIP3 OH2  OT    -0.834000       15.9994           0
   19716 TIP3 3937 TIP3 H1   HT     0.417000        1.0080           0
   19717 TIP3 3937 TIP3 H2   HT     0.417000        1.0080           0
   19718 TIP3 3938 TIP3 OH2  OT    -0.834000       15.9994           0
   19719 TIP3 3938 TIP3 H1   HT     0.417000        1.0080           0
   19720 TIP3 3938 TIP3 H2   HT     0.417000        1.0080           0
   19721 TIP3 3939 TIP3 OH2  OT    -0.834000       15.9994           0
   19722 TIP3 3939 TIP3 H1   HT     0.417000        1.0080           0
   19723 TIP3 3939 TIP3 H2   HT     0.417000        1.0080           0
   19724 TIP3 3940 TIP3 OH2  OT    -0.834000       15.9994           0
   19725 TIP3 3940 TIP3 H1   HT     0.417000        1.0080           0
   19726 TIP3 3940 TIP3 H2   HT     0.417000        1.0080           0
   19727 TIP3 3941 TIP3 OH2  OT    -0.834000       15.9994           0
   19728 TIP3 3941 TIP3 H1   HT     0.417000        1.0080           0
   19729 TIP3 3941 TIP3 H2   HT     0.417000        1.0080           0
   19730 TIP3 3942 TIP3 OH2  OT    -0.834000       15.9994           0
   19731 TIP3 3942 TIP3 H1   HT     0.417000        1.0080           0
   19732 TIP3 3942 TIP3 H2   HT     0.417000        1.0080           0
   19733 TIP3 3943 TIP3 OH2  OT    -0.834000       15.9994           0
   19734 TIP3 3943 TIP3 H1   HT     0.417000        1.0080           0
   19735 TIP3 3943 TIP3 H2   HT     0.417000        1.0080           0
   19736 TIP3 3944 TIP3 OH2  OT    -0.834000       15.9994           0
   19737 TIP3 3944 TIP3 H1   HT     0.417000        1.0080           0
   19738 TIP3 3944 TIP3 H2   HT     0.417000        1.0080           0
   19739 TIP3 3945 TIP3 OH2  OT    -0.834000       15.9994           0
   19740 TIP3 3945 TIP3 H1   HT     0.417000        1.0080           0
   19741 TIP3 3945 TIP3 H2   HT     0.417000        1.0080           0
   19742 TIP3 3946 TIP3 OH2  OT    -0.834000       15.9994           0
   19743 TIP3 3946 TIP3 H1   HT     0.417000        1.0080           0
   19744 TIP3 3946 TIP3 H2   HT     0.417000        1.0080           0
   19745 TIP3 3947 TIP3 OH2  OT    -0.834000       15.9994           0
   19746 TIP3 3947 TIP3 H1   HT     0.417000        1.0080           0
   19747 TIP3 3947 TIP3 H2   HT     0.417000        1.0080           0
   19748 TIP3 3948 TIP3 OH2  OT    -0.834000       15.9994           0
   19749 TIP3 3948 TIP3 H1   HT     0.417000        1.0080           0
   19750 TIP3 3948 TIP3 H2   HT     0.417000        1.0080           0
   19751 TIP3 3949 TIP3 OH2  OT    -0.834000       15.9994           0
   19752 TIP3 3949 TIP3 H1   HT     0.417000        1.0080           0
   19753 TIP3 3949 TIP3 H2   HT     0.417000        1.0080           0
   19754 TIP3 3950 TIP3 OH2  OT    -0.834000       15.9994           0
   19755 TIP3 3950 TIP3 H1   HT     0.417000        1.0080           0
   19756 TIP3 3950 TIP3 H2   HT     0.417000        1.0080           0
   19757 TIP3 3951 TIP3 OH2  OT    -0.834000       15.9994           0
   19758 TIP3 3951 TIP3 H1   HT     0.417000        1.0080           0
   19759 TIP3 3951 TIP3 H2   HT     0.417000        1.0080           0
   19760 TIP3 3952 TIP3 OH2  OT    -0.834000       15.9994           0
   19761 TIP3 3952 TIP3 H1   HT     0.417000        1.0080           0
   19762 TIP3 3952 TIP3 H2   HT     0.417000        1.0080           0
   19763 TIP3 3953 TIP3 OH2  OT    -0.834000       15.9994           0
   19764 TIP3 3953 TIP3 H1   HT     0.417000        1.0080           0
   19765 TIP3 3953 TIP3 H2   HT     0.417000        1.0080           0
   19766 TIP3 3954 TIP3 OH2  OT    -0.834000       15.9994           0
   19767 TIP3 3954 TIP3 H1   HT     0.417000        1.0080           0
   19768 TIP3 3954 TIP3 H2   HT     0.417000        1.0080           0
   19769 TIP3 3955 TIP3 OH2  OT    -0.834000       15.9994           0
   19770 TIP3 3955 TIP3 H1   HT     0.417000        1.0080           0
   19771 TIP3 3955 TIP3 H2   HT     0.417000        1.0080           0
   19772 TIP3 3956 TIP3 OH2  OT    -0.834000       15.9994           0
   19773 TIP3 3956 TIP3 H1   HT     0.417000        1.0080           0
   19774 TIP3 3956 TIP3 H2   HT     0.417000        1.0080           0
   19775 TIP3 3957 TIP3 OH2  OT    -0.834000       15.9994           0
   19776 TIP3 3957 TIP3 H1   HT     0.417000        1.0080           0
   19777 TIP3 3957 TIP3 H2   HT     0.417000        1.0080           0
   19778 TIP3 3958 TIP3 OH2  OT    -0.834000       15.9994           0
   19779 TIP3 3958 TIP3 H1   HT     0.417000        1.0080           0
   19780 TIP3 3958 TIP3 H2   HT     0.417000        1.0080           0
   19781 TIP3 3959 TIP3 OH2  OT    -0.834000       15.9994           0
   19782 TIP3 3959 TIP3 H1   HT     0.417000        1.0080           0
   19783 TIP3 3959 TIP3 H2   HT     0.417000        1.0080           0
   19784 TIP3 3960 TIP3 OH2  OT    -0.834000       15.9994           0
   19785 TIP3 3960 TIP3 H1   HT     0.417000        1.0080           0
   19786 TIP3 3960 TIP3 H2   HT     0.417000        1.0080           0
   19787 TIP3 3961 TIP3 OH2  OT    -0.834000       15.9994           0
   19788 TIP3 3961 TIP3 H1   HT     0.417000        1.0080           0
   19789 TIP3 3961 TIP3 H2   HT     0.417000        1.0080           0
   19790 TIP3 3962 TIP3 OH2  OT    -0.834000       15.9994           0
   19791 TIP3 3962 TIP3 H1   HT     0.417000        1.0080           0
   19792 TIP3 3962 TIP3 H2   HT     0.417000        1.0080           0
   19793 TIP3 3963 TIP3 OH2  OT    -0.834000       15.9994           0
   19794 TIP3 3963 TIP3 H1   HT     0.417000        1.0080           0
   19795 TIP3 3963 TIP3 H2   HT     0.417000        1.0080           0
   19796 TIP3 3964 TIP3 OH2  OT    -0.834000       15.9994           0
   19797 TIP3 3964 TIP3 H1   HT     0.417000        1.0080           0
   19798 TIP3 3964 TIP3 H2   HT     0.417000        1.0080           0
   19799 TIP3 3965 TIP3 OH2  OT    -0.834000       15.9994           0
   19800 TIP3 3965 TIP3 H1   HT     0.417000        1.0080           0
   19801 TIP3 3965 TIP3 H2   HT     0.417000        1.0080           0
   19802 TIP3 3966 TIP3 OH2  OT    -0.834000       15.9994           0
   19803 TIP3 3966 TIP3 H1   HT     0.417000        1.0080           0
   19804 TIP3 3966 TIP3 H2   HT     0.417000        1.0080           0
   19805 TIP3 3967 TIP3 OH2  OT    -0.834000       15.9994           0
   19806 TIP3 3967 TIP3 H1   HT     0.417000        1.0080           0
   19807 TIP3 3967 TIP3 H2   HT     0.417000        1.0080           0
   19808 TIP3 3968 TIP3 OH2  OT    -0.834000       15.9994           0
   19809 TIP3 3968 TIP3 H1   HT     0.417000        1.0080           0
   19810 TIP3 3968 TIP3 H2   HT     0.417000        1.0080           0
   19811 TIP3 3969 TIP3 OH2  OT    -0.834000       15.9994           0
   19812 TIP3 3969 TIP3 H1   HT     0.417000        1.0080           0
   19813 TIP3 3969 TIP3 H2   HT     0.417000        1.0080           0
   19814 TIP3 3970 TIP3 OH2  OT    -0.834000       15.9994           0
   19815 TIP3 3970 TIP3 H1   HT     0.417000        1.0080           0
   19816 TIP3 3970 TIP3 H2   HT     0.417000        1.0080           0
   19817 TIP3 3971 TIP3 OH2  OT    -0.834000       15.9994           0
   19818 TIP3 3971 TIP3 H1   HT     0.417000        1.0080           0
   19819 TIP3 3971 TIP3 H2   HT     0.417000        1.0080           0
   19820 TIP3 3972 TIP3 OH2  OT    -0.834000       15.9994           0
   19821 TIP3 3972 TIP3 H1   HT     0.417000        1.0080           0
   19822 TIP3 3972 TIP3 H2   HT     0.417000        1.0080           0
   19823 TIP3 3973 TIP3 OH2  OT    -0.834000       15.9994           0
   19824 TIP3 3973 TIP3 H1   HT     0.417000        1.0080           0
   19825 TIP3 3973 TIP3 H2   HT     0.417000        1.0080           0
   19826 TIP3 3974 TIP3 OH2  OT    -0.834000       15.9994           0
   19827 TIP3 3974 TIP3 H1   HT     0.417000        1.0080           0
   19828 TIP3 3974 TIP3 H2   HT     0.417000        1.0080           0
   19829 TIP3 3975 TIP3 OH2  OT    -0.834000       15.9994           0
   19830 TIP3 3975 TIP3 H1   HT     0.417000        1.0080           0
   19831 TIP3 3975 TIP3 H2   HT     0.417000        1.0080           0
   19832 TIP3 3976 TIP3 OH2  OT    -0.834000       15.9994           0
   19833 TIP3 3976 TIP3 H1   HT     0.417000        1.0080           0
   19834 TIP3 3976 TIP3 H2   HT     0.417000        1.0080           0
   19835 TIP3 3977 TIP3 OH2  OT    -0.834000       15.9994           0
   19836 TIP3 3977 TIP3 H1   HT     0.417000        1.0080           0
   19837 TIP3 3977 TIP3 H2   HT     0.417000        1.0080           0
   19838 TIP3 3978 TIP3 OH2  OT    -0.834000       15.9994           0
   19839 TIP3 3978 TIP3 H1   HT     0.417000        1.0080           0
   19840 TIP3 3978 TIP3 H2   HT     0.417000        1.0080           0
   19841 TIP3 3979 TIP3 OH2  OT    -0.834000       15.9994           0
   19842 TIP3 3979 TIP3 H1   HT     0.417000        1.0080           0
   19843 TIP3 3979 TIP3 H2   HT     0.417000        1.0080           0
   19844 TIP3 3980 TIP3 OH2  OT    -0.834000       15.9994           0
   19845 TIP3 3980 TIP3 H1   HT     0.417000        1.0080           0
   19846 TIP3 3980 TIP3 H2   HT     0.417000        1.0080           0
   19847 TIP3 3981 TIP3 OH2  OT    -0.834000       15.9994           0
   19848 TIP3 3981 TIP3 H1   HT     0.417000        1.0080           0
   19849 TIP3 3981 TIP3 H2   HT     0.417000        1.0080           0
   19850 TIP3 3982 TIP3 OH2  OT    -0.834000       15.9994           0
   19851 TIP3 3982 TIP3 H1   HT     0.417000        1.0080           0
   19852 TIP3 3982 TIP3 H2   HT     0.417000        1.0080           0
   19853 TIP3 3983 TIP3 OH2  OT    -0.834000       15.9994           0
   19854 TIP3 3983 TIP3 H1   HT     0.417000        1.0080           0
   19855 TIP3 3983 TIP3 H2   HT     0.417000        1.0080           0
   19856 TIP3 3984 TIP3 OH2  OT    -0.834000       15.9994           0
   19857 TIP3 3984 TIP3 H1   HT     0.417000        1.0080           0
   19858 TIP3 3984 TIP3 H2   HT     0.417000        1.0080           0
   19859 TIP3 3985 TIP3 OH2  OT    -0.834000       15.9994           0
   19860 TIP3 3985 TIP3 H1   HT     0.417000        1.0080           0
   19861 TIP3 3985 TIP3 H2   HT     0.417000        1.0080           0
   19862 TIP3 3986 TIP3 OH2  OT    -0.834000       15.9994           0
   19863 TIP3 3986 TIP3 H1   HT     0.417000        1.0080           0
   19864 TIP3 3986 TIP3 H2   HT     0.417000        1.0080           0
   19865 TIP3 3987 TIP3 OH2  OT    -0.834000       15.9994           0
   19866 TIP3 3987 TIP3 H1   HT     0.417000        1.0080           0
   19867 TIP3 3987 TIP3 H2   HT     0.417000        1.0080           0
   19868 TIP3 3988 TIP3 OH2  OT    -0.834000       15.9994           0
   19869 TIP3 3988 TIP3 H1   HT     0.417000        1.0080           0
   19870 TIP3 3988 TIP3 H2   HT     0.417000        1.0080           0
   19871 TIP3 3989 TIP3 OH2  OT    -0.834000       15.9994           0
   19872 TIP3 3989 TIP3 H1   HT     0.417000        1.0080           0
   19873 TIP3 3989 TIP3 H2   HT     0.417000        1.0080           0
   19874 TIP3 3990 TIP3 OH2  OT    -0.834000       15.9994           0
   19875 TIP3 3990 TIP3 H1   HT     0.417000        1.0080           0
   19876 TIP3 3990 TIP3 H2   HT     0.417000        1.0080           0
   19877 TIP3 3991 TIP3 OH2  OT    -0.834000       15.9994           0
   19878 TIP3 3991 TIP3 H1   HT     0.417000        1.0080           0
   19879 TIP3 3991 TIP3 H2   HT     0.417000        1.0080           0
   19880 TIP3 3992 TIP3 OH2  OT    -0.834000       15.9994           0
   19881 TIP3 3992 TIP3 H1   HT     0.417000        1.0080           0
   19882 TIP3 3992 TIP3 H2   HT     0.417000        1.0080           0
   19883 TIP3 3993 TIP3 OH2  OT    -0.834000       15.9994           0
   19884 TIP3 3993 TIP3 H1   HT     0.417000        1.0080           0
   19885 TIP3 3993 TIP3 H2   HT     0.417000        1.0080           0
   19886 TIP3 3994 TIP3 OH2  OT    -0.834000       15.9994           0
   19887 TIP3 3994 TIP3 H1   HT     0.417000        1.0080           0
   19888 TIP3 3994 TIP3 H2   HT     0.417000        1.0080           0
   19889 TIP3 3995 TIP3 OH2  OT    -0.834000       15.9994           0
   19890 TIP3 3995 TIP3 H1   HT     0.417000        1.0080           0
   19891 TIP3 3995 TIP3 H2   HT     0.417000        1.0080           0
   19892 TIP3 3996 TIP3 OH2  OT    -0.834000       15.9994           0
   19893 TIP3 3996 TIP3 H1   HT     0.417000        1.0080           0
   19894 TIP3 3996 TIP3 H2   HT     0.417000        1.0080           0
   19895 TIP3 3997 TIP3 OH2  OT    -0.834000       15.9994           0
   19896 TIP3 3997 TIP3 H1   HT     0.417000        1.0080           0
   19897 TIP3 3997 TIP3 H2   HT     0.417000        1.0080           0
   19898 TIP3 3998 TIP3 OH2  OT    -0.834000       15.9994           0
   19899 TIP3 3998 TIP3 H1   HT     0.417000        1.0080           0
   19900 TIP3 3998 TIP3 H2   HT     0.417000        1.0080           0
   19901 TIP3 3999 TIP3 OH2  OT    -0.834000       15.9994           0
   19902 TIP3 3999 TIP3 H1   HT     0.417000        1.0080           0
   19903 TIP3 3999 TIP3 H2   HT     0.417000        1.0080           0
   19904 TIP3 4000 TIP3 OH2  OT    -0.834000       15.9994           0
   19905 TIP3 4000 TIP3 H1   HT     0.417000        1.0080           0
   19906 TIP3 4000 TIP3 H2   HT     0.417000        1.0080           0
   19907 TIP3 4001 TIP3 OH2  OT    -0.834000       15.9994           0
   19908 TIP3 4001 TIP3 H1   HT     0.417000        1.0080           0
   19909 TIP3 4001 TIP3 H2   HT     0.417000        1.0080           0
   19910 TIP3 4002 TIP3 OH2  OT    -0.834000       15.9994           0
   19911 TIP3 4002 TIP3 H1   HT     0.417000        1.0080           0
   19912 TIP3 4002 TIP3 H2   HT     0.417000        1.0080           0
   19913 TIP3 4003 TIP3 OH2  OT    -0.834000       15.9994           0
   19914 TIP3 4003 TIP3 H1   HT     0.417000        1.0080           0
   19915 TIP3 4003 TIP3 H2   HT     0.417000        1.0080           0
   19916 TIP3 4004 TIP3 OH2  OT    -0.834000       15.9994           0
   19917 TIP3 4004 TIP3 H1   HT     0.417000        1.0080           0
   19918 TIP3 4004 TIP3 H2   HT     0.417000        1.0080           0
   19919 TIP3 4005 TIP3 OH2  OT    -0.834000       15.9994           0
   19920 TIP3 4005 TIP3 H1   HT     0.417000        1.0080           0
   19921 TIP3 4005 TIP3 H2   HT     0.417000        1.0080           0
   19922 TIP3 4006 TIP3 OH2  OT    -0.834000       15.9994           0
   19923 TIP3 4006 TIP3 H1   HT     0.417000        1.0080           0
   19924 TIP3 4006 TIP3 H2   HT     0.417000        1.0080           0
   19925 TIP3 4007 TIP3 OH2  OT    -0.834000       15.9994           0
   19926 TIP3 4007 TIP3 H1   HT     0.417000        1.0080           0
   19927 TIP3 4007 TIP3 H2   HT     0.417000        1.0080           0
   19928 TIP3 4008 TIP3 OH2  OT    -0.834000       15.9994           0
   19929 TIP3 4008 TIP3 H1   HT     0.417000        1.0080           0
   19930 TIP3 4008 TIP3 H2   HT     0.417000        1.0080           0
   19931 TIP3 4009 TIP3 OH2  OT    -0.834000       15.9994           0
   19932 TIP3 4009 TIP3 H1   HT     0.417000        1.0080           0
   19933 TIP3 4009 TIP3 H2   HT     0.417000        1.0080           0
   19934 TIP3 4010 TIP3 OH2  OT    -0.834000       15.9994           0
   19935 TIP3 4010 TIP3 H1   HT     0.417000        1.0080           0
   19936 TIP3 4010 TIP3 H2   HT     0.417000        1.0080           0
   19937 TIP3 4011 TIP3 OH2  OT    -0.834000       15.9994           0
   19938 TIP3 4011 TIP3 H1   HT     0.417000        1.0080           0
   19939 TIP3 4011 TIP3 H2   HT     0.417000        1.0080           0
   19940 TIP3 4012 TIP3 OH2  OT    -0.834000       15.9994           0
   19941 TIP3 4012 TIP3 H1   HT     0.417000        1.0080           0
   19942 TIP3 4012 TIP3 H2   HT     0.417000        1.0080           0
   19943 TIP3 4013 TIP3 OH2  OT    -0.834000       15.9994           0
   19944 TIP3 4013 TIP3 H1   HT     0.417000        1.0080           0
   19945 TIP3 4013 TIP3 H2   HT     0.417000        1.0080           0
   19946 TIP3 4014 TIP3 OH2  OT    -0.834000       15.9994           0
   19947 TIP3 4014 TIP3 H1   HT     0.417000        1.0080           0
   19948 TIP3 4014 TIP3 H2   HT     0.417000        1.0080           0
   19949 TIP3 4015 TIP3 OH2  OT    -0.834000       15.9994           0
   19950 TIP3 4015 TIP3 H1   HT     0.417000        1.0080           0
   19951 TIP3 4015 TIP3 H2   HT     0.417000        1.0080           0
   19952 TIP3 4016 TIP3 OH2  OT    -0.834000       15.9994           0
   19953 TIP3 4016 TIP3 H1   HT     0.417000        1.0080           0
   19954 TIP3 4016 TIP3 H2   HT     0.417000        1.0080           0
   19955 TIP3 4017 TIP3 OH2  OT    -0.834000       15.9994           0
   19956 TIP3 4017 TIP3 H1   HT     0.417000        1.0080           0
   19957 TIP3 4017 TIP3 H2   HT     0.417000        1.0080           0
   19958 TIP3 4018 TIP3 OH2  OT    -0.834000       15.9994           0
   19959 TIP3 4018 TIP3 H1   HT     0.417000        1.0080           0
   19960 TIP3 4018 TIP3 H2   HT     0.417000        1.0080           0
   19961 TIP3 4019 TIP3 OH2  OT    -0.834000       15.9994           0
   19962 TIP3 4019 TIP3 H1   HT     0.417000        1.0080           0
   19963 TIP3 4019 TIP3 H2   HT     0.417000        1.0080           0
   19964 TIP3 4020 TIP3 OH2  OT    -0.834000       15.9994           0
   19965 TIP3 4020 TIP3 H1   HT     0.417000        1.0080           0
   19966 TIP3 4020 TIP3 H2   HT     0.417000        1.0080           0
   19967 TIP3 4021 TIP3 OH2  OT    -0.834000       15.9994           0
   19968 TIP3 4021 TIP3 H1   HT     0.417000        1.0080           0
   19969 TIP3 4021 TIP3 H2   HT     0.417000        1.0080           0
   19970 TIP3 4022 TIP3 OH2  OT    -0.834000       15.9994           0
   19971 TIP3 4022 TIP3 H1   HT     0.417000        1.0080           0
   19972 TIP3 4022 TIP3 H2   HT     0.417000        1.0080           0
   19973 TIP3 4023 TIP3 OH2  OT    -0.834000       15.9994           0
   19974 TIP3 4023 TIP3 H1   HT     0.417000        1.0080           0
   19975 TIP3 4023 TIP3 H2   HT     0.417000        1.0080           0
   19976 TIP3 4024 TIP3 OH2  OT    -0.834000       15.9994           0
   19977 TIP3 4024 TIP3 H1   HT     0.417000        1.0080           0
   19978 TIP3 4024 TIP3 H2   HT     0.417000        1.0080           0
   19979 TIP3 4025 TIP3 OH2  OT    -0.834000       15.9994           0
   19980 TIP3 4025 TIP3 H1   HT     0.417000        1.0080           0
   19981 TIP3 4025 TIP3 H2   HT     0.417000        1.0080           0
   19982 TIP3 4026 TIP3 OH2  OT    -0.834000       15.9994           0
   19983 TIP3 4026 TIP3 H1   HT     0.417000        1.0080           0
   19984 TIP3 4026 TIP3 H2   HT     0.417000        1.0080           0
   19985 TIP3 4027 TIP3 OH2  OT    -0.834000       15.9994           0
   19986 TIP3 4027 TIP3 H1   HT     0.417000        1.0080           0
   19987 TIP3 4027 TIP3 H2   HT     0.417000        1.0080           0
   19988 TIP3 4028 TIP3 OH2  OT    -0.834000       15.9994           0
   19989 TIP3 4028 TIP3 H1   HT     0.417000        1.0080           0
   19990 TIP3 4028 TIP3 H2   HT     0.417000        1.0080           0
   19991 TIP3 4029 TIP3 OH2  OT    -0.834000       15.9994           0
   19992 TIP3 4029 TIP3 H1   HT     0.417000        1.0080           0
   19993 TIP3 4029 TIP3 H2   HT     0.417000        1.0080           0
   19994 TIP3 4030 TIP3 OH2  OT    -0.834000       15.9994           0
   19995 TIP3 4030 TIP3 H1   HT     0.417000        1.0080           0
   19996 TIP3 4030 TIP3 H2   HT     0.417000        1.0080           0
   19997 TIP3 4031 TIP3 OH2  OT    -0.834000       15.9994           0
   19998 TIP3 4031 TIP3 H1   HT     0.417000        1.0080           0
   19999 TIP3 4031 TIP3 H2   HT     0.417000        1.0080           0
   20000 TIP3 4032 TIP3 OH2  OT    -0.834000       15.9994           0
   20001 TIP3 4032 TIP3 H1   HT     0.417000        1.0080           0
   20002 TIP3 4032 TIP3 H2   HT     0.417000        1.0080           0
   20003 TIP3 4033 TIP3 OH2  OT    -0.834000       15.9994           0
   20004 TIP3 4033 TIP3 H1   HT     0.417000        1.0080           0
   20005 TIP3 4033 TIP3 H2   HT     0.417000        1.0080           0
   20006 TIP3 4034 TIP3 OH2  OT    -0.834000       15.9994           0
   20007 TIP3 4034 TIP3 H1   HT     0.417000        1.0080           0
   20008 TIP3 4034 TIP3 H2   HT     0.417000        1.0080           0
   20009 TIP3 4035 TIP3 OH2  OT    -0.834000       15.9994           0
   20010 TIP3 4035 TIP3 H1   HT     0.417000        1.0080           0
   20011 TIP3 4035 TIP3 H2   HT     0.417000        1.0080           0
   20012 TIP3 4036 TIP3 OH2  OT    -0.834000       15.9994           0
   20013 TIP3 4036 TIP3 H1   HT     0.417000        1.0080           0
   20014 TIP3 4036 TIP3 H2   HT     0.417000        1.0080           0
   20015 TIP3 4037 TIP3 OH2  OT    -0.834000       15.9994           0
   20016 TIP3 4037 TIP3 H1   HT     0.417000        1.0080           0
   20017 TIP3 4037 TIP3 H2   HT     0.417000        1.0080           0
   20018 TIP3 4038 TIP3 OH2  OT    -0.834000       15.9994           0
   20019 TIP3 4038 TIP3 H1   HT     0.417000        1.0080           0
   20020 TIP3 4038 TIP3 H2   HT     0.417000        1.0080           0
   20021 TIP3 4039 TIP3 OH2  OT    -0.834000       15.9994           0
   20022 TIP3 4039 TIP3 H1   HT     0.417000        1.0080           0
   20023 TIP3 4039 TIP3 H2   HT     0.417000        1.0080           0
   20024 TIP3 4040 TIP3 OH2  OT    -0.834000       15.9994           0
   20025 TIP3 4040 TIP3 H1   HT     0.417000        1.0080           0
   20026 TIP3 4040 TIP3 H2   HT     0.417000        1.0080           0
   20027 TIP3 4041 TIP3 OH2  OT    -0.834000       15.9994           0
   20028 TIP3 4041 TIP3 H1   HT     0.417000        1.0080           0
   20029 TIP3 4041 TIP3 H2   HT     0.417000        1.0080           0
   20030 TIP3 4042 TIP3 OH2  OT    -0.834000       15.9994           0
   20031 TIP3 4042 TIP3 H1   HT     0.417000        1.0080           0
   20032 TIP3 4042 TIP3 H2   HT     0.417000        1.0080           0
   20033 TIP3 4043 TIP3 OH2  OT    -0.834000       15.9994           0
   20034 TIP3 4043 TIP3 H1   HT     0.417000        1.0080           0
   20035 TIP3 4043 TIP3 H2   HT     0.417000        1.0080           0
   20036 TIP3 4044 TIP3 OH2  OT    -0.834000       15.9994           0
   20037 TIP3 4044 TIP3 H1   HT     0.417000        1.0080           0
   20038 TIP3 4044 TIP3 H2   HT     0.417000        1.0080           0
   20039 TIP3 4045 TIP3 OH2  OT    -0.834000       15.9994           0
   20040 TIP3 4045 TIP3 H1   HT     0.417000        1.0080           0
   20041 TIP3 4045 TIP3 H2   HT     0.417000        1.0080           0
   20042 TIP3 4046 TIP3 OH2  OT    -0.834000       15.9994           0
   20043 TIP3 4046 TIP3 H1   HT     0.417000        1.0080           0
   20044 TIP3 4046 TIP3 H2   HT     0.417000        1.0080           0
   20045 TIP3 4047 TIP3 OH2  OT    -0.834000       15.9994           0
   20046 TIP3 4047 TIP3 H1   HT     0.417000        1.0080           0
   20047 TIP3 4047 TIP3 H2   HT     0.417000        1.0080           0
   20048 TIP3 4048 TIP3 OH2  OT    -0.834000       15.9994           0
   20049 TIP3 4048 TIP3 H1   HT     0.417000        1.0080           0
   20050 TIP3 4048 TIP3 H2   HT     0.417000        1.0080           0
   20051 TIP3 4049 TIP3 OH2  OT    -0.834000       15.9994           0
   20052 TIP3 4049 TIP3 H1   HT     0.417000        1.0080           0
   20053 TIP3 4049 TIP3 H2   HT     0.417000        1.0080           0
   20054 TIP3 4050 TIP3 OH2  OT    -0.834000       15.9994           0
   20055 TIP3 4050 TIP3 H1   HT     0.417000        1.0080           0
   20056 TIP3 4050 TIP3 H2   HT     0.417000        1.0080           0
   20057 TIP3 4051 TIP3 OH2  OT    -0.834000       15.9994           0
   20058 TIP3 4051 TIP3 H1   HT     0.417000        1.0080           0
   20059 TIP3 4051 TIP3 H2   HT     0.417000        1.0080           0
   20060 TIP3 4052 TIP3 OH2  OT    -0.834000       15.9994           0
   20061 TIP3 4052 TIP3 H1   HT     0.417000        1.0080           0
   20062 TIP3 4052 TIP3 H2   HT     0.417000        1.0080           0
   20063 TIP3 4053 TIP3 OH2  OT    -0.834000       15.9994           0
   20064 TIP3 4053 TIP3 H1   HT     0.417000        1.0080           0
   20065 TIP3 4053 TIP3 H2   HT     0.417000        1.0080           0
   20066 TIP3 4054 TIP3 OH2  OT    -0.834000       15.9994           0
   20067 TIP3 4054 TIP3 H1   HT     0.417000        1.0080           0
   20068 TIP3 4054 TIP3 H2   HT     0.417000        1.0080           0
   20069 TIP3 4055 TIP3 OH2  OT    -0.834000       15.9994           0
   20070 TIP3 4055 TIP3 H1   HT     0.417000        1.0080           0
   20071 TIP3 4055 TIP3 H2   HT     0.417000        1.0080           0
   20072 TIP3 4056 TIP3 OH2  OT    -0.834000       15.9994           0
   20073 TIP3 4056 TIP3 H1   HT     0.417000        1.0080           0
   20074 TIP3 4056 TIP3 H2   HT     0.417000        1.0080           0
   20075 TIP3 4057 TIP3 OH2  OT    -0.834000       15.9994           0
   20076 TIP3 4057 TIP3 H1   HT     0.417000        1.0080           0
   20077 TIP3 4057 TIP3 H2   HT     0.417000        1.0080           0
   20078 TIP3 4058 TIP3 OH2  OT    -0.834000       15.9994           0
   20079 TIP3 4058 TIP3 H1   HT     0.417000        1.0080           0
   20080 TIP3 4058 TIP3 H2   HT     0.417000        1.0080           0
   20081 TIP3 4059 TIP3 OH2  OT    -0.834000       15.9994           0
   20082 TIP3 4059 TIP3 H1   HT     0.417000        1.0080           0
   20083 TIP3 4059 TIP3 H2   HT     0.417000        1.0080           0
   20084 TIP3 4060 TIP3 OH2  OT    -0.834000       15.9994           0
   20085 TIP3 4060 TIP3 H1   HT     0.417000        1.0080           0
   20086 TIP3 4060 TIP3 H2   HT     0.417000        1.0080           0
   20087 TIP3 4061 TIP3 OH2  OT    -0.834000       15.9994           0
   20088 TIP3 4061 TIP3 H1   HT     0.417000        1.0080           0
   20089 TIP3 4061 TIP3 H2   HT     0.417000        1.0080           0
   20090 TIP3 4062 TIP3 OH2  OT    -0.834000       15.9994           0
   20091 TIP3 4062 TIP3 H1   HT     0.417000        1.0080           0
   20092 TIP3 4062 TIP3 H2   HT     0.417000        1.0080           0
   20093 TIP3 4063 TIP3 OH2  OT    -0.834000       15.9994           0
   20094 TIP3 4063 TIP3 H1   HT     0.417000        1.0080           0
   20095 TIP3 4063 TIP3 H2   HT     0.417000        1.0080           0
   20096 TIP3 4064 TIP3 OH2  OT    -0.834000       15.9994           0
   20097 TIP3 4064 TIP3 H1   HT     0.417000        1.0080           0
   20098 TIP3 4064 TIP3 H2   HT     0.417000        1.0080           0
   20099 TIP3 4065 TIP3 OH2  OT    -0.834000       15.9994           0
   20100 TIP3 4065 TIP3 H1   HT     0.417000        1.0080           0
   20101 TIP3 4065 TIP3 H2   HT     0.417000        1.0080           0
   20102 TIP3 4066 TIP3 OH2  OT    -0.834000       15.9994           0
   20103 TIP3 4066 TIP3 H1   HT     0.417000        1.0080           0
   20104 TIP3 4066 TIP3 H2   HT     0.417000        1.0080           0
   20105 TIP3 4067 TIP3 OH2  OT    -0.834000       15.9994           0
   20106 TIP3 4067 TIP3 H1   HT     0.417000        1.0080           0
   20107 TIP3 4067 TIP3 H2   HT     0.417000        1.0080           0
   20108 TIP3 4068 TIP3 OH2  OT    -0.834000       15.9994           0
   20109 TIP3 4068 TIP3 H1   HT     0.417000        1.0080           0
   20110 TIP3 4068 TIP3 H2   HT     0.417000        1.0080           0
   20111 TIP3 4069 TIP3 OH2  OT    -0.834000       15.9994           0
   20112 TIP3 4069 TIP3 H1   HT     0.417000        1.0080           0
   20113 TIP3 4069 TIP3 H2   HT     0.417000        1.0080           0
   20114 TIP3 4070 TIP3 OH2  OT    -0.834000       15.9994           0
   20115 TIP3 4070 TIP3 H1   HT     0.417000        1.0080           0
   20116 TIP3 4070 TIP3 H2   HT     0.417000        1.0080           0
   20117 TIP3 4071 TIP3 OH2  OT    -0.834000       15.9994           0
   20118 TIP3 4071 TIP3 H1   HT     0.417000        1.0080           0
   20119 TIP3 4071 TIP3 H2   HT     0.417000        1.0080           0
   20120 TIP3 4072 TIP3 OH2  OT    -0.834000       15.9994           0
   20121 TIP3 4072 TIP3 H1   HT     0.417000        1.0080           0
   20122 TIP3 4072 TIP3 H2   HT     0.417000        1.0080           0
   20123 TIP3 4073 TIP3 OH2  OT    -0.834000       15.9994           0
   20124 TIP3 4073 TIP3 H1   HT     0.417000        1.0080           0
   20125 TIP3 4073 TIP3 H2   HT     0.417000        1.0080           0
   20126 TIP3 4074 TIP3 OH2  OT    -0.834000       15.9994           0
   20127 TIP3 4074 TIP3 H1   HT     0.417000        1.0080           0
   20128 TIP3 4074 TIP3 H2   HT     0.417000        1.0080           0
   20129 TIP3 4075 TIP3 OH2  OT    -0.834000       15.9994           0
   20130 TIP3 4075 TIP3 H1   HT     0.417000        1.0080           0
   20131 TIP3 4075 TIP3 H2   HT     0.417000        1.0080           0
   20132 TIP3 4076 TIP3 OH2  OT    -0.834000       15.9994           0
   20133 TIP3 4076 TIP3 H1   HT     0.417000        1.0080           0
   20134 TIP3 4076 TIP3 H2   HT     0.417000        1.0080           0
   20135 TIP3 4077 TIP3 OH2  OT    -0.834000       15.9994           0
   20136 TIP3 4077 TIP3 H1   HT     0.417000        1.0080           0
   20137 TIP3 4077 TIP3 H2   HT     0.417000        1.0080           0
   20138 TIP3 4078 TIP3 OH2  OT    -0.834000       15.9994           0
   20139 TIP3 4078 TIP3 H1   HT     0.417000        1.0080           0
   20140 TIP3 4078 TIP3 H2   HT     0.417000        1.0080           0
   20141 TIP3 4079 TIP3 OH2  OT    -0.834000       15.9994           0
   20142 TIP3 4079 TIP3 H1   HT     0.417000        1.0080           0
   20143 TIP3 4079 TIP3 H2   HT     0.417000        1.0080           0
   20144 TIP3 4080 TIP3 OH2  OT    -0.834000       15.9994           0
   20145 TIP3 4080 TIP3 H1   HT     0.417000        1.0080           0
   20146 TIP3 4080 TIP3 H2   HT     0.417000        1.0080           0
   20147 TIP3 4081 TIP3 OH2  OT    -0.834000       15.9994           0
   20148 TIP3 4081 TIP3 H1   HT     0.417000        1.0080           0
   20149 TIP3 4081 TIP3 H2   HT     0.417000        1.0080           0
   20150 TIP3 4082 TIP3 OH2  OT    -0.834000       15.9994           0
   20151 TIP3 4082 TIP3 H1   HT     0.417000        1.0080           0
   20152 TIP3 4082 TIP3 H2   HT     0.417000        1.0080           0
   20153 TIP3 4083 TIP3 OH2  OT    -0.834000       15.9994           0
   20154 TIP3 4083 TIP3 H1   HT     0.417000        1.0080           0
   20155 TIP3 4083 TIP3 H2   HT     0.417000        1.0080           0
   20156 TIP3 4084 TIP3 OH2  OT    -0.834000       15.9994           0
   20157 TIP3 4084 TIP3 H1   HT     0.417000        1.0080           0
   20158 TIP3 4084 TIP3 H2   HT     0.417000        1.0080           0
   20159 TIP3 4085 TIP3 OH2  OT    -0.834000       15.9994           0
   20160 TIP3 4085 TIP3 H1   HT     0.417000        1.0080           0
   20161 TIP3 4085 TIP3 H2   HT     0.417000        1.0080           0
   20162 TIP3 4086 TIP3 OH2  OT    -0.834000       15.9994           0
   20163 TIP3 4086 TIP3 H1   HT     0.417000        1.0080           0
   20164 TIP3 4086 TIP3 H2   HT     0.417000        1.0080           0
   20165 TIP3 4087 TIP3 OH2  OT    -0.834000       15.9994           0
   20166 TIP3 4087 TIP3 H1   HT     0.417000        1.0080           0
   20167 TIP3 4087 TIP3 H2   HT     0.417000        1.0080           0
   20168 TIP3 4088 TIP3 OH2  OT    -0.834000       15.9994           0
   20169 TIP3 4088 TIP3 H1   HT     0.417000        1.0080           0
   20170 TIP3 4088 TIP3 H2   HT     0.417000        1.0080           0
   20171 TIP3 4089 TIP3 OH2  OT    -0.834000       15.9994           0
   20172 TIP3 4089 TIP3 H1   HT     0.417000        1.0080           0
   20173 TIP3 4089 TIP3 H2   HT     0.417000        1.0080           0
   20174 TIP3 4090 TIP3 OH2  OT    -0.834000       15.9994           0
   20175 TIP3 4090 TIP3 H1   HT     0.417000        1.0080           0
   20176 TIP3 4090 TIP3 H2   HT     0.417000        1.0080           0
   20177 TIP3 4091 TIP3 OH2  OT    -0.834000       15.9994           0
   20178 TIP3 4091 TIP3 H1   HT     0.417000        1.0080           0
   20179 TIP3 4091 TIP3 H2   HT     0.417000        1.0080           0
   20180 TIP3 4092 TIP3 OH2  OT    -0.834000       15.9994           0
   20181 TIP3 4092 TIP3 H1   HT     0.417000        1.0080           0
   20182 TIP3 4092 TIP3 H2   HT     0.417000        1.0080           0
   20183 TIP3 4093 TIP3 OH2  OT    -0.834000       15.9994           0
   20184 TIP3 4093 TIP3 H1   HT     0.417000        1.0080           0
   20185 TIP3 4093 TIP3 H2   HT     0.417000        1.0080           0
   20186 TIP3 4094 TIP3 OH2  OT    -0.834000       15.9994           0
   20187 TIP3 4094 TIP3 H1   HT     0.417000        1.0080           0
   20188 TIP3 4094 TIP3 H2   HT     0.417000        1.0080           0
   20189 TIP3 4095 TIP3 OH2  OT    -0.834000       15.9994           0
   20190 TIP3 4095 TIP3 H1   HT     0.417000        1.0080           0
   20191 TIP3 4095 TIP3 H2   HT     0.417000        1.0080           0
   20192 TIP3 4096 TIP3 OH2  OT    -0.834000       15.9994           0
   20193 TIP3 4096 TIP3 H1   HT     0.417000        1.0080           0
   20194 TIP3 4096 TIP3 H2   HT     0.417000        1.0080           0
   20195 TIP3 4097 TIP3 OH2  OT    -0.834000       15.9994           0
   20196 TIP3 4097 TIP3 H1   HT     0.417000        1.0080           0
   20197 TIP3 4097 TIP3 H2   HT     0.417000        1.0080           0
   20198 TIP3 4098 TIP3 OH2  OT    -0.834000       15.9994           0
   20199 TIP3 4098 TIP3 H1   HT     0.417000        1.0080           0
   20200 TIP3 4098 TIP3 H2   HT     0.417000        1.0080           0
   20201 TIP3 4099 TIP3 OH2  OT    -0.834000       15.9994           0
   20202 TIP3 4099 TIP3 H1   HT     0.417000        1.0080           0
   20203 TIP3 4099 TIP3 H2   HT     0.417000        1.0080           0
   20204 TIP3 4100 TIP3 OH2  OT    -0.834000       15.9994           0
   20205 TIP3 4100 TIP3 H1   HT     0.417000        1.0080           0
   20206 TIP3 4100 TIP3 H2   HT     0.417000        1.0080           0
   20207 TIP3 4101 TIP3 OH2  OT    -0.834000       15.9994           0
   20208 TIP3 4101 TIP3 H1   HT     0.417000        1.0080           0
   20209 TIP3 4101 TIP3 H2   HT     0.417000        1.0080           0
   20210 TIP3 4102 TIP3 OH2  OT    -0.834000       15.9994           0
   20211 TIP3 4102 TIP3 H1   HT     0.417000        1.0080           0
   20212 TIP3 4102 TIP3 H2   HT     0.417000        1.0080           0
   20213 TIP3 4103 TIP3 OH2  OT    -0.834000       15.9994           0
   20214 TIP3 4103 TIP3 H1   HT     0.417000        1.0080           0
   20215 TIP3 4103 TIP3 H2   HT     0.417000        1.0080           0
   20216 TIP3 4104 TIP3 OH2  OT    -0.834000       15.9994           0
   20217 TIP3 4104 TIP3 H1   HT     0.417000        1.0080           0
   20218 TIP3 4104 TIP3 H2   HT     0.417000        1.0080           0
   20219 TIP3 4105 TIP3 OH2  OT    -0.834000       15.9994           0
   20220 TIP3 4105 TIP3 H1   HT     0.417000        1.0080           0
   20221 TIP3 4105 TIP3 H2   HT     0.417000        1.0080           0
   20222 TIP3 4106 TIP3 OH2  OT    -0.834000       15.9994           0
   20223 TIP3 4106 TIP3 H1   HT     0.417000        1.0080           0
   20224 TIP3 4106 TIP3 H2   HT     0.417000        1.0080           0
   20225 TIP3 4107 TIP3 OH2  OT    -0.834000       15.9994           0
   20226 TIP3 4107 TIP3 H1   HT     0.417000        1.0080           0
   20227 TIP3 4107 TIP3 H2   HT     0.417000        1.0080           0
   20228 TIP3 4108 TIP3 OH2  OT    -0.834000       15.9994           0
   20229 TIP3 4108 TIP3 H1   HT     0.417000        1.0080           0
   20230 TIP3 4108 TIP3 H2   HT     0.417000        1.0080           0
   20231 TIP3 4109 TIP3 OH2  OT    -0.834000       15.9994           0
   20232 TIP3 4109 TIP3 H1   HT     0.417000        1.0080           0
   20233 TIP3 4109 TIP3 H2   HT     0.417000        1.0080           0
   20234 TIP3 4110 TIP3 OH2  OT    -0.834000       15.9994           0
   20235 TIP3 4110 TIP3 H1   HT     0.417000        1.0080           0
   20236 TIP3 4110 TIP3 H2   HT     0.417000        1.0080           0
   20237 TIP3 4111 TIP3 OH2  OT    -0.834000       15.9994           0
   20238 TIP3 4111 TIP3 H1   HT     0.417000        1.0080           0
   20239 TIP3 4111 TIP3 H2   HT     0.417000        1.0080           0
   20240 TIP3 4112 TIP3 OH2  OT    -0.834000       15.9994           0
   20241 TIP3 4112 TIP3 H1   HT     0.417000        1.0080           0
   20242 TIP3 4112 TIP3 H2   HT     0.417000        1.0080           0
   20243 TIP3 4113 TIP3 OH2  OT    -0.834000       15.9994           0
   20244 TIP3 4113 TIP3 H1   HT     0.417000        1.0080           0
   20245 TIP3 4113 TIP3 H2   HT     0.417000        1.0080           0
   20246 TIP3 4114 TIP3 OH2  OT    -0.834000       15.9994           0
   20247 TIP3 4114 TIP3 H1   HT     0.417000        1.0080           0
   20248 TIP3 4114 TIP3 H2   HT     0.417000        1.0080           0
   20249 TIP3 4115 TIP3 OH2  OT    -0.834000       15.9994           0
   20250 TIP3 4115 TIP3 H1   HT     0.417000        1.0080           0
   20251 TIP3 4115 TIP3 H2   HT     0.417000        1.0080           0
   20252 TIP3 4116 TIP3 OH2  OT    -0.834000       15.9994           0
   20253 TIP3 4116 TIP3 H1   HT     0.417000        1.0080           0
   20254 TIP3 4116 TIP3 H2   HT     0.417000        1.0080           0
   20255 TIP3 4117 TIP3 OH2  OT    -0.834000       15.9994           0
   20256 TIP3 4117 TIP3 H1   HT     0.417000        1.0080           0
   20257 TIP3 4117 TIP3 H2   HT     0.417000        1.0080           0
   20258 TIP3 4118 TIP3 OH2  OT    -0.834000       15.9994           0
   20259 TIP3 4118 TIP3 H1   HT     0.417000        1.0080           0
   20260 TIP3 4118 TIP3 H2   HT     0.417000        1.0080           0
   20261 TIP3 4119 TIP3 OH2  OT    -0.834000       15.9994           0
   20262 TIP3 4119 TIP3 H1   HT     0.417000        1.0080           0
   20263 TIP3 4119 TIP3 H2   HT     0.417000        1.0080           0
   20264 TIP3 4120 TIP3 OH2  OT    -0.834000       15.9994           0
   20265 TIP3 4120 TIP3 H1   HT     0.417000        1.0080           0
   20266 TIP3 4120 TIP3 H2   HT     0.417000        1.0080           0
   20267 TIP3 4121 TIP3 OH2  OT    -0.834000       15.9994           0
   20268 TIP3 4121 TIP3 H1   HT     0.417000        1.0080           0
   20269 TIP3 4121 TIP3 H2   HT     0.417000        1.0080           0
   20270 TIP3 4122 TIP3 OH2  OT    -0.834000       15.9994           0
   20271 TIP3 4122 TIP3 H1   HT     0.417000        1.0080           0
   20272 TIP3 4122 TIP3 H2   HT     0.417000        1.0080           0
   20273 TIP3 4123 TIP3 OH2  OT    -0.834000       15.9994           0
   20274 TIP3 4123 TIP3 H1   HT     0.417000        1.0080           0
   20275 TIP3 4123 TIP3 H2   HT     0.417000        1.0080           0
   20276 TIP3 4124 TIP3 OH2  OT    -0.834000       15.9994           0
   20277 TIP3 4124 TIP3 H1   HT     0.417000        1.0080           0
   20278 TIP3 4124 TIP3 H2   HT     0.417000        1.0080           0
   20279 TIP3 4125 TIP3 OH2  OT    -0.834000       15.9994           0
   20280 TIP3 4125 TIP3 H1   HT     0.417000        1.0080           0
   20281 TIP3 4125 TIP3 H2   HT     0.417000        1.0080           0
   20282 TIP3 4126 TIP3 OH2  OT    -0.834000       15.9994           0
   20283 TIP3 4126 TIP3 H1   HT     0.417000        1.0080           0
   20284 TIP3 4126 TIP3 H2   HT     0.417000        1.0080           0
   20285 TIP3 4127 TIP3 OH2  OT    -0.834000       15.9994           0
   20286 TIP3 4127 TIP3 H1   HT     0.417000        1.0080           0
   20287 TIP3 4127 TIP3 H2   HT     0.417000        1.0080           0
   20288 TIP3 4128 TIP3 OH2  OT    -0.834000       15.9994           0
   20289 TIP3 4128 TIP3 H1   HT     0.417000        1.0080           0
   20290 TIP3 4128 TIP3 H2   HT     0.417000        1.0080           0
   20291 TIP3 4129 TIP3 OH2  OT    -0.834000       15.9994           0
   20292 TIP3 4129 TIP3 H1   HT     0.417000        1.0080           0
   20293 TIP3 4129 TIP3 H2   HT     0.417000        1.0080           0
   20294 TIP3 4130 TIP3 OH2  OT    -0.834000       15.9994           0
   20295 TIP3 4130 TIP3 H1   HT     0.417000        1.0080           0
   20296 TIP3 4130 TIP3 H2   HT     0.417000        1.0080           0
   20297 TIP3 4131 TIP3 OH2  OT    -0.834000       15.9994           0
   20298 TIP3 4131 TIP3 H1   HT     0.417000        1.0080           0
   20299 TIP3 4131 TIP3 H2   HT     0.417000        1.0080           0
   20300 TIP3 4132 TIP3 OH2  OT    -0.834000       15.9994           0
   20301 TIP3 4132 TIP3 H1   HT     0.417000        1.0080           0
   20302 TIP3 4132 TIP3 H2   HT     0.417000        1.0080           0
   20303 TIP3 4133 TIP3 OH2  OT    -0.834000       15.9994           0
   20304 TIP3 4133 TIP3 H1   HT     0.417000        1.0080           0
   20305 TIP3 4133 TIP3 H2   HT     0.417000        1.0080           0
   20306 TIP3 4134 TIP3 OH2  OT    -0.834000       15.9994           0
   20307 TIP3 4134 TIP3 H1   HT     0.417000        1.0080           0
   20308 TIP3 4134 TIP3 H2   HT     0.417000        1.0080           0
   20309 TIP3 4135 TIP3 OH2  OT    -0.834000       15.9994           0
   20310 TIP3 4135 TIP3 H1   HT     0.417000        1.0080           0
   20311 TIP3 4135 TIP3 H2   HT     0.417000        1.0080           0
   20312 TIP3 4136 TIP3 OH2  OT    -0.834000       15.9994           0
   20313 TIP3 4136 TIP3 H1   HT     0.417000        1.0080           0
   20314 TIP3 4136 TIP3 H2   HT     0.417000        1.0080           0
   20315 TIP3 4137 TIP3 OH2  OT    -0.834000       15.9994           0
   20316 TIP3 4137 TIP3 H1   HT     0.417000        1.0080           0
   20317 TIP3 4137 TIP3 H2   HT     0.417000        1.0080           0
   20318 TIP3 4138 TIP3 OH2  OT    -0.834000       15.9994           0
   20319 TIP3 4138 TIP3 H1   HT     0.417000        1.0080           0
   20320 TIP3 4138 TIP3 H2   HT     0.417000        1.0080           0
   20321 TIP3 4139 TIP3 OH2  OT    -0.834000       15.9994           0
   20322 TIP3 4139 TIP3 H1   HT     0.417000        1.0080           0
   20323 TIP3 4139 TIP3 H2   HT     0.417000        1.0080           0
   20324 TIP3 4140 TIP3 OH2  OT    -0.834000       15.9994           0
   20325 TIP3 4140 TIP3 H1   HT     0.417000        1.0080           0
   20326 TIP3 4140 TIP3 H2   HT     0.417000        1.0080           0
   20327 TIP3 4141 TIP3 OH2  OT    -0.834000       15.9994           0
   20328 TIP3 4141 TIP3 H1   HT     0.417000        1.0080           0
   20329 TIP3 4141 TIP3 H2   HT     0.417000        1.0080           0
   20330 TIP3 4142 TIP3 OH2  OT    -0.834000       15.9994           0
   20331 TIP3 4142 TIP3 H1   HT     0.417000        1.0080           0
   20332 TIP3 4142 TIP3 H2   HT     0.417000        1.0080           0
   20333 TIP3 4143 TIP3 OH2  OT    -0.834000       15.9994           0
   20334 TIP3 4143 TIP3 H1   HT     0.417000        1.0080           0
   20335 TIP3 4143 TIP3 H2   HT     0.417000        1.0080           0
   20336 TIP3 4144 TIP3 OH2  OT    -0.834000       15.9994           0
   20337 TIP3 4144 TIP3 H1   HT     0.417000        1.0080           0
   20338 TIP3 4144 TIP3 H2   HT     0.417000        1.0080           0
   20339 TIP3 4145 TIP3 OH2  OT    -0.834000       15.9994           0
   20340 TIP3 4145 TIP3 H1   HT     0.417000        1.0080           0
   20341 TIP3 4145 TIP3 H2   HT     0.417000        1.0080           0
   20342 TIP3 4146 TIP3 OH2  OT    -0.834000       15.9994           0
   20343 TIP3 4146 TIP3 H1   HT     0.417000        1.0080           0
   20344 TIP3 4146 TIP3 H2   HT     0.417000        1.0080           0
   20345 TIP3 4147 TIP3 OH2  OT    -0.834000       15.9994           0
   20346 TIP3 4147 TIP3 H1   HT     0.417000        1.0080           0
   20347 TIP3 4147 TIP3 H2   HT     0.417000        1.0080           0
   20348 TIP3 4148 TIP3 OH2  OT    -0.834000       15.9994           0
   20349 TIP3 4148 TIP3 H1   HT     0.417000        1.0080           0
   20350 TIP3 4148 TIP3 H2   HT     0.417000        1.0080           0
   20351 TIP3 4149 TIP3 OH2  OT    -0.834000       15.9994           0
   20352 TIP3 4149 TIP3 H1   HT     0.417000        1.0080           0
   20353 TIP3 4149 TIP3 H2   HT     0.417000        1.0080           0
   20354 TIP3 4150 TIP3 OH2  OT    -0.834000       15.9994           0
   20355 TIP3 4150 TIP3 H1   HT     0.417000        1.0080           0
   20356 TIP3 4150 TIP3 H2   HT     0.417000        1.0080           0
   20357 TIP3 4151 TIP3 OH2  OT    -0.834000       15.9994           0
   20358 TIP3 4151 TIP3 H1   HT     0.417000        1.0080           0
   20359 TIP3 4151 TIP3 H2   HT     0.417000        1.0080           0
   20360 TIP3 4152 TIP3 OH2  OT    -0.834000       15.9994           0
   20361 TIP3 4152 TIP3 H1   HT     0.417000        1.0080           0
   20362 TIP3 4152 TIP3 H2   HT     0.417000        1.0080           0
   20363 TIP3 4153 TIP3 OH2  OT    -0.834000       15.9994           0
   20364 TIP3 4153 TIP3 H1   HT     0.417000        1.0080           0
   20365 TIP3 4153 TIP3 H2   HT     0.417000        1.0080           0
   20366 TIP3 4154 TIP3 OH2  OT    -0.834000       15.9994           0
   20367 TIP3 4154 TIP3 H1   HT     0.417000        1.0080           0
   20368 TIP3 4154 TIP3 H2   HT     0.417000        1.0080           0
   20369 TIP3 4155 TIP3 OH2  OT    -0.834000       15.9994           0
   20370 TIP3 4155 TIP3 H1   HT     0.417000        1.0080           0
   20371 TIP3 4155 TIP3 H2   HT     0.417000        1.0080           0
   20372 TIP3 4156 TIP3 OH2  OT    -0.834000       15.9994           0
   20373 TIP3 4156 TIP3 H1   HT     0.417000        1.0080           0
   20374 TIP3 4156 TIP3 H2   HT     0.417000        1.0080           0
   20375 TIP3 4157 TIP3 OH2  OT    -0.834000       15.9994           0
   20376 TIP3 4157 TIP3 H1   HT     0.417000        1.0080           0
   20377 TIP3 4157 TIP3 H2   HT     0.417000        1.0080           0
   20378 TIP3 4158 TIP3 OH2  OT    -0.834000       15.9994           0
   20379 TIP3 4158 TIP3 H1   HT     0.417000        1.0080           0
   20380 TIP3 4158 TIP3 H2   HT     0.417000        1.0080           0
   20381 TIP3 4159 TIP3 OH2  OT    -0.834000       15.9994           0
   20382 TIP3 4159 TIP3 H1   HT     0.417000        1.0080           0
   20383 TIP3 4159 TIP3 H2   HT     0.417000        1.0080           0
   20384 TIP3 4160 TIP3 OH2  OT    -0.834000       15.9994           0
   20385 TIP3 4160 TIP3 H1   HT     0.417000        1.0080           0
   20386 TIP3 4160 TIP3 H2   HT     0.417000        1.0080           0
   20387 TIP3 4161 TIP3 OH2  OT    -0.834000       15.9994           0
   20388 TIP3 4161 TIP3 H1   HT     0.417000        1.0080           0
   20389 TIP3 4161 TIP3 H2   HT     0.417000        1.0080           0
   20390 TIP3 4162 TIP3 OH2  OT    -0.834000       15.9994           0
   20391 TIP3 4162 TIP3 H1   HT     0.417000        1.0080           0
   20392 TIP3 4162 TIP3 H2   HT     0.417000        1.0080           0
   20393 TIP3 4163 TIP3 OH2  OT    -0.834000       15.9994           0
   20394 TIP3 4163 TIP3 H1   HT     0.417000        1.0080           0
   20395 TIP3 4163 TIP3 H2   HT     0.417000        1.0080           0
   20396 TIP3 4164 TIP3 OH2  OT    -0.834000       15.9994           0
   20397 TIP3 4164 TIP3 H1   HT     0.417000        1.0080           0
   20398 TIP3 4164 TIP3 H2   HT     0.417000        1.0080           0
   20399 TIP3 4165 TIP3 OH2  OT    -0.834000       15.9994           0
   20400 TIP3 4165 TIP3 H1   HT     0.417000        1.0080           0
   20401 TIP3 4165 TIP3 H2   HT     0.417000        1.0080           0
   20402 TIP3 4166 TIP3 OH2  OT    -0.834000       15.9994           0
   20403 TIP3 4166 TIP3 H1   HT     0.417000        1.0080           0
   20404 TIP3 4166 TIP3 H2   HT     0.417000        1.0080           0
   20405 TIP3 4167 TIP3 OH2  OT    -0.834000       15.9994           0
   20406 TIP3 4167 TIP3 H1   HT     0.417000        1.0080           0
   20407 TIP3 4167 TIP3 H2   HT     0.417000        1.0080           0
   20408 TIP3 4168 TIP3 OH2  OT    -0.834000       15.9994           0
   20409 TIP3 4168 TIP3 H1   HT     0.417000        1.0080           0
   20410 TIP3 4168 TIP3 H2   HT     0.417000        1.0080           0
   20411 TIP3 4169 TIP3 OH2  OT    -0.834000       15.9994           0
   20412 TIP3 4169 TIP3 H1   HT     0.417000        1.0080           0
   20413 TIP3 4169 TIP3 H2   HT     0.417000        1.0080           0
   20414 TIP3 4170 TIP3 OH2  OT    -0.834000       15.9994           0
   20415 TIP3 4170 TIP3 H1   HT     0.417000        1.0080           0
   20416 TIP3 4170 TIP3 H2   HT     0.417000        1.0080           0
   20417 TIP3 4171 TIP3 OH2  OT    -0.834000       15.9994           0
   20418 TIP3 4171 TIP3 H1   HT     0.417000        1.0080           0
   20419 TIP3 4171 TIP3 H2   HT     0.417000        1.0080           0
   20420 TIP3 4172 TIP3 OH2  OT    -0.834000       15.9994           0
   20421 TIP3 4172 TIP3 H1   HT     0.417000        1.0080           0
   20422 TIP3 4172 TIP3 H2   HT     0.417000        1.0080           0
   20423 TIP3 4173 TIP3 OH2  OT    -0.834000       15.9994           0
   20424 TIP3 4173 TIP3 H1   HT     0.417000        1.0080           0
   20425 TIP3 4173 TIP3 H2   HT     0.417000        1.0080           0
   20426 TIP3 4174 TIP3 OH2  OT    -0.834000       15.9994           0
   20427 TIP3 4174 TIP3 H1   HT     0.417000        1.0080           0
   20428 TIP3 4174 TIP3 H2   HT     0.417000        1.0080           0
   20429 TIP3 4175 TIP3 OH2  OT    -0.834000       15.9994           0
   20430 TIP3 4175 TIP3 H1   HT     0.417000        1.0080           0
   20431 TIP3 4175 TIP3 H2   HT     0.417000        1.0080           0
   20432 TIP3 4176 TIP3 OH2  OT    -0.834000       15.9994           0
   20433 TIP3 4176 TIP3 H1   HT     0.417000        1.0080           0
   20434 TIP3 4176 TIP3 H2   HT     0.417000        1.0080           0
   20435 TIP3 4177 TIP3 OH2  OT    -0.834000       15.9994           0
   20436 TIP3 4177 TIP3 H1   HT     0.417000        1.0080           0
   20437 TIP3 4177 TIP3 H2   HT     0.417000        1.0080           0
   20438 TIP3 4178 TIP3 OH2  OT    -0.834000       15.9994           0
   20439 TIP3 4178 TIP3 H1   HT     0.417000        1.0080           0
   20440 TIP3 4178 TIP3 H2   HT     0.417000        1.0080           0
   20441 TIP3 4179 TIP3 OH2  OT    -0.834000       15.9994           0
   20442 TIP3 4179 TIP3 H1   HT     0.417000        1.0080           0
   20443 TIP3 4179 TIP3 H2   HT     0.417000        1.0080           0
   20444 TIP3 4180 TIP3 OH2  OT    -0.834000       15.9994           0
   20445 TIP3 4180 TIP3 H1   HT     0.417000        1.0080           0
   20446 TIP3 4180 TIP3 H2   HT     0.417000        1.0080           0
   20447 TIP3 4181 TIP3 OH2  OT    -0.834000       15.9994           0
   20448 TIP3 4181 TIP3 H1   HT     0.417000        1.0080           0
   20449 TIP3 4181 TIP3 H2   HT     0.417000        1.0080           0
   20450 TIP3 4182 TIP3 OH2  OT    -0.834000       15.9994           0
   20451 TIP3 4182 TIP3 H1   HT     0.417000        1.0080           0
   20452 TIP3 4182 TIP3 H2   HT     0.417000        1.0080           0
   20453 TIP3 4183 TIP3 OH2  OT    -0.834000       15.9994           0
   20454 TIP3 4183 TIP3 H1   HT     0.417000        1.0080           0
   20455 TIP3 4183 TIP3 H2   HT     0.417000        1.0080           0
   20456 TIP3 4184 TIP3 OH2  OT    -0.834000       15.9994           0
   20457 TIP3 4184 TIP3 H1   HT     0.417000        1.0080           0
   20458 TIP3 4184 TIP3 H2   HT     0.417000        1.0080           0
   20459 TIP3 4185 TIP3 OH2  OT    -0.834000       15.9994           0
   20460 TIP3 4185 TIP3 H1   HT     0.417000        1.0080           0
   20461 TIP3 4185 TIP3 H2   HT     0.417000        1.0080           0
   20462 TIP3 4186 TIP3 OH2  OT    -0.834000       15.9994           0
   20463 TIP3 4186 TIP3 H1   HT     0.417000        1.0080           0
   20464 TIP3 4186 TIP3 H2   HT     0.417000        1.0080           0
   20465 TIP3 4187 TIP3 OH2  OT    -0.834000       15.9994           0
   20466 TIP3 4187 TIP3 H1   HT     0.417000        1.0080           0
   20467 TIP3 4187 TIP3 H2   HT     0.417000        1.0080           0
   20468 TIP3 4188 TIP3 OH2  OT    -0.834000       15.9994           0
   20469 TIP3 4188 TIP3 H1   HT     0.417000        1.0080           0
   20470 TIP3 4188 TIP3 H2   HT     0.417000        1.0080           0
   20471 TIP3 4189 TIP3 OH2  OT    -0.834000       15.9994           0
   20472 TIP3 4189 TIP3 H1   HT     0.417000        1.0080           0
   20473 TIP3 4189 TIP3 H2   HT     0.417000        1.0080           0
   20474 TIP3 4190 TIP3 OH2  OT    -0.834000       15.9994           0
   20475 TIP3 4190 TIP3 H1   HT     0.417000        1.0080           0
   20476 TIP3 4190 TIP3 H2   HT     0.417000        1.0080           0
   20477 TIP3 4191 TIP3 OH2  OT    -0.834000       15.9994           0
   20478 TIP3 4191 TIP3 H1   HT     0.417000        1.0080           0
   20479 TIP3 4191 TIP3 H2   HT     0.417000        1.0080           0
   20480 TIP3 4192 TIP3 OH2  OT    -0.834000       15.9994           0
   20481 TIP3 4192 TIP3 H1   HT     0.417000        1.0080           0
   20482 TIP3 4192 TIP3 H2   HT     0.417000        1.0080           0
   20483 TIP3 4193 TIP3 OH2  OT    -0.834000       15.9994           0
   20484 TIP3 4193 TIP3 H1   HT     0.417000        1.0080           0
   20485 TIP3 4193 TIP3 H2   HT     0.417000        1.0080           0
   20486 TIP3 4194 TIP3 OH2  OT    -0.834000       15.9994           0
   20487 TIP3 4194 TIP3 H1   HT     0.417000        1.0080           0
   20488 TIP3 4194 TIP3 H2   HT     0.417000        1.0080           0
   20489 TIP3 4195 TIP3 OH2  OT    -0.834000       15.9994           0
   20490 TIP3 4195 TIP3 H1   HT     0.417000        1.0080           0
   20491 TIP3 4195 TIP3 H2   HT     0.417000        1.0080           0
   20492 TIP3 4196 TIP3 OH2  OT    -0.834000       15.9994           0
   20493 TIP3 4196 TIP3 H1   HT     0.417000        1.0080           0
   20494 TIP3 4196 TIP3 H2   HT     0.417000        1.0080           0
   20495 TIP3 4197 TIP3 OH2  OT    -0.834000       15.9994           0
   20496 TIP3 4197 TIP3 H1   HT     0.417000        1.0080           0
   20497 TIP3 4197 TIP3 H2   HT     0.417000        1.0080           0
   20498 TIP3 4198 TIP3 OH2  OT    -0.834000       15.9994           0
   20499 TIP3 4198 TIP3 H1   HT     0.417000        1.0080           0
   20500 TIP3 4198 TIP3 H2   HT     0.417000        1.0080           0
   20501 TIP3 4199 TIP3 OH2  OT    -0.834000       15.9994           0
   20502 TIP3 4199 TIP3 H1   HT     0.417000        1.0080           0
   20503 TIP3 4199 TIP3 H2   HT     0.417000        1.0080           0
   20504 TIP3 4200 TIP3 OH2  OT    -0.834000       15.9994           0
   20505 TIP3 4200 TIP3 H1   HT     0.417000        1.0080           0
   20506 TIP3 4200 TIP3 H2   HT     0.417000        1.0080           0
   20507 TIP3 4201 TIP3 OH2  OT    -0.834000       15.9994           0
   20508 TIP3 4201 TIP3 H1   HT     0.417000        1.0080           0
   20509 TIP3 4201 TIP3 H2   HT     0.417000        1.0080           0
   20510 TIP3 4202 TIP3 OH2  OT    -0.834000       15.9994           0
   20511 TIP3 4202 TIP3 H1   HT     0.417000        1.0080           0
   20512 TIP3 4202 TIP3 H2   HT     0.417000        1.0080           0
   20513 TIP3 4203 TIP3 OH2  OT    -0.834000       15.9994           0
   20514 TIP3 4203 TIP3 H1   HT     0.417000        1.0080           0
   20515 TIP3 4203 TIP3 H2   HT     0.417000        1.0080           0
   20516 TIP3 4204 TIP3 OH2  OT    -0.834000       15.9994           0
   20517 TIP3 4204 TIP3 H1   HT     0.417000        1.0080           0
   20518 TIP3 4204 TIP3 H2   HT     0.417000        1.0080           0
   20519 TIP3 4205 TIP3 OH2  OT    -0.834000       15.9994           0
   20520 TIP3 4205 TIP3 H1   HT     0.417000        1.0080           0
   20521 TIP3 4205 TIP3 H2   HT     0.417000        1.0080           0
   20522 TIP3 4206 TIP3 OH2  OT    -0.834000       15.9994           0
   20523 TIP3 4206 TIP3 H1   HT     0.417000        1.0080           0
   20524 TIP3 4206 TIP3 H2   HT     0.417000        1.0080           0
   20525 TIP3 4207 TIP3 OH2  OT    -0.834000       15.9994           0
   20526 TIP3 4207 TIP3 H1   HT     0.417000        1.0080           0
   20527 TIP3 4207 TIP3 H2   HT     0.417000        1.0080           0
   20528 TIP3 4208 TIP3 OH2  OT    -0.834000       15.9994           0
   20529 TIP3 4208 TIP3 H1   HT     0.417000        1.0080           0
   20530 TIP3 4208 TIP3 H2   HT     0.417000        1.0080           0
   20531 TIP3 4209 TIP3 OH2  OT    -0.834000       15.9994           0
   20532 TIP3 4209 TIP3 H1   HT     0.417000        1.0080           0
   20533 TIP3 4209 TIP3 H2   HT     0.417000        1.0080           0
   20534 TIP3 4210 TIP3 OH2  OT    -0.834000       15.9994           0
   20535 TIP3 4210 TIP3 H1   HT     0.417000        1.0080           0
   20536 TIP3 4210 TIP3 H2   HT     0.417000        1.0080           0
   20537 TIP3 4211 TIP3 OH2  OT    -0.834000       15.9994           0
   20538 TIP3 4211 TIP3 H1   HT     0.417000        1.0080           0
   20539 TIP3 4211 TIP3 H2   HT     0.417000        1.0080           0
   20540 TIP3 4212 TIP3 OH2  OT    -0.834000       15.9994           0
   20541 TIP3 4212 TIP3 H1   HT     0.417000        1.0080           0
   20542 TIP3 4212 TIP3 H2   HT     0.417000        1.0080           0
   20543 TIP3 4213 TIP3 OH2  OT    -0.834000       15.9994           0
   20544 TIP3 4213 TIP3 H1   HT     0.417000        1.0080           0
   20545 TIP3 4213 TIP3 H2   HT     0.417000        1.0080           0
   20546 TIP3 4214 TIP3 OH2  OT    -0.834000       15.9994           0
   20547 TIP3 4214 TIP3 H1   HT     0.417000        1.0080           0
   20548 TIP3 4214 TIP3 H2   HT     0.417000        1.0080           0
   20549 TIP3 4215 TIP3 OH2  OT    -0.834000       15.9994           0
   20550 TIP3 4215 TIP3 H1   HT     0.417000        1.0080           0
   20551 TIP3 4215 TIP3 H2   HT     0.417000        1.0080           0
   20552 TIP3 4216 TIP3 OH2  OT    -0.834000       15.9994           0
   20553 TIP3 4216 TIP3 H1   HT     0.417000        1.0080           0
   20554 TIP3 4216 TIP3 H2   HT     0.417000        1.0080           0
   20555 TIP3 4217 TIP3 OH2  OT    -0.834000       15.9994           0
   20556 TIP3 4217 TIP3 H1   HT     0.417000        1.0080           0
   20557 TIP3 4217 TIP3 H2   HT     0.417000        1.0080           0
   20558 TIP3 4218 TIP3 OH2  OT    -0.834000       15.9994           0
   20559 TIP3 4218 TIP3 H1   HT     0.417000        1.0080           0
   20560 TIP3 4218 TIP3 H2   HT     0.417000        1.0080           0
   20561 TIP3 4219 TIP3 OH2  OT    -0.834000       15.9994           0
   20562 TIP3 4219 TIP3 H1   HT     0.417000        1.0080           0
   20563 TIP3 4219 TIP3 H2   HT     0.417000        1.0080           0
   20564 TIP3 4220 TIP3 OH2  OT    -0.834000       15.9994           0
   20565 TIP3 4220 TIP3 H1   HT     0.417000        1.0080           0
   20566 TIP3 4220 TIP3 H2   HT     0.417000        1.0080           0
   20567 TIP3 4221 TIP3 OH2  OT    -0.834000       15.9994           0
   20568 TIP3 4221 TIP3 H1   HT     0.417000        1.0080           0
   20569 TIP3 4221 TIP3 H2   HT     0.417000        1.0080           0
   20570 TIP3 4222 TIP3 OH2  OT    -0.834000       15.9994           0
   20571 TIP3 4222 TIP3 H1   HT     0.417000        1.0080           0
   20572 TIP3 4222 TIP3 H2   HT     0.417000        1.0080           0
   20573 TIP3 4223 TIP3 OH2  OT    -0.834000       15.9994           0
   20574 TIP3 4223 TIP3 H1   HT     0.417000        1.0080           0
   20575 TIP3 4223 TIP3 H2   HT     0.417000        1.0080           0
   20576 TIP3 4224 TIP3 OH2  OT    -0.834000       15.9994           0
   20577 TIP3 4224 TIP3 H1   HT     0.417000        1.0080           0
   20578 TIP3 4224 TIP3 H2   HT     0.417000        1.0080           0
   20579 TIP3 4225 TIP3 OH2  OT    -0.834000       15.9994           0
   20580 TIP3 4225 TIP3 H1   HT     0.417000        1.0080           0
   20581 TIP3 4225 TIP3 H2   HT     0.417000        1.0080           0
   20582 TIP3 4226 TIP3 OH2  OT    -0.834000       15.9994           0
   20583 TIP3 4226 TIP3 H1   HT     0.417000        1.0080           0
   20584 TIP3 4226 TIP3 H2   HT     0.417000        1.0080           0
   20585 TIP3 4227 TIP3 OH2  OT    -0.834000       15.9994           0
   20586 TIP3 4227 TIP3 H1   HT     0.417000        1.0080           0
   20587 TIP3 4227 TIP3 H2   HT     0.417000        1.0080           0
   20588 TIP3 4228 TIP3 OH2  OT    -0.834000       15.9994           0
   20589 TIP3 4228 TIP3 H1   HT     0.417000        1.0080           0
   20590 TIP3 4228 TIP3 H2   HT     0.417000        1.0080           0
   20591 TIP3 4229 TIP3 OH2  OT    -0.834000       15.9994           0
   20592 TIP3 4229 TIP3 H1   HT     0.417000        1.0080           0
   20593 TIP3 4229 TIP3 H2   HT     0.417000        1.0080           0
   20594 TIP3 4230 TIP3 OH2  OT    -0.834000       15.9994           0
   20595 TIP3 4230 TIP3 H1   HT     0.417000        1.0080           0
   20596 TIP3 4230 TIP3 H2   HT     0.417000        1.0080           0
   20597 TIP3 4231 TIP3 OH2  OT    -0.834000       15.9994           0
   20598 TIP3 4231 TIP3 H1   HT     0.417000        1.0080           0
   20599 TIP3 4231 TIP3 H2   HT     0.417000        1.0080           0
   20600 TIP3 4232 TIP3 OH2  OT    -0.834000       15.9994           0
   20601 TIP3 4232 TIP3 H1   HT     0.417000        1.0080           0
   20602 TIP3 4232 TIP3 H2   HT     0.417000        1.0080           0
   20603 TIP3 4233 TIP3 OH2  OT    -0.834000       15.9994           0
   20604 TIP3 4233 TIP3 H1   HT     0.417000        1.0080           0
   20605 TIP3 4233 TIP3 H2   HT     0.417000        1.0080           0
   20606 TIP3 4234 TIP3 OH2  OT    -0.834000       15.9994           0
   20607 TIP3 4234 TIP3 H1   HT     0.417000        1.0080           0
   20608 TIP3 4234 TIP3 H2   HT     0.417000        1.0080           0
   20609 TIP3 4235 TIP3 OH2  OT    -0.834000       15.9994           0
   20610 TIP3 4235 TIP3 H1   HT     0.417000        1.0080           0
   20611 TIP3 4235 TIP3 H2   HT     0.417000        1.0080           0
   20612 TIP3 4236 TIP3 OH2  OT    -0.834000       15.9994           0
   20613 TIP3 4236 TIP3 H1   HT     0.417000        1.0080           0
   20614 TIP3 4236 TIP3 H2   HT     0.417000        1.0080           0
   20615 TIP3 4237 TIP3 OH2  OT    -0.834000       15.9994           0
   20616 TIP3 4237 TIP3 H1   HT     0.417000        1.0080           0
   20617 TIP3 4237 TIP3 H2   HT     0.417000        1.0080           0
   20618 TIP3 4238 TIP3 OH2  OT    -0.834000       15.9994           0
   20619 TIP3 4238 TIP3 H1   HT     0.417000        1.0080           0
   20620 TIP3 4238 TIP3 H2   HT     0.417000        1.0080           0
   20621 TIP3 4239 TIP3 OH2  OT    -0.834000       15.9994           0
   20622 TIP3 4239 TIP3 H1   HT     0.417000        1.0080           0
   20623 TIP3 4239 TIP3 H2   HT     0.417000        1.0080           0
   20624 TIP3 4240 TIP3 OH2  OT    -0.834000       15.9994           0
   20625 TIP3 4240 TIP3 H1   HT     0.417000        1.0080           0
   20626 TIP3 4240 TIP3 H2   HT     0.417000        1.0080           0
   20627 TIP3 4241 TIP3 OH2  OT    -0.834000       15.9994           0
   20628 TIP3 4241 TIP3 H1   HT     0.417000        1.0080           0
   20629 TIP3 4241 TIP3 H2   HT     0.417000        1.0080           0
   20630 TIP3 4242 TIP3 OH2  OT    -0.834000       15.9994           0
   20631 TIP3 4242 TIP3 H1   HT     0.417000        1.0080           0
   20632 TIP3 4242 TIP3 H2   HT     0.417000        1.0080           0
   20633 TIP3 4243 TIP3 OH2  OT    -0.834000       15.9994           0
   20634 TIP3 4243 TIP3 H1   HT     0.417000        1.0080           0
   20635 TIP3 4243 TIP3 H2   HT     0.417000        1.0080           0
   20636 TIP3 4244 TIP3 OH2  OT    -0.834000       15.9994           0
   20637 TIP3 4244 TIP3 H1   HT     0.417000        1.0080           0
   20638 TIP3 4244 TIP3 H2   HT     0.417000        1.0080           0
   20639 TIP3 4245 TIP3 OH2  OT    -0.834000       15.9994           0
   20640 TIP3 4245 TIP3 H1   HT     0.417000        1.0080           0
   20641 TIP3 4245 TIP3 H2   HT     0.417000        1.0080           0
   20642 TIP3 4246 TIP3 OH2  OT    -0.834000       15.9994           0
   20643 TIP3 4246 TIP3 H1   HT     0.417000        1.0080           0
   20644 TIP3 4246 TIP3 H2   HT     0.417000        1.0080           0
   20645 TIP3 4247 TIP3 OH2  OT    -0.834000       15.9994           0
   20646 TIP3 4247 TIP3 H1   HT     0.417000        1.0080           0
   20647 TIP3 4247 TIP3 H2   HT     0.417000        1.0080           0
   20648 TIP3 4248 TIP3 OH2  OT    -0.834000       15.9994           0
   20649 TIP3 4248 TIP3 H1   HT     0.417000        1.0080           0
   20650 TIP3 4248 TIP3 H2   HT     0.417000        1.0080           0
   20651 TIP3 4249 TIP3 OH2  OT    -0.834000       15.9994           0
   20652 TIP3 4249 TIP3 H1   HT     0.417000        1.0080           0
   20653 TIP3 4249 TIP3 H2   HT     0.417000        1.0080           0
   20654 TIP3 4250 TIP3 OH2  OT    -0.834000       15.9994           0
   20655 TIP3 4250 TIP3 H1   HT     0.417000        1.0080           0
   20656 TIP3 4250 TIP3 H2   HT     0.417000        1.0080           0
   20657 TIP3 4251 TIP3 OH2  OT    -0.834000       15.9994           0
   20658 TIP3 4251 TIP3 H1   HT     0.417000        1.0080           0
   20659 TIP3 4251 TIP3 H2   HT     0.417000        1.0080           0
   20660 TIP3 4252 TIP3 OH2  OT    -0.834000       15.9994           0
   20661 TIP3 4252 TIP3 H1   HT     0.417000        1.0080           0
   20662 TIP3 4252 TIP3 H2   HT     0.417000        1.0080           0
   20663 TIP3 4253 TIP3 OH2  OT    -0.834000       15.9994           0
   20664 TIP3 4253 TIP3 H1   HT     0.417000        1.0080           0
   20665 TIP3 4253 TIP3 H2   HT     0.417000        1.0080           0
   20666 TIP3 4254 TIP3 OH2  OT    -0.834000       15.9994           0
   20667 TIP3 4254 TIP3 H1   HT     0.417000        1.0080           0
   20668 TIP3 4254 TIP3 H2   HT     0.417000        1.0080           0
   20669 TIP3 4255 TIP3 OH2  OT    -0.834000       15.9994           0
   20670 TIP3 4255 TIP3 H1   HT     0.417000        1.0080           0
   20671 TIP3 4255 TIP3 H2   HT     0.417000        1.0080           0
   20672 TIP3 4256 TIP3 OH2  OT    -0.834000       15.9994           0
   20673 TIP3 4256 TIP3 H1   HT     0.417000        1.0080           0
   20674 TIP3 4256 TIP3 H2   HT     0.417000        1.0080           0
   20675 TIP3 4257 TIP3 OH2  OT    -0.834000       15.9994           0
   20676 TIP3 4257 TIP3 H1   HT     0.417000        1.0080           0
   20677 TIP3 4257 TIP3 H2   HT     0.417000        1.0080           0
   20678 TIP3 4258 TIP3 OH2  OT    -0.834000       15.9994           0
   20679 TIP3 4258 TIP3 H1   HT     0.417000        1.0080           0
   20680 TIP3 4258 TIP3 H2   HT     0.417000        1.0080           0
   20681 TIP3 4259 TIP3 OH2  OT    -0.834000       15.9994           0
   20682 TIP3 4259 TIP3 H1   HT     0.417000        1.0080           0
   20683 TIP3 4259 TIP3 H2   HT     0.417000        1.0080           0
   20684 TIP3 4260 TIP3 OH2  OT    -0.834000       15.9994           0
   20685 TIP3 4260 TIP3 H1   HT     0.417000        1.0080           0
   20686 TIP3 4260 TIP3 H2   HT     0.417000        1.0080           0
   20687 TIP3 4261 TIP3 OH2  OT    -0.834000       15.9994           0
   20688 TIP3 4261 TIP3 H1   HT     0.417000        1.0080           0
   20689 TIP3 4261 TIP3 H2   HT     0.417000        1.0080           0
   20690 TIP3 4262 TIP3 OH2  OT    -0.834000       15.9994           0
   20691 TIP3 4262 TIP3 H1   HT     0.417000        1.0080           0
   20692 TIP3 4262 TIP3 H2   HT     0.417000        1.0080           0
   20693 TIP3 4263 TIP3 OH2  OT    -0.834000       15.9994           0
   20694 TIP3 4263 TIP3 H1   HT     0.417000        1.0080           0
   20695 TIP3 4263 TIP3 H2   HT     0.417000        1.0080           0
   20696 TIP3 4264 TIP3 OH2  OT    -0.834000       15.9994           0
   20697 TIP3 4264 TIP3 H1   HT     0.417000        1.0080           0
   20698 TIP3 4264 TIP3 H2   HT     0.417000        1.0080           0
   20699 TIP3 4265 TIP3 OH2  OT    -0.834000       15.9994           0
   20700 TIP3 4265 TIP3 H1   HT     0.417000        1.0080           0
   20701 TIP3 4265 TIP3 H2   HT     0.417000        1.0080           0
   20702 TIP3 4266 TIP3 OH2  OT    -0.834000       15.9994           0
   20703 TIP3 4266 TIP3 H1   HT     0.417000        1.0080           0
   20704 TIP3 4266 TIP3 H2   HT     0.417000        1.0080           0
   20705 TIP3 4267 TIP3 OH2  OT    -0.834000       15.9994           0
   20706 TIP3 4267 TIP3 H1   HT     0.417000        1.0080           0
   20707 TIP3 4267 TIP3 H2   HT     0.417000        1.0080           0
   20708 TIP3 4268 TIP3 OH2  OT    -0.834000       15.9994           0
   20709 TIP3 4268 TIP3 H1   HT     0.417000        1.0080           0
   20710 TIP3 4268 TIP3 H2   HT     0.417000        1.0080           0
   20711 TIP3 4269 TIP3 OH2  OT    -0.834000       15.9994           0
   20712 TIP3 4269 TIP3 H1   HT     0.417000        1.0080           0
   20713 TIP3 4269 TIP3 H2   HT     0.417000        1.0080           0
   20714 TIP3 4270 TIP3 OH2  OT    -0.834000       15.9994           0
   20715 TIP3 4270 TIP3 H1   HT     0.417000        1.0080           0
   20716 TIP3 4270 TIP3 H2   HT     0.417000        1.0080           0
   20717 TIP3 4271 TIP3 OH2  OT    -0.834000       15.9994           0
   20718 TIP3 4271 TIP3 H1   HT     0.417000        1.0080           0
   20719 TIP3 4271 TIP3 H2   HT     0.417000        1.0080           0
   20720 TIP3 4272 TIP3 OH2  OT    -0.834000       15.9994           0
   20721 TIP3 4272 TIP3 H1   HT     0.417000        1.0080           0
   20722 TIP3 4272 TIP3 H2   HT     0.417000        1.0080           0
   20723 TIP3 4273 TIP3 OH2  OT    -0.834000       15.9994           0
   20724 TIP3 4273 TIP3 H1   HT     0.417000        1.0080           0
   20725 TIP3 4273 TIP3 H2   HT     0.417000        1.0080           0
   20726 TIP3 4274 TIP3 OH2  OT    -0.834000       15.9994           0
   20727 TIP3 4274 TIP3 H1   HT     0.417000        1.0080           0
   20728 TIP3 4274 TIP3 H2   HT     0.417000        1.0080           0
   20729 TIP3 4275 TIP3 OH2  OT    -0.834000       15.9994           0
   20730 TIP3 4275 TIP3 H1   HT     0.417000        1.0080           0
   20731 TIP3 4275 TIP3 H2   HT     0.417000        1.0080           0
   20732 TIP3 4276 TIP3 OH2  OT    -0.834000       15.9994           0
   20733 TIP3 4276 TIP3 H1   HT     0.417000        1.0080           0
   20734 TIP3 4276 TIP3 H2   HT     0.417000        1.0080           0
   20735 TIP3 4277 TIP3 OH2  OT    -0.834000       15.9994           0
   20736 TIP3 4277 TIP3 H1   HT     0.417000        1.0080           0
   20737 TIP3 4277 TIP3 H2   HT     0.417000        1.0080           0
   20738 TIP3 4278 TIP3 OH2  OT    -0.834000       15.9994           0
   20739 TIP3 4278 TIP3 H1   HT     0.417000        1.0080           0
   20740 TIP3 4278 TIP3 H2   HT     0.417000        1.0080           0
   20741 TIP3 4279 TIP3 OH2  OT    -0.834000       15.9994           0
   20742 TIP3 4279 TIP3 H1   HT     0.417000        1.0080           0
   20743 TIP3 4279 TIP3 H2   HT     0.417000        1.0080           0
   20744 TIP3 4280 TIP3 OH2  OT    -0.834000       15.9994           0
   20745 TIP3 4280 TIP3 H1   HT     0.417000        1.0080           0
   20746 TIP3 4280 TIP3 H2   HT     0.417000        1.0080           0
   20747 TIP3 4281 TIP3 OH2  OT    -0.834000       15.9994           0
   20748 TIP3 4281 TIP3 H1   HT     0.417000        1.0080           0
   20749 TIP3 4281 TIP3 H2   HT     0.417000        1.0080           0
   20750 TIP3 4282 TIP3 OH2  OT    -0.834000       15.9994           0
   20751 TIP3 4282 TIP3 H1   HT     0.417000        1.0080           0
   20752 TIP3 4282 TIP3 H2   HT     0.417000        1.0080           0
   20753 TIP3 4283 TIP3 OH2  OT    -0.834000       15.9994           0
   20754 TIP3 4283 TIP3 H1   HT     0.417000        1.0080           0
   20755 TIP3 4283 TIP3 H2   HT     0.417000        1.0080           0
   20756 TIP3 4284 TIP3 OH2  OT    -0.834000       15.9994           0
   20757 TIP3 4284 TIP3 H1   HT     0.417000        1.0080           0
   20758 TIP3 4284 TIP3 H2   HT     0.417000        1.0080           0
   20759 TIP3 4285 TIP3 OH2  OT    -0.834000       15.9994           0
   20760 TIP3 4285 TIP3 H1   HT     0.417000        1.0080           0
   20761 TIP3 4285 TIP3 H2   HT     0.417000        1.0080           0
   20762 TIP3 4286 TIP3 OH2  OT    -0.834000       15.9994           0
   20763 TIP3 4286 TIP3 H1   HT     0.417000        1.0080           0
   20764 TIP3 4286 TIP3 H2   HT     0.417000        1.0080           0
   20765 TIP3 4287 TIP3 OH2  OT    -0.834000       15.9994           0
   20766 TIP3 4287 TIP3 H1   HT     0.417000        1.0080           0
   20767 TIP3 4287 TIP3 H2   HT     0.417000        1.0080           0
   20768 TIP3 4288 TIP3 OH2  OT    -0.834000       15.9994           0
   20769 TIP3 4288 TIP3 H1   HT     0.417000        1.0080           0
   20770 TIP3 4288 TIP3 H2   HT     0.417000        1.0080           0
   20771 TIP3 4289 TIP3 OH2  OT    -0.834000       15.9994           0
   20772 TIP3 4289 TIP3 H1   HT     0.417000        1.0080           0
   20773 TIP3 4289 TIP3 H2   HT     0.417000        1.0080           0
   20774 TIP3 4290 TIP3 OH2  OT    -0.834000       15.9994           0
   20775 TIP3 4290 TIP3 H1   HT     0.417000        1.0080           0
   20776 TIP3 4290 TIP3 H2   HT     0.417000        1.0080           0
   20777 TIP3 4291 TIP3 OH2  OT    -0.834000       15.9994           0
   20778 TIP3 4291 TIP3 H1   HT     0.417000        1.0080           0
   20779 TIP3 4291 TIP3 H2   HT     0.417000        1.0080           0
   20780 TIP3 4292 TIP3 OH2  OT    -0.834000       15.9994           0
   20781 TIP3 4292 TIP3 H1   HT     0.417000        1.0080           0
   20782 TIP3 4292 TIP3 H2   HT     0.417000        1.0080           0
   20783 TIP3 4293 TIP3 OH2  OT    -0.834000       15.9994           0
   20784 TIP3 4293 TIP3 H1   HT     0.417000        1.0080           0
   20785 TIP3 4293 TIP3 H2   HT     0.417000        1.0080           0
   20786 TIP3 4294 TIP3 OH2  OT    -0.834000       15.9994           0
   20787 TIP3 4294 TIP3 H1   HT     0.417000        1.0080           0
   20788 TIP3 4294 TIP3 H2   HT     0.417000        1.0080           0
   20789 TIP3 4295 TIP3 OH2  OT    -0.834000       15.9994           0
   20790 TIP3 4295 TIP3 H1   HT     0.417000        1.0080           0
   20791 TIP3 4295 TIP3 H2   HT     0.417000        1.0080           0
   20792 TIP3 4296 TIP3 OH2  OT    -0.834000       15.9994           0
   20793 TIP3 4296 TIP3 H1   HT     0.417000        1.0080           0
   20794 TIP3 4296 TIP3 H2   HT     0.417000        1.0080           0
   20795 TIP3 4297 TIP3 OH2  OT    -0.834000       15.9994           0
   20796 TIP3 4297 TIP3 H1   HT     0.417000        1.0080           0
   20797 TIP3 4297 TIP3 H2   HT     0.417000        1.0080           0
   20798 TIP3 4298 TIP3 OH2  OT    -0.834000       15.9994           0
   20799 TIP3 4298 TIP3 H1   HT     0.417000        1.0080           0
   20800 TIP3 4298 TIP3 H2   HT     0.417000        1.0080           0
   20801 TIP3 4299 TIP3 OH2  OT    -0.834000       15.9994           0
   20802 TIP3 4299 TIP3 H1   HT     0.417000        1.0080           0
   20803 TIP3 4299 TIP3 H2   HT     0.417000        1.0080           0
   20804 TIP3 4300 TIP3 OH2  OT    -0.834000       15.9994           0
   20805 TIP3 4300 TIP3 H1   HT     0.417000        1.0080           0
   20806 TIP3 4300 TIP3 H2   HT     0.417000        1.0080           0
   20807 TIP3 4301 TIP3 OH2  OT    -0.834000       15.9994           0
   20808 TIP3 4301 TIP3 H1   HT     0.417000        1.0080           0
   20809 TIP3 4301 TIP3 H2   HT     0.417000        1.0080           0
   20810 TIP3 4302 TIP3 OH2  OT    -0.834000       15.9994           0
   20811 TIP3 4302 TIP3 H1   HT     0.417000        1.0080           0
   20812 TIP3 4302 TIP3 H2   HT     0.417000        1.0080           0
   20813 TIP3 4303 TIP3 OH2  OT    -0.834000       15.9994           0
   20814 TIP3 4303 TIP3 H1   HT     0.417000        1.0080           0
   20815 TIP3 4303 TIP3 H2   HT     0.417000        1.0080           0
   20816 TIP3 4304 TIP3 OH2  OT    -0.834000       15.9994           0
   20817 TIP3 4304 TIP3 H1   HT     0.417000        1.0080           0
   20818 TIP3 4304 TIP3 H2   HT     0.417000        1.0080           0
   20819 TIP3 4305 TIP3 OH2  OT    -0.834000       15.9994           0
   20820 TIP3 4305 TIP3 H1   HT     0.417000        1.0080           0
   20821 TIP3 4305 TIP3 H2   HT     0.417000        1.0080           0
   20822 TIP3 4306 TIP3 OH2  OT    -0.834000       15.9994           0
   20823 TIP3 4306 TIP3 H1   HT     0.417000        1.0080           0
   20824 TIP3 4306 TIP3 H2   HT     0.417000        1.0080           0
   20825 TIP3 4307 TIP3 OH2  OT    -0.834000       15.9994           0
   20826 TIP3 4307 TIP3 H1   HT     0.417000        1.0080           0
   20827 TIP3 4307 TIP3 H2   HT     0.417000        1.0080           0
   20828 TIP3 4308 TIP3 OH2  OT    -0.834000       15.9994           0
   20829 TIP3 4308 TIP3 H1   HT     0.417000        1.0080           0
   20830 TIP3 4308 TIP3 H2   HT     0.417000        1.0080           0
   20831 TIP3 4309 TIP3 OH2  OT    -0.834000       15.9994           0
   20832 TIP3 4309 TIP3 H1   HT     0.417000        1.0080           0
   20833 TIP3 4309 TIP3 H2   HT     0.417000        1.0080           0
   20834 TIP3 4310 TIP3 OH2  OT    -0.834000       15.9994           0
   20835 TIP3 4310 TIP3 H1   HT     0.417000        1.0080           0
   20836 TIP3 4310 TIP3 H2   HT     0.417000        1.0080           0
   20837 TIP3 4311 TIP3 OH2  OT    -0.834000       15.9994           0
   20838 TIP3 4311 TIP3 H1   HT     0.417000        1.0080           0
   20839 TIP3 4311 TIP3 H2   HT     0.417000        1.0080           0
   20840 TIP3 4312 TIP3 OH2  OT    -0.834000       15.9994           0
   20841 TIP3 4312 TIP3 H1   HT     0.417000        1.0080           0
   20842 TIP3 4312 TIP3 H2   HT     0.417000        1.0080           0
   20843 TIP3 4313 TIP3 OH2  OT    -0.834000       15.9994           0
   20844 TIP3 4313 TIP3 H1   HT     0.417000        1.0080           0
   20845 TIP3 4313 TIP3 H2   HT     0.417000        1.0080           0
   20846 TIP3 4314 TIP3 OH2  OT    -0.834000       15.9994           0
   20847 TIP3 4314 TIP3 H1   HT     0.417000        1.0080           0
   20848 TIP3 4314 TIP3 H2   HT     0.417000        1.0080           0
   20849 TIP3 4315 TIP3 OH2  OT    -0.834000       15.9994           0
   20850 TIP3 4315 TIP3 H1   HT     0.417000        1.0080           0
   20851 TIP3 4315 TIP3 H2   HT     0.417000        1.0080           0
   20852 TIP3 4316 TIP3 OH2  OT    -0.834000       15.9994           0
   20853 TIP3 4316 TIP3 H1   HT     0.417000        1.0080           0
   20854 TIP3 4316 TIP3 H2   HT     0.417000        1.0080           0
   20855 TIP3 4317 TIP3 OH2  OT    -0.834000       15.9994           0
   20856 TIP3 4317 TIP3 H1   HT     0.417000        1.0080           0
   20857 TIP3 4317 TIP3 H2   HT     0.417000        1.0080           0
   20858 TIP3 4318 TIP3 OH2  OT    -0.834000       15.9994           0
   20859 TIP3 4318 TIP3 H1   HT     0.417000        1.0080           0
   20860 TIP3 4318 TIP3 H2   HT     0.417000        1.0080           0
   20861 TIP3 4319 TIP3 OH2  OT    -0.834000       15.9994           0
   20862 TIP3 4319 TIP3 H1   HT     0.417000        1.0080           0
   20863 TIP3 4319 TIP3 H2   HT     0.417000        1.0080           0
   20864 TIP3 4320 TIP3 OH2  OT    -0.834000       15.9994           0
   20865 TIP3 4320 TIP3 H1   HT     0.417000        1.0080           0
   20866 TIP3 4320 TIP3 H2   HT     0.417000        1.0080           0
   20867 TIP3 4321 TIP3 OH2  OT    -0.834000       15.9994           0
   20868 TIP3 4321 TIP3 H1   HT     0.417000        1.0080           0
   20869 TIP3 4321 TIP3 H2   HT     0.417000        1.0080           0
   20870 TIP3 4322 TIP3 OH2  OT    -0.834000       15.9994           0
   20871 TIP3 4322 TIP3 H1   HT     0.417000        1.0080           0
   20872 TIP3 4322 TIP3 H2   HT     0.417000        1.0080           0
   20873 TIP3 4323 TIP3 OH2  OT    -0.834000       15.9994           0
   20874 TIP3 4323 TIP3 H1   HT     0.417000        1.0080           0
   20875 TIP3 4323 TIP3 H2   HT     0.417000        1.0080           0
   20876 TIP3 4324 TIP3 OH2  OT    -0.834000       15.9994           0
   20877 TIP3 4324 TIP3 H1   HT     0.417000        1.0080           0
   20878 TIP3 4324 TIP3 H2   HT     0.417000        1.0080           0
   20879 TIP3 4325 TIP3 OH2  OT    -0.834000       15.9994           0
   20880 TIP3 4325 TIP3 H1   HT     0.417000        1.0080           0
   20881 TIP3 4325 TIP3 H2   HT     0.417000        1.0080           0
   20882 TIP3 4326 TIP3 OH2  OT    -0.834000       15.9994           0
   20883 TIP3 4326 TIP3 H1   HT     0.417000        1.0080           0
   20884 TIP3 4326 TIP3 H2   HT     0.417000        1.0080           0
   20885 TIP3 4327 TIP3 OH2  OT    -0.834000       15.9994           0
   20886 TIP3 4327 TIP3 H1   HT     0.417000        1.0080           0
   20887 TIP3 4327 TIP3 H2   HT     0.417000        1.0080           0
   20888 TIP3 4328 TIP3 OH2  OT    -0.834000       15.9994           0
   20889 TIP3 4328 TIP3 H1   HT     0.417000        1.0080           0
   20890 TIP3 4328 TIP3 H2   HT     0.417000        1.0080           0
   20891 TIP3 4329 TIP3 OH2  OT    -0.834000       15.9994           0
   20892 TIP3 4329 TIP3 H1   HT     0.417000        1.0080           0
   20893 TIP3 4329 TIP3 H2   HT     0.417000        1.0080           0
   20894 TIP3 4330 TIP3 OH2  OT    -0.834000       15.9994           0
   20895 TIP3 4330 TIP3 H1   HT     0.417000        1.0080           0
   20896 TIP3 4330 TIP3 H2   HT     0.417000        1.0080           0
   20897 TIP3 4331 TIP3 OH2  OT    -0.834000       15.9994           0
   20898 TIP3 4331 TIP3 H1   HT     0.417000        1.0080           0
   20899 TIP3 4331 TIP3 H2   HT     0.417000        1.0080           0
   20900 TIP3 4332 TIP3 OH2  OT    -0.834000       15.9994           0
   20901 TIP3 4332 TIP3 H1   HT     0.417000        1.0080           0
   20902 TIP3 4332 TIP3 H2   HT     0.417000        1.0080           0
   20903 TIP3 4333 TIP3 OH2  OT    -0.834000       15.9994           0
   20904 TIP3 4333 TIP3 H1   HT     0.417000        1.0080           0
   20905 TIP3 4333 TIP3 H2   HT     0.417000        1.0080           0
   20906 TIP3 4334 TIP3 OH2  OT    -0.834000       15.9994           0
   20907 TIP3 4334 TIP3 H1   HT     0.417000        1.0080           0
   20908 TIP3 4334 TIP3 H2   HT     0.417000        1.0080           0
   20909 TIP3 4335 TIP3 OH2  OT    -0.834000       15.9994           0
   20910 TIP3 4335 TIP3 H1   HT     0.417000        1.0080           0
   20911 TIP3 4335 TIP3 H2   HT     0.417000        1.0080           0
   20912 TIP3 4336 TIP3 OH2  OT    -0.834000       15.9994           0
   20913 TIP3 4336 TIP3 H1   HT     0.417000        1.0080           0
   20914 TIP3 4336 TIP3 H2   HT     0.417000        1.0080           0
   20915 TIP3 4337 TIP3 OH2  OT    -0.834000       15.9994           0
   20916 TIP3 4337 TIP3 H1   HT     0.417000        1.0080           0
   20917 TIP3 4337 TIP3 H2   HT     0.417000        1.0080           0
   20918 TIP3 4338 TIP3 OH2  OT    -0.834000       15.9994           0
   20919 TIP3 4338 TIP3 H1   HT     0.417000        1.0080           0
   20920 TIP3 4338 TIP3 H2   HT     0.417000        1.0080           0
   20921 TIP3 4339 TIP3 OH2  OT    -0.834000       15.9994           0
   20922 TIP3 4339 TIP3 H1   HT     0.417000        1.0080           0
   20923 TIP3 4339 TIP3 H2   HT     0.417000        1.0080           0
   20924 TIP3 4340 TIP3 OH2  OT    -0.834000       15.9994           0
   20925 TIP3 4340 TIP3 H1   HT     0.417000        1.0080           0
   20926 TIP3 4340 TIP3 H2   HT     0.417000        1.0080           0
   20927 TIP3 4341 TIP3 OH2  OT    -0.834000       15.9994           0
   20928 TIP3 4341 TIP3 H1   HT     0.417000        1.0080           0
   20929 TIP3 4341 TIP3 H2   HT     0.417000        1.0080           0
   20930 TIP3 4342 TIP3 OH2  OT    -0.834000       15.9994           0
   20931 TIP3 4342 TIP3 H1   HT     0.417000        1.0080           0
   20932 TIP3 4342 TIP3 H2   HT     0.417000        1.0080           0
   20933 TIP3 4343 TIP3 OH2  OT    -0.834000       15.9994           0
   20934 TIP3 4343 TIP3 H1   HT     0.417000        1.0080           0
   20935 TIP3 4343 TIP3 H2   HT     0.417000        1.0080           0
   20936 TIP3 4344 TIP3 OH2  OT    -0.834000       15.9994           0
   20937 TIP3 4344 TIP3 H1   HT     0.417000        1.0080           0
   20938 TIP3 4344 TIP3 H2   HT     0.417000        1.0080           0
   20939 TIP3 4345 TIP3 OH2  OT    -0.834000       15.9994           0
   20940 TIP3 4345 TIP3 H1   HT     0.417000        1.0080           0
   20941 TIP3 4345 TIP3 H2   HT     0.417000        1.0080           0
   20942 TIP3 4346 TIP3 OH2  OT    -0.834000       15.9994           0
   20943 TIP3 4346 TIP3 H1   HT     0.417000        1.0080           0
   20944 TIP3 4346 TIP3 H2   HT     0.417000        1.0080           0
   20945 TIP3 4347 TIP3 OH2  OT    -0.834000       15.9994           0
   20946 TIP3 4347 TIP3 H1   HT     0.417000        1.0080           0
   20947 TIP3 4347 TIP3 H2   HT     0.417000        1.0080           0
   20948 TIP3 4348 TIP3 OH2  OT    -0.834000       15.9994           0
   20949 TIP3 4348 TIP3 H1   HT     0.417000        1.0080           0
   20950 TIP3 4348 TIP3 H2   HT     0.417000        1.0080           0
   20951 TIP3 4349 TIP3 OH2  OT    -0.834000       15.9994           0
   20952 TIP3 4349 TIP3 H1   HT     0.417000        1.0080           0
   20953 TIP3 4349 TIP3 H2   HT     0.417000        1.0080           0
   20954 TIP3 4350 TIP3 OH2  OT    -0.834000       15.9994           0
   20955 TIP3 4350 TIP3 H1   HT     0.417000        1.0080           0
   20956 TIP3 4350 TIP3 H2   HT     0.417000        1.0080           0
   20957 TIP3 4351 TIP3 OH2  OT    -0.834000       15.9994           0
   20958 TIP3 4351 TIP3 H1   HT     0.417000        1.0080           0
   20959 TIP3 4351 TIP3 H2   HT     0.417000        1.0080           0
   20960 TIP3 4352 TIP3 OH2  OT    -0.834000       15.9994           0
   20961 TIP3 4352 TIP3 H1   HT     0.417000        1.0080           0
   20962 TIP3 4352 TIP3 H2   HT     0.417000        1.0080           0
   20963 TIP3 4353 TIP3 OH2  OT    -0.834000       15.9994           0
   20964 TIP3 4353 TIP3 H1   HT     0.417000        1.0080           0
   20965 TIP3 4353 TIP3 H2   HT     0.417000        1.0080           0
   20966 TIP3 4354 TIP3 OH2  OT    -0.834000       15.9994           0
   20967 TIP3 4354 TIP3 H1   HT     0.417000        1.0080           0
   20968 TIP3 4354 TIP3 H2   HT     0.417000        1.0080           0
   20969 TIP3 4355 TIP3 OH2  OT    -0.834000       15.9994           0
   20970 TIP3 4355 TIP3 H1   HT     0.417000        1.0080           0
   20971 TIP3 4355 TIP3 H2   HT     0.417000        1.0080           0
   20972 TIP3 4356 TIP3 OH2  OT    -0.834000       15.9994           0
   20973 TIP3 4356 TIP3 H1   HT     0.417000        1.0080           0
   20974 TIP3 4356 TIP3 H2   HT     0.417000        1.0080           0
   20975 TIP3 4357 TIP3 OH2  OT    -0.834000       15.9994           0
   20976 TIP3 4357 TIP3 H1   HT     0.417000        1.0080           0
   20977 TIP3 4357 TIP3 H2   HT     0.417000        1.0080           0
   20978 TIP3 4358 TIP3 OH2  OT    -0.834000       15.9994           0
   20979 TIP3 4358 TIP3 H1   HT     0.417000        1.0080           0
   20980 TIP3 4358 TIP3 H2   HT     0.417000        1.0080           0
   20981 TIP3 4359 TIP3 OH2  OT    -0.834000       15.9994           0
   20982 TIP3 4359 TIP3 H1   HT     0.417000        1.0080           0
   20983 TIP3 4359 TIP3 H2   HT     0.417000        1.0080           0
   20984 TIP3 4360 TIP3 OH2  OT    -0.834000       15.9994           0
   20985 TIP3 4360 TIP3 H1   HT     0.417000        1.0080           0
   20986 TIP3 4360 TIP3 H2   HT     0.417000        1.0080           0
   20987 TIP3 4361 TIP3 OH2  OT    -0.834000       15.9994           0
   20988 TIP3 4361 TIP3 H1   HT     0.417000        1.0080           0
   20989 TIP3 4361 TIP3 H2   HT     0.417000        1.0080           0
   20990 TIP3 4362 TIP3 OH2  OT    -0.834000       15.9994           0
   20991 TIP3 4362 TIP3 H1   HT     0.417000        1.0080           0
   20992 TIP3 4362 TIP3 H2   HT     0.417000        1.0080           0
   20993 TIP3 4363 TIP3 OH2  OT    -0.834000       15.9994           0
   20994 TIP3 4363 TIP3 H1   HT     0.417000        1.0080           0
   20995 TIP3 4363 TIP3 H2   HT     0.417000        1.0080           0
   20996 TIP3 4364 TIP3 OH2  OT    -0.834000       15.9994           0
   20997 TIP3 4364 TIP3 H1   HT     0.417000        1.0080           0
   20998 TIP3 4364 TIP3 H2   HT     0.417000        1.0080           0
   20999 TIP3 4365 TIP3 OH2  OT    -0.834000       15.9994           0
   21000 TIP3 4365 TIP3 H1   HT     0.417000        1.0080           0
   21001 TIP3 4365 TIP3 H2   HT     0.417000        1.0080           0
   21002 TIP3 4366 TIP3 OH2  OT    -0.834000       15.9994           0
   21003 TIP3 4366 TIP3 H1   HT     0.417000        1.0080           0
   21004 TIP3 4366 TIP3 H2   HT     0.417000        1.0080           0
   21005 TIP3 4367 TIP3 OH2  OT    -0.834000       15.9994           0
   21006 TIP3 4367 TIP3 H1   HT     0.417000        1.0080           0
   21007 TIP3 4367 TIP3 H2   HT     0.417000        1.0080           0
   21008 TIP3 4368 TIP3 OH2  OT    -0.834000       15.9994           0
   21009 TIP3 4368 TIP3 H1   HT     0.417000        1.0080           0
   21010 TIP3 4368 TIP3 H2   HT     0.417000        1.0080           0
   21011 TIP3 4369 TIP3 OH2  OT    -0.834000       15.9994           0
   21012 TIP3 4369 TIP3 H1   HT     0.417000        1.0080           0
   21013 TIP3 4369 TIP3 H2   HT     0.417000        1.0080           0
   21014 TIP3 4370 TIP3 OH2  OT    -0.834000       15.9994           0
   21015 TIP3 4370 TIP3 H1   HT     0.417000        1.0080           0
   21016 TIP3 4370 TIP3 H2   HT     0.417000        1.0080           0
   21017 TIP3 4371 TIP3 OH2  OT    -0.834000       15.9994           0
   21018 TIP3 4371 TIP3 H1   HT     0.417000        1.0080           0
   21019 TIP3 4371 TIP3 H2   HT     0.417000        1.0080           0
   21020 TIP3 4372 TIP3 OH2  OT    -0.834000       15.9994           0
   21021 TIP3 4372 TIP3 H1   HT     0.417000        1.0080           0
   21022 TIP3 4372 TIP3 H2   HT     0.417000        1.0080           0
   21023 TIP3 4373 TIP3 OH2  OT    -0.834000       15.9994           0
   21024 TIP3 4373 TIP3 H1   HT     0.417000        1.0080           0
   21025 TIP3 4373 TIP3 H2   HT     0.417000        1.0080           0
   21026 TIP3 4374 TIP3 OH2  OT    -0.834000       15.9994           0
   21027 TIP3 4374 TIP3 H1   HT     0.417000        1.0080           0
   21028 TIP3 4374 TIP3 H2   HT     0.417000        1.0080           0
   21029 TIP3 4375 TIP3 OH2  OT    -0.834000       15.9994           0
   21030 TIP3 4375 TIP3 H1   HT     0.417000        1.0080           0
   21031 TIP3 4375 TIP3 H2   HT     0.417000        1.0080           0
   21032 TIP3 4376 TIP3 OH2  OT    -0.834000       15.9994           0
   21033 TIP3 4376 TIP3 H1   HT     0.417000        1.0080           0
   21034 TIP3 4376 TIP3 H2   HT     0.417000        1.0080           0
   21035 TIP3 4377 TIP3 OH2  OT    -0.834000       15.9994           0
   21036 TIP3 4377 TIP3 H1   HT     0.417000        1.0080           0
   21037 TIP3 4377 TIP3 H2   HT     0.417000        1.0080           0
   21038 TIP3 4378 TIP3 OH2  OT    -0.834000       15.9994           0
   21039 TIP3 4378 TIP3 H1   HT     0.417000        1.0080           0
   21040 TIP3 4378 TIP3 H2   HT     0.417000        1.0080           0
   21041 TIP3 4379 TIP3 OH2  OT    -0.834000       15.9994           0
   21042 TIP3 4379 TIP3 H1   HT     0.417000        1.0080           0
   21043 TIP3 4379 TIP3 H2   HT     0.417000        1.0080           0
   21044 TIP3 4380 TIP3 OH2  OT    -0.834000       15.9994           0
   21045 TIP3 4380 TIP3 H1   HT     0.417000        1.0080           0
   21046 TIP3 4380 TIP3 H2   HT     0.417000        1.0080           0
   21047 TIP3 4381 TIP3 OH2  OT    -0.834000       15.9994           0
   21048 TIP3 4381 TIP3 H1   HT     0.417000        1.0080           0
   21049 TIP3 4381 TIP3 H2   HT     0.417000        1.0080           0
   21050 TIP3 4382 TIP3 OH2  OT    -0.834000       15.9994           0
   21051 TIP3 4382 TIP3 H1   HT     0.417000        1.0080           0
   21052 TIP3 4382 TIP3 H2   HT     0.417000        1.0080           0
   21053 TIP3 4383 TIP3 OH2  OT    -0.834000       15.9994           0
   21054 TIP3 4383 TIP3 H1   HT     0.417000        1.0080           0
   21055 TIP3 4383 TIP3 H2   HT     0.417000        1.0080           0
   21056 TIP3 4384 TIP3 OH2  OT    -0.834000       15.9994           0
   21057 TIP3 4384 TIP3 H1   HT     0.417000        1.0080           0
   21058 TIP3 4384 TIP3 H2   HT     0.417000        1.0080           0
   21059 TIP3 4385 TIP3 OH2  OT    -0.834000       15.9994           0
   21060 TIP3 4385 TIP3 H1   HT     0.417000        1.0080           0
   21061 TIP3 4385 TIP3 H2   HT     0.417000        1.0080           0
   21062 TIP3 4386 TIP3 OH2  OT    -0.834000       15.9994           0
   21063 TIP3 4386 TIP3 H1   HT     0.417000        1.0080           0
   21064 TIP3 4386 TIP3 H2   HT     0.417000        1.0080           0
   21065 TIP3 4387 TIP3 OH2  OT    -0.834000       15.9994           0
   21066 TIP3 4387 TIP3 H1   HT     0.417000        1.0080           0
   21067 TIP3 4387 TIP3 H2   HT     0.417000        1.0080           0
   21068 TIP3 4388 TIP3 OH2  OT    -0.834000       15.9994           0
   21069 TIP3 4388 TIP3 H1   HT     0.417000        1.0080           0
   21070 TIP3 4388 TIP3 H2   HT     0.417000        1.0080           0
   21071 TIP3 4389 TIP3 OH2  OT    -0.834000       15.9994           0
   21072 TIP3 4389 TIP3 H1   HT     0.417000        1.0080           0
   21073 TIP3 4389 TIP3 H2   HT     0.417000        1.0080           0
   21074 TIP3 4390 TIP3 OH2  OT    -0.834000       15.9994           0
   21075 TIP3 4390 TIP3 H1   HT     0.417000        1.0080           0
   21076 TIP3 4390 TIP3 H2   HT     0.417000        1.0080           0
   21077 TIP3 4391 TIP3 OH2  OT    -0.834000       15.9994           0
   21078 TIP3 4391 TIP3 H1   HT     0.417000        1.0080           0
   21079 TIP3 4391 TIP3 H2   HT     0.417000        1.0080           0
   21080 TIP3 4392 TIP3 OH2  OT    -0.834000       15.9994           0
   21081 TIP3 4392 TIP3 H1   HT     0.417000        1.0080           0
   21082 TIP3 4392 TIP3 H2   HT     0.417000        1.0080           0
   21083 TIP3 4393 TIP3 OH2  OT    -0.834000       15.9994           0
   21084 TIP3 4393 TIP3 H1   HT     0.417000        1.0080           0
   21085 TIP3 4393 TIP3 H2   HT     0.417000        1.0080           0
   21086 TIP3 4394 TIP3 OH2  OT    -0.834000       15.9994           0
   21087 TIP3 4394 TIP3 H1   HT     0.417000        1.0080           0
   21088 TIP3 4394 TIP3 H2   HT     0.417000        1.0080           0
   21089 TIP3 4395 TIP3 OH2  OT    -0.834000       15.9994           0
   21090 TIP3 4395 TIP3 H1   HT     0.417000        1.0080           0
   21091 TIP3 4395 TIP3 H2   HT     0.417000        1.0080           0
   21092 TIP3 4396 TIP3 OH2  OT    -0.834000       15.9994           0
   21093 TIP3 4396 TIP3 H1   HT     0.417000        1.0080           0
   21094 TIP3 4396 TIP3 H2   HT     0.417000        1.0080           0
   21095 TIP3 4397 TIP3 OH2  OT    -0.834000       15.9994           0
   21096 TIP3 4397 TIP3 H1   HT     0.417000        1.0080           0
   21097 TIP3 4397 TIP3 H2   HT     0.417000        1.0080           0
   21098 TIP3 4398 TIP3 OH2  OT    -0.834000       15.9994           0
   21099 TIP3 4398 TIP3 H1   HT     0.417000        1.0080           0
   21100 TIP3 4398 TIP3 H2   HT     0.417000        1.0080           0
   21101 TIP3 4399 TIP3 OH2  OT    -0.834000       15.9994           0
   21102 TIP3 4399 TIP3 H1   HT     0.417000        1.0080           0
   21103 TIP3 4399 TIP3 H2   HT     0.417000        1.0080           0
   21104 TIP3 4400 TIP3 OH2  OT    -0.834000       15.9994           0
   21105 TIP3 4400 TIP3 H1   HT     0.417000        1.0080           0
   21106 TIP3 4400 TIP3 H2   HT     0.417000        1.0080           0
   21107 TIP3 4401 TIP3 OH2  OT    -0.834000       15.9994           0
   21108 TIP3 4401 TIP3 H1   HT     0.417000        1.0080           0
   21109 TIP3 4401 TIP3 H2   HT     0.417000        1.0080           0
   21110 TIP3 4402 TIP3 OH2  OT    -0.834000       15.9994           0
   21111 TIP3 4402 TIP3 H1   HT     0.417000        1.0080           0
   21112 TIP3 4402 TIP3 H2   HT     0.417000        1.0080           0
   21113 TIP3 4403 TIP3 OH2  OT    -0.834000       15.9994           0
   21114 TIP3 4403 TIP3 H1   HT     0.417000        1.0080           0
   21115 TIP3 4403 TIP3 H2   HT     0.417000        1.0080           0
   21116 TIP3 4404 TIP3 OH2  OT    -0.834000       15.9994           0
   21117 TIP3 4404 TIP3 H1   HT     0.417000        1.0080           0
   21118 TIP3 4404 TIP3 H2   HT     0.417000        1.0080           0
   21119 TIP3 4405 TIP3 OH2  OT    -0.834000       15.9994           0
   21120 TIP3 4405 TIP3 H1   HT     0.417000        1.0080           0
   21121 TIP3 4405 TIP3 H2   HT     0.417000        1.0080           0
   21122 TIP3 4406 TIP3 OH2  OT    -0.834000       15.9994           0
   21123 TIP3 4406 TIP3 H1   HT     0.417000        1.0080           0
   21124 TIP3 4406 TIP3 H2   HT     0.417000        1.0080           0
   21125 TIP3 4407 TIP3 OH2  OT    -0.834000       15.9994           0
   21126 TIP3 4407 TIP3 H1   HT     0.417000        1.0080           0
   21127 TIP3 4407 TIP3 H2   HT     0.417000        1.0080           0
   21128 TIP3 4408 TIP3 OH2  OT    -0.834000       15.9994           0
   21129 TIP3 4408 TIP3 H1   HT     0.417000        1.0080           0
   21130 TIP3 4408 TIP3 H2   HT     0.417000        1.0080           0
   21131 TIP3 4409 TIP3 OH2  OT    -0.834000       15.9994           0
   21132 TIP3 4409 TIP3 H1   HT     0.417000        1.0080           0
   21133 TIP3 4409 TIP3 H2   HT     0.417000        1.0080           0
   21134 TIP3 4410 TIP3 OH2  OT    -0.834000       15.9994           0
   21135 TIP3 4410 TIP3 H1   HT     0.417000        1.0080           0
   21136 TIP3 4410 TIP3 H2   HT     0.417000        1.0080           0
   21137 TIP3 4411 TIP3 OH2  OT    -0.834000       15.9994           0
   21138 TIP3 4411 TIP3 H1   HT     0.417000        1.0080           0
   21139 TIP3 4411 TIP3 H2   HT     0.417000        1.0080           0
   21140 TIP3 4412 TIP3 OH2  OT    -0.834000       15.9994           0
   21141 TIP3 4412 TIP3 H1   HT     0.417000        1.0080           0
   21142 TIP3 4412 TIP3 H2   HT     0.417000        1.0080           0
   21143 TIP3 4413 TIP3 OH2  OT    -0.834000       15.9994           0
   21144 TIP3 4413 TIP3 H1   HT     0.417000        1.0080           0
   21145 TIP3 4413 TIP3 H2   HT     0.417000        1.0080           0
   21146 TIP3 4414 TIP3 OH2  OT    -0.834000       15.9994           0
   21147 TIP3 4414 TIP3 H1   HT     0.417000        1.0080           0
   21148 TIP3 4414 TIP3 H2   HT     0.417000        1.0080           0
   21149 TIP3 4415 TIP3 OH2  OT    -0.834000       15.9994           0
   21150 TIP3 4415 TIP3 H1   HT     0.417000        1.0080           0
   21151 TIP3 4415 TIP3 H2   HT     0.417000        1.0080           0
   21152 TIP3 4416 TIP3 OH2  OT    -0.834000       15.9994           0
   21153 TIP3 4416 TIP3 H1   HT     0.417000        1.0080           0
   21154 TIP3 4416 TIP3 H2   HT     0.417000        1.0080           0
   21155 TIP3 4417 TIP3 OH2  OT    -0.834000       15.9994           0
   21156 TIP3 4417 TIP3 H1   HT     0.417000        1.0080           0
   21157 TIP3 4417 TIP3 H2   HT     0.417000        1.0080           0
   21158 TIP3 4418 TIP3 OH2  OT    -0.834000       15.9994           0
   21159 TIP3 4418 TIP3 H1   HT     0.417000        1.0080           0
   21160 TIP3 4418 TIP3 H2   HT     0.417000        1.0080           0
   21161 TIP3 4419 TIP3 OH2  OT    -0.834000       15.9994           0
   21162 TIP3 4419 TIP3 H1   HT     0.417000        1.0080           0
   21163 TIP3 4419 TIP3 H2   HT     0.417000        1.0080           0
   21164 TIP3 4420 TIP3 OH2  OT    -0.834000       15.9994           0
   21165 TIP3 4420 TIP3 H1   HT     0.417000        1.0080           0
   21166 TIP3 4420 TIP3 H2   HT     0.417000        1.0080           0
   21167 TIP3 4421 TIP3 OH2  OT    -0.834000       15.9994           0
   21168 TIP3 4421 TIP3 H1   HT     0.417000        1.0080           0
   21169 TIP3 4421 TIP3 H2   HT     0.417000        1.0080           0
   21170 TIP3 4422 TIP3 OH2  OT    -0.834000       15.9994           0
   21171 TIP3 4422 TIP3 H1   HT     0.417000        1.0080           0
   21172 TIP3 4422 TIP3 H2   HT     0.417000        1.0080           0
   21173 TIP3 4423 TIP3 OH2  OT    -0.834000       15.9994           0
   21174 TIP3 4423 TIP3 H1   HT     0.417000        1.0080           0
   21175 TIP3 4423 TIP3 H2   HT     0.417000        1.0080           0
   21176 TIP3 4424 TIP3 OH2  OT    -0.834000       15.9994           0
   21177 TIP3 4424 TIP3 H1   HT     0.417000        1.0080           0
   21178 TIP3 4424 TIP3 H2   HT     0.417000        1.0080           0
   21179 TIP3 4425 TIP3 OH2  OT    -0.834000       15.9994           0
   21180 TIP3 4425 TIP3 H1   HT     0.417000        1.0080           0
   21181 TIP3 4425 TIP3 H2   HT     0.417000        1.0080           0
   21182 TIP3 4426 TIP3 OH2  OT    -0.834000       15.9994           0
   21183 TIP3 4426 TIP3 H1   HT     0.417000        1.0080           0
   21184 TIP3 4426 TIP3 H2   HT     0.417000        1.0080           0
   21185 TIP3 4427 TIP3 OH2  OT    -0.834000       15.9994           0
   21186 TIP3 4427 TIP3 H1   HT     0.417000        1.0080           0
   21187 TIP3 4427 TIP3 H2   HT     0.417000        1.0080           0
   21188 TIP3 4428 TIP3 OH2  OT    -0.834000       15.9994           0
   21189 TIP3 4428 TIP3 H1   HT     0.417000        1.0080           0
   21190 TIP3 4428 TIP3 H2   HT     0.417000        1.0080           0
   21191 TIP3 4429 TIP3 OH2  OT    -0.834000       15.9994           0
   21192 TIP3 4429 TIP3 H1   HT     0.417000        1.0080           0
   21193 TIP3 4429 TIP3 H2   HT     0.417000        1.0080           0
   21194 TIP3 4430 TIP3 OH2  OT    -0.834000       15.9994           0
   21195 TIP3 4430 TIP3 H1   HT     0.417000        1.0080           0
   21196 TIP3 4430 TIP3 H2   HT     0.417000        1.0080           0
   21197 TIP3 4431 TIP3 OH2  OT    -0.834000       15.9994           0
   21198 TIP3 4431 TIP3 H1   HT     0.417000        1.0080           0
   21199 TIP3 4431 TIP3 H2   HT     0.417000        1.0080           0
   21200 TIP3 4432 TIP3 OH2  OT    -0.834000       15.9994           0
   21201 TIP3 4432 TIP3 H1   HT     0.417000        1.0080           0
   21202 TIP3 4432 TIP3 H2   HT     0.417000        1.0080           0
   21203 TIP3 4433 TIP3 OH2  OT    -0.834000       15.9994           0
   21204 TIP3 4433 TIP3 H1   HT     0.417000        1.0080           0
   21205 TIP3 4433 TIP3 H2   HT     0.417000        1.0080           0
   21206 TIP3 4434 TIP3 OH2  OT    -0.834000       15.9994           0
   21207 TIP3 4434 TIP3 H1   HT     0.417000        1.0080           0
   21208 TIP3 4434 TIP3 H2   HT     0.417000        1.0080           0
   21209 TIP3 4435 TIP3 OH2  OT    -0.834000       15.9994           0
   21210 TIP3 4435 TIP3 H1   HT     0.417000        1.0080           0
   21211 TIP3 4435 TIP3 H2   HT     0.417000        1.0080           0
   21212 TIP3 4436 TIP3 OH2  OT    -0.834000       15.9994           0
   21213 TIP3 4436 TIP3 H1   HT     0.417000        1.0080           0
   21214 TIP3 4436 TIP3 H2   HT     0.417000        1.0080           0
   21215 TIP3 4437 TIP3 OH2  OT    -0.834000       15.9994           0
   21216 TIP3 4437 TIP3 H1   HT     0.417000        1.0080           0
   21217 TIP3 4437 TIP3 H2   HT     0.417000        1.0080           0
   21218 TIP3 4438 TIP3 OH2  OT    -0.834000       15.9994           0
   21219 TIP3 4438 TIP3 H1   HT     0.417000        1.0080           0
   21220 TIP3 4438 TIP3 H2   HT     0.417000        1.0080           0
   21221 TIP3 4439 TIP3 OH2  OT    -0.834000       15.9994           0
   21222 TIP3 4439 TIP3 H1   HT     0.417000        1.0080           0
   21223 TIP3 4439 TIP3 H2   HT     0.417000        1.0080           0
   21224 TIP3 4440 TIP3 OH2  OT    -0.834000       15.9994           0
   21225 TIP3 4440 TIP3 H1   HT     0.417000        1.0080           0
   21226 TIP3 4440 TIP3 H2   HT     0.417000        1.0080           0
   21227 TIP3 4441 TIP3 OH2  OT    -0.834000       15.9994           0
   21228 TIP3 4441 TIP3 H1   HT     0.417000        1.0080           0
   21229 TIP3 4441 TIP3 H2   HT     0.417000        1.0080           0
   21230 TIP3 4442 TIP3 OH2  OT    -0.834000       15.9994           0
   21231 TIP3 4442 TIP3 H1   HT     0.417000        1.0080           0
   21232 TIP3 4442 TIP3 H2   HT     0.417000        1.0080           0
   21233 TIP3 4443 TIP3 OH2  OT    -0.834000       15.9994           0
   21234 TIP3 4443 TIP3 H1   HT     0.417000        1.0080           0
   21235 TIP3 4443 TIP3 H2   HT     0.417000        1.0080           0
   21236 TIP3 4444 TIP3 OH2  OT    -0.834000       15.9994           0
   21237 TIP3 4444 TIP3 H1   HT     0.417000        1.0080           0
   21238 TIP3 4444 TIP3 H2   HT     0.417000        1.0080           0
   21239 TIP3 4445 TIP3 OH2  OT    -0.834000       15.9994           0
   21240 TIP3 4445 TIP3 H1   HT     0.417000        1.0080           0
   21241 TIP3 4445 TIP3 H2   HT     0.417000        1.0080           0
   21242 TIP3 4446 TIP3 OH2  OT    -0.834000       15.9994           0
   21243 TIP3 4446 TIP3 H1   HT     0.417000        1.0080           0
   21244 TIP3 4446 TIP3 H2   HT     0.417000        1.0080           0
   21245 TIP3 4447 TIP3 OH2  OT    -0.834000       15.9994           0
   21246 TIP3 4447 TIP3 H1   HT     0.417000        1.0080           0
   21247 TIP3 4447 TIP3 H2   HT     0.417000        1.0080           0
   21248 TIP3 4448 TIP3 OH2  OT    -0.834000       15.9994           0
   21249 TIP3 4448 TIP3 H1   HT     0.417000        1.0080           0
   21250 TIP3 4448 TIP3 H2   HT     0.417000        1.0080           0
   21251 TIP3 4449 TIP3 OH2  OT    -0.834000       15.9994           0
   21252 TIP3 4449 TIP3 H1   HT     0.417000        1.0080           0
   21253 TIP3 4449 TIP3 H2   HT     0.417000        1.0080           0
   21254 TIP3 4450 TIP3 OH2  OT    -0.834000       15.9994           0
   21255 TIP3 4450 TIP3 H1   HT     0.417000        1.0080           0
   21256 TIP3 4450 TIP3 H2   HT     0.417000        1.0080           0
   21257 TIP3 4451 TIP3 OH2  OT    -0.834000       15.9994           0
   21258 TIP3 4451 TIP3 H1   HT     0.417000        1.0080           0
   21259 TIP3 4451 TIP3 H2   HT     0.417000        1.0080           0
   21260 TIP3 4452 TIP3 OH2  OT    -0.834000       15.9994           0
   21261 TIP3 4452 TIP3 H1   HT     0.417000        1.0080           0
   21262 TIP3 4452 TIP3 H2   HT     0.417000        1.0080           0
   21263 TIP3 4453 TIP3 OH2  OT    -0.834000       15.9994           0
   21264 TIP3 4453 TIP3 H1   HT     0.417000        1.0080           0
   21265 TIP3 4453 TIP3 H2   HT     0.417000        1.0080           0
   21266 TIP3 4454 TIP3 OH2  OT    -0.834000       15.9994           0
   21267 TIP3 4454 TIP3 H1   HT     0.417000        1.0080           0
   21268 TIP3 4454 TIP3 H2   HT     0.417000        1.0080           0
   21269 TIP3 4455 TIP3 OH2  OT    -0.834000       15.9994           0
   21270 TIP3 4455 TIP3 H1   HT     0.417000        1.0080           0
   21271 TIP3 4455 TIP3 H2   HT     0.417000        1.0080           0
   21272 TIP3 4456 TIP3 OH2  OT    -0.834000       15.9994           0
   21273 TIP3 4456 TIP3 H1   HT     0.417000        1.0080           0
   21274 TIP3 4456 TIP3 H2   HT     0.417000        1.0080           0
   21275 TIP3 4457 TIP3 OH2  OT    -0.834000       15.9994           0
   21276 TIP3 4457 TIP3 H1   HT     0.417000        1.0080           0
   21277 TIP3 4457 TIP3 H2   HT     0.417000        1.0080           0
   21278 TIP3 4458 TIP3 OH2  OT    -0.834000       15.9994           0
   21279 TIP3 4458 TIP3 H1   HT     0.417000        1.0080           0
   21280 TIP3 4458 TIP3 H2   HT     0.417000        1.0080           0
   21281 TIP3 4459 TIP3 OH2  OT    -0.834000       15.9994           0
   21282 TIP3 4459 TIP3 H1   HT     0.417000        1.0080           0
   21283 TIP3 4459 TIP3 H2   HT     0.417000        1.0080           0
   21284 TIP3 4460 TIP3 OH2  OT    -0.834000       15.9994           0
   21285 TIP3 4460 TIP3 H1   HT     0.417000        1.0080           0
   21286 TIP3 4460 TIP3 H2   HT     0.417000        1.0080           0
   21287 TIP3 4461 TIP3 OH2  OT    -0.834000       15.9994           0
   21288 TIP3 4461 TIP3 H1   HT     0.417000        1.0080           0
   21289 TIP3 4461 TIP3 H2   HT     0.417000        1.0080           0
   21290 TIP3 4462 TIP3 OH2  OT    -0.834000       15.9994           0
   21291 TIP3 4462 TIP3 H1   HT     0.417000        1.0080           0
   21292 TIP3 4462 TIP3 H2   HT     0.417000        1.0080           0
   21293 TIP3 4463 TIP3 OH2  OT    -0.834000       15.9994           0
   21294 TIP3 4463 TIP3 H1   HT     0.417000        1.0080           0
   21295 TIP3 4463 TIP3 H2   HT     0.417000        1.0080           0
   21296 TIP3 4464 TIP3 OH2  OT    -0.834000       15.9994           0
   21297 TIP3 4464 TIP3 H1   HT     0.417000        1.0080           0
   21298 TIP3 4464 TIP3 H2   HT     0.417000        1.0080           0
   21299 TIP3 4465 TIP3 OH2  OT    -0.834000       15.9994           0
   21300 TIP3 4465 TIP3 H1   HT     0.417000        1.0080           0
   21301 TIP3 4465 TIP3 H2   HT     0.417000        1.0080           0
   21302 TIP3 4466 TIP3 OH2  OT    -0.834000       15.9994           0
   21303 TIP3 4466 TIP3 H1   HT     0.417000        1.0080           0
   21304 TIP3 4466 TIP3 H2   HT     0.417000        1.0080           0
   21305 TIP3 4467 TIP3 OH2  OT    -0.834000       15.9994           0
   21306 TIP3 4467 TIP3 H1   HT     0.417000        1.0080           0
   21307 TIP3 4467 TIP3 H2   HT     0.417000        1.0080           0
   21308 TIP3 4468 TIP3 OH2  OT    -0.834000       15.9994           0
   21309 TIP3 4468 TIP3 H1   HT     0.417000        1.0080           0
   21310 TIP3 4468 TIP3 H2   HT     0.417000        1.0080           0
   21311 TIP3 4469 TIP3 OH2  OT    -0.834000       15.9994           0
   21312 TIP3 4469 TIP3 H1   HT     0.417000        1.0080           0
   21313 TIP3 4469 TIP3 H2   HT     0.417000        1.0080           0
   21314 TIP3 4470 TIP3 OH2  OT    -0.834000       15.9994           0
   21315 TIP3 4470 TIP3 H1   HT     0.417000        1.0080           0
   21316 TIP3 4470 TIP3 H2   HT     0.417000        1.0080           0
   21317 TIP3 4471 TIP3 OH2  OT    -0.834000       15.9994           0
   21318 TIP3 4471 TIP3 H1   HT     0.417000        1.0080           0
   21319 TIP3 4471 TIP3 H2   HT     0.417000        1.0080           0
   21320 TIP3 4472 TIP3 OH2  OT    -0.834000       15.9994           0
   21321 TIP3 4472 TIP3 H1   HT     0.417000        1.0080           0
   21322 TIP3 4472 TIP3 H2   HT     0.417000        1.0080           0
   21323 TIP3 4473 TIP3 OH2  OT    -0.834000       15.9994           0
   21324 TIP3 4473 TIP3 H1   HT     0.417000        1.0080           0
   21325 TIP3 4473 TIP3 H2   HT     0.417000        1.0080           0
   21326 TIP3 4474 TIP3 OH2  OT    -0.834000       15.9994           0
   21327 TIP3 4474 TIP3 H1   HT     0.417000        1.0080           0
   21328 TIP3 4474 TIP3 H2   HT     0.417000        1.0080           0
   21329 TIP3 4475 TIP3 OH2  OT    -0.834000       15.9994           0
   21330 TIP3 4475 TIP3 H1   HT     0.417000        1.0080           0
   21331 TIP3 4475 TIP3 H2   HT     0.417000        1.0080           0
   21332 TIP3 4476 TIP3 OH2  OT    -0.834000       15.9994           0
   21333 TIP3 4476 TIP3 H1   HT     0.417000        1.0080           0
   21334 TIP3 4476 TIP3 H2   HT     0.417000        1.0080           0
   21335 TIP3 4477 TIP3 OH2  OT    -0.834000       15.9994           0
   21336 TIP3 4477 TIP3 H1   HT     0.417000        1.0080           0
   21337 TIP3 4477 TIP3 H2   HT     0.417000        1.0080           0
   21338 TIP3 4478 TIP3 OH2  OT    -0.834000       15.9994           0
   21339 TIP3 4478 TIP3 H1   HT     0.417000        1.0080           0
   21340 TIP3 4478 TIP3 H2   HT     0.417000        1.0080           0
   21341 TIP3 4479 TIP3 OH2  OT    -0.834000       15.9994           0
   21342 TIP3 4479 TIP3 H1   HT     0.417000        1.0080           0
   21343 TIP3 4479 TIP3 H2   HT     0.417000        1.0080           0
   21344 TIP3 4480 TIP3 OH2  OT    -0.834000       15.9994           0
   21345 TIP3 4480 TIP3 H1   HT     0.417000        1.0080           0
   21346 TIP3 4480 TIP3 H2   HT     0.417000        1.0080           0
   21347 TIP3 4481 TIP3 OH2  OT    -0.834000       15.9994           0
   21348 TIP3 4481 TIP3 H1   HT     0.417000        1.0080           0
   21349 TIP3 4481 TIP3 H2   HT     0.417000        1.0080           0
   21350 TIP3 4482 TIP3 OH2  OT    -0.834000       15.9994           0
   21351 TIP3 4482 TIP3 H1   HT     0.417000        1.0080           0
   21352 TIP3 4482 TIP3 H2   HT     0.417000        1.0080           0
   21353 TIP3 4483 TIP3 OH2  OT    -0.834000       15.9994           0
   21354 TIP3 4483 TIP3 H1   HT     0.417000        1.0080           0
   21355 TIP3 4483 TIP3 H2   HT     0.417000        1.0080           0
   21356 TIP3 4484 TIP3 OH2  OT    -0.834000       15.9994           0
   21357 TIP3 4484 TIP3 H1   HT     0.417000        1.0080           0
   21358 TIP3 4484 TIP3 H2   HT     0.417000        1.0080           0
   21359 TIP3 4485 TIP3 OH2  OT    -0.834000       15.9994           0
   21360 TIP3 4485 TIP3 H1   HT     0.417000        1.0080           0
   21361 TIP3 4485 TIP3 H2   HT     0.417000        1.0080           0
   21362 TIP3 4486 TIP3 OH2  OT    -0.834000       15.9994           0
   21363 TIP3 4486 TIP3 H1   HT     0.417000        1.0080           0
   21364 TIP3 4486 TIP3 H2   HT     0.417000        1.0080           0
   21365 TIP3 4487 TIP3 OH2  OT    -0.834000       15.9994           0
   21366 TIP3 4487 TIP3 H1   HT     0.417000        1.0080           0
   21367 TIP3 4487 TIP3 H2   HT     0.417000        1.0080           0
   21368 TIP3 4488 TIP3 OH2  OT    -0.834000       15.9994           0
   21369 TIP3 4488 TIP3 H1   HT     0.417000        1.0080           0
   21370 TIP3 4488 TIP3 H2   HT     0.417000        1.0080           0
   21371 TIP3 4489 TIP3 OH2  OT    -0.834000       15.9994           0
   21372 TIP3 4489 TIP3 H1   HT     0.417000        1.0080           0
   21373 TIP3 4489 TIP3 H2   HT     0.417000        1.0080           0
   21374 TIP3 4490 TIP3 OH2  OT    -0.834000       15.9994           0
   21375 TIP3 4490 TIP3 H1   HT     0.417000        1.0080           0
   21376 TIP3 4490 TIP3 H2   HT     0.417000        1.0080           0
   21377 TIP3 4491 TIP3 OH2  OT    -0.834000       15.9994           0
   21378 TIP3 4491 TIP3 H1   HT     0.417000        1.0080           0
   21379 TIP3 4491 TIP3 H2   HT     0.417000        1.0080           0
   21380 TIP3 4492 TIP3 OH2  OT    -0.834000       15.9994           0
   21381 TIP3 4492 TIP3 H1   HT     0.417000        1.0080           0
   21382 TIP3 4492 TIP3 H2   HT     0.417000        1.0080           0
   21383 TIP3 4493 TIP3 OH2  OT    -0.834000       15.9994           0
   21384 TIP3 4493 TIP3 H1   HT     0.417000        1.0080           0
   21385 TIP3 4493 TIP3 H2   HT     0.417000        1.0080           0
   21386 TIP3 4494 TIP3 OH2  OT    -0.834000       15.9994           0
   21387 TIP3 4494 TIP3 H1   HT     0.417000        1.0080           0
   21388 TIP3 4494 TIP3 H2   HT     0.417000        1.0080           0
   21389 TIP3 4495 TIP3 OH2  OT    -0.834000       15.9994           0
   21390 TIP3 4495 TIP3 H1   HT     0.417000        1.0080           0
   21391 TIP3 4495 TIP3 H2   HT     0.417000        1.0080           0
   21392 TIP3 4496 TIP3 OH2  OT    -0.834000       15.9994           0
   21393 TIP3 4496 TIP3 H1   HT     0.417000        1.0080           0
   21394 TIP3 4496 TIP3 H2   HT     0.417000        1.0080           0
   21395 TIP3 4497 TIP3 OH2  OT    -0.834000       15.9994           0
   21396 TIP3 4497 TIP3 H1   HT     0.417000        1.0080           0
   21397 TIP3 4497 TIP3 H2   HT     0.417000        1.0080           0
   21398 TIP3 4498 TIP3 OH2  OT    -0.834000       15.9994           0
   21399 TIP3 4498 TIP3 H1   HT     0.417000        1.0080           0
   21400 TIP3 4498 TIP3 H2   HT     0.417000        1.0080           0
   21401 TIP3 4499 TIP3 OH2  OT    -0.834000       15.9994           0
   21402 TIP3 4499 TIP3 H1   HT     0.417000        1.0080           0
   21403 TIP3 4499 TIP3 H2   HT     0.417000        1.0080           0
   21404 TIP3 4500 TIP3 OH2  OT    -0.834000       15.9994           0
   21405 TIP3 4500 TIP3 H1   HT     0.417000        1.0080           0
   21406 TIP3 4500 TIP3 H2   HT     0.417000        1.0080           0
   21407 TIP3 4501 TIP3 OH2  OT    -0.834000       15.9994           0
   21408 TIP3 4501 TIP3 H1   HT     0.417000        1.0080           0
   21409 TIP3 4501 TIP3 H2   HT     0.417000        1.0080           0
   21410 TIP3 4502 TIP3 OH2  OT    -0.834000       15.9994           0
   21411 TIP3 4502 TIP3 H1   HT     0.417000        1.0080           0
   21412 TIP3 4502 TIP3 H2   HT     0.417000        1.0080           0
   21413 TIP3 4503 TIP3 OH2  OT    -0.834000       15.9994           0
   21414 TIP3 4503 TIP3 H1   HT     0.417000        1.0080           0
   21415 TIP3 4503 TIP3 H2   HT     0.417000        1.0080           0
   21416 TIP3 4504 TIP3 OH2  OT    -0.834000       15.9994           0
   21417 TIP3 4504 TIP3 H1   HT     0.417000        1.0080           0
   21418 TIP3 4504 TIP3 H2   HT     0.417000        1.0080           0
   21419 TIP3 4505 TIP3 OH2  OT    -0.834000       15.9994           0
   21420 TIP3 4505 TIP3 H1   HT     0.417000        1.0080           0
   21421 TIP3 4505 TIP3 H2   HT     0.417000        1.0080           0
   21422 TIP3 4506 TIP3 OH2  OT    -0.834000       15.9994           0
   21423 TIP3 4506 TIP3 H1   HT     0.417000        1.0080           0
   21424 TIP3 4506 TIP3 H2   HT     0.417000        1.0080           0
   21425 TIP3 4507 TIP3 OH2  OT    -0.834000       15.9994           0
   21426 TIP3 4507 TIP3 H1   HT     0.417000        1.0080           0
   21427 TIP3 4507 TIP3 H2   HT     0.417000        1.0080           0
   21428 TIP3 4508 TIP3 OH2  OT    -0.834000       15.9994           0
   21429 TIP3 4508 TIP3 H1   HT     0.417000        1.0080           0
   21430 TIP3 4508 TIP3 H2   HT     0.417000        1.0080           0
   21431 TIP3 4509 TIP3 OH2  OT    -0.834000       15.9994           0
   21432 TIP3 4509 TIP3 H1   HT     0.417000        1.0080           0
   21433 TIP3 4509 TIP3 H2   HT     0.417000        1.0080           0
   21434 TIP3 4510 TIP3 OH2  OT    -0.834000       15.9994           0
   21435 TIP3 4510 TIP3 H1   HT     0.417000        1.0080           0
   21436 TIP3 4510 TIP3 H2   HT     0.417000        1.0080           0
   21437 TIP3 4511 TIP3 OH2  OT    -0.834000       15.9994           0
   21438 TIP3 4511 TIP3 H1   HT     0.417000        1.0080           0
   21439 TIP3 4511 TIP3 H2   HT     0.417000        1.0080           0
   21440 TIP3 4512 TIP3 OH2  OT    -0.834000       15.9994           0
   21441 TIP3 4512 TIP3 H1   HT     0.417000        1.0080           0
   21442 TIP3 4512 TIP3 H2   HT     0.417000        1.0080           0
   21443 TIP3 4513 TIP3 OH2  OT    -0.834000       15.9994           0
   21444 TIP3 4513 TIP3 H1   HT     0.417000        1.0080           0
   21445 TIP3 4513 TIP3 H2   HT     0.417000        1.0080           0
   21446 TIP3 4514 TIP3 OH2  OT    -0.834000       15.9994           0
   21447 TIP3 4514 TIP3 H1   HT     0.417000        1.0080           0
   21448 TIP3 4514 TIP3 H2   HT     0.417000        1.0080           0
   21449 TIP3 4515 TIP3 OH2  OT    -0.834000       15.9994           0
   21450 TIP3 4515 TIP3 H1   HT     0.417000        1.0080           0
   21451 TIP3 4515 TIP3 H2   HT     0.417000        1.0080           0
   21452 TIP3 4516 TIP3 OH2  OT    -0.834000       15.9994           0
   21453 TIP3 4516 TIP3 H1   HT     0.417000        1.0080           0
   21454 TIP3 4516 TIP3 H2   HT     0.417000        1.0080           0
   21455 TIP3 4517 TIP3 OH2  OT    -0.834000       15.9994           0
   21456 TIP3 4517 TIP3 H1   HT     0.417000        1.0080           0
   21457 TIP3 4517 TIP3 H2   HT     0.417000        1.0080           0
   21458 TIP3 4518 TIP3 OH2  OT    -0.834000       15.9994           0
   21459 TIP3 4518 TIP3 H1   HT     0.417000        1.0080           0
   21460 TIP3 4518 TIP3 H2   HT     0.417000        1.0080           0
   21461 TIP3 4519 TIP3 OH2  OT    -0.834000       15.9994           0
   21462 TIP3 4519 TIP3 H1   HT     0.417000        1.0080           0
   21463 TIP3 4519 TIP3 H2   HT     0.417000        1.0080           0
   21464 TIP3 4520 TIP3 OH2  OT    -0.834000       15.9994           0
   21465 TIP3 4520 TIP3 H1   HT     0.417000        1.0080           0
   21466 TIP3 4520 TIP3 H2   HT     0.417000        1.0080           0
   21467 TIP3 4521 TIP3 OH2  OT    -0.834000       15.9994           0
   21468 TIP3 4521 TIP3 H1   HT     0.417000        1.0080           0
   21469 TIP3 4521 TIP3 H2   HT     0.417000        1.0080           0
   21470 TIP3 4522 TIP3 OH2  OT    -0.834000       15.9994           0
   21471 TIP3 4522 TIP3 H1   HT     0.417000        1.0080           0
   21472 TIP3 4522 TIP3 H2   HT     0.417000        1.0080           0
   21473 TIP3 4523 TIP3 OH2  OT    -0.834000       15.9994           0
   21474 TIP3 4523 TIP3 H1   HT     0.417000        1.0080           0
   21475 TIP3 4523 TIP3 H2   HT     0.417000        1.0080           0
   21476 TIP3 4524 TIP3 OH2  OT    -0.834000       15.9994           0
   21477 TIP3 4524 TIP3 H1   HT     0.417000        1.0080           0
   21478 TIP3 4524 TIP3 H2   HT     0.417000        1.0080           0
   21479 TIP3 4525 TIP3 OH2  OT    -0.834000       15.9994           0
   21480 TIP3 4525 TIP3 H1   HT     0.417000        1.0080           0
   21481 TIP3 4525 TIP3 H2   HT     0.417000        1.0080           0
   21482 TIP3 4526 TIP3 OH2  OT    -0.834000       15.9994           0
   21483 TIP3 4526 TIP3 H1   HT     0.417000        1.0080           0
   21484 TIP3 4526 TIP3 H2   HT     0.417000        1.0080           0
   21485 TIP3 4527 TIP3 OH2  OT    -0.834000       15.9994           0
   21486 TIP3 4527 TIP3 H1   HT     0.417000        1.0080           0
   21487 TIP3 4527 TIP3 H2   HT     0.417000        1.0080           0
   21488 TIP3 4528 TIP3 OH2  OT    -0.834000       15.9994           0
   21489 TIP3 4528 TIP3 H1   HT     0.417000        1.0080           0
   21490 TIP3 4528 TIP3 H2   HT     0.417000        1.0080           0
   21491 TIP3 4529 TIP3 OH2  OT    -0.834000       15.9994           0
   21492 TIP3 4529 TIP3 H1   HT     0.417000        1.0080           0
   21493 TIP3 4529 TIP3 H2   HT     0.417000        1.0080           0
   21494 TIP3 4530 TIP3 OH2  OT    -0.834000       15.9994           0
   21495 TIP3 4530 TIP3 H1   HT     0.417000        1.0080           0
   21496 TIP3 4530 TIP3 H2   HT     0.417000        1.0080           0
   21497 TIP3 4531 TIP3 OH2  OT    -0.834000       15.9994           0
   21498 TIP3 4531 TIP3 H1   HT     0.417000        1.0080           0
   21499 TIP3 4531 TIP3 H2   HT     0.417000        1.0080           0
   21500 TIP3 4532 TIP3 OH2  OT    -0.834000       15.9994           0
   21501 TIP3 4532 TIP3 H1   HT     0.417000        1.0080           0
   21502 TIP3 4532 TIP3 H2   HT     0.417000        1.0080           0
   21503 TIP3 4533 TIP3 OH2  OT    -0.834000       15.9994           0
   21504 TIP3 4533 TIP3 H1   HT     0.417000        1.0080           0
   21505 TIP3 4533 TIP3 H2   HT     0.417000        1.0080           0
   21506 TIP3 4534 TIP3 OH2  OT    -0.834000       15.9994           0
   21507 TIP3 4534 TIP3 H1   HT     0.417000        1.0080           0
   21508 TIP3 4534 TIP3 H2   HT     0.417000        1.0080           0
   21509 TIP3 4535 TIP3 OH2  OT    -0.834000       15.9994           0
   21510 TIP3 4535 TIP3 H1   HT     0.417000        1.0080           0
   21511 TIP3 4535 TIP3 H2   HT     0.417000        1.0080           0
   21512 TIP3 4536 TIP3 OH2  OT    -0.834000       15.9994           0
   21513 TIP3 4536 TIP3 H1   HT     0.417000        1.0080           0
   21514 TIP3 4536 TIP3 H2   HT     0.417000        1.0080           0
   21515 TIP3 4537 TIP3 OH2  OT    -0.834000       15.9994           0
   21516 TIP3 4537 TIP3 H1   HT     0.417000        1.0080           0
   21517 TIP3 4537 TIP3 H2   HT     0.417000        1.0080           0
   21518 TIP3 4538 TIP3 OH2  OT    -0.834000       15.9994           0
   21519 TIP3 4538 TIP3 H1   HT     0.417000        1.0080           0
   21520 TIP3 4538 TIP3 H2   HT     0.417000        1.0080           0
   21521 TIP3 4539 TIP3 OH2  OT    -0.834000       15.9994           0
   21522 TIP3 4539 TIP3 H1   HT     0.417000        1.0080           0
   21523 TIP3 4539 TIP3 H2   HT     0.417000        1.0080           0
   21524 TIP3 4540 TIP3 OH2  OT    -0.834000       15.9994           0
   21525 TIP3 4540 TIP3 H1   HT     0.417000        1.0080           0
   21526 TIP3 4540 TIP3 H2   HT     0.417000        1.0080           0
   21527 TIP3 4541 TIP3 OH2  OT    -0.834000       15.9994           0
   21528 TIP3 4541 TIP3 H1   HT     0.417000        1.0080           0
   21529 TIP3 4541 TIP3 H2   HT     0.417000        1.0080           0
   21530 TIP3 4542 TIP3 OH2  OT    -0.834000       15.9994           0
   21531 TIP3 4542 TIP3 H1   HT     0.417000        1.0080           0
   21532 TIP3 4542 TIP3 H2   HT     0.417000        1.0080           0
   21533 TIP3 4543 TIP3 OH2  OT    -0.834000       15.9994           0
   21534 TIP3 4543 TIP3 H1   HT     0.417000        1.0080           0
   21535 TIP3 4543 TIP3 H2   HT     0.417000        1.0080           0
   21536 TIP3 4544 TIP3 OH2  OT    -0.834000       15.9994           0
   21537 TIP3 4544 TIP3 H1   HT     0.417000        1.0080           0
   21538 TIP3 4544 TIP3 H2   HT     0.417000        1.0080           0
   21539 TIP3 4545 TIP3 OH2  OT    -0.834000       15.9994           0
   21540 TIP3 4545 TIP3 H1   HT     0.417000        1.0080           0
   21541 TIP3 4545 TIP3 H2   HT     0.417000        1.0080           0
   21542 TIP3 4546 TIP3 OH2  OT    -0.834000       15.9994           0
   21543 TIP3 4546 TIP3 H1   HT     0.417000        1.0080           0
   21544 TIP3 4546 TIP3 H2   HT     0.417000        1.0080           0
   21545 TIP3 4547 TIP3 OH2  OT    -0.834000       15.9994           0
   21546 TIP3 4547 TIP3 H1   HT     0.417000        1.0080           0
   21547 TIP3 4547 TIP3 H2   HT     0.417000        1.0080           0
   21548 TIP3 4548 TIP3 OH2  OT    -0.834000       15.9994           0
   21549 TIP3 4548 TIP3 H1   HT     0.417000        1.0080           0
   21550 TIP3 4548 TIP3 H2   HT     0.417000        1.0080           0
   21551 TIP3 4549 TIP3 OH2  OT    -0.834000       15.9994           0
   21552 TIP3 4549 TIP3 H1   HT     0.417000        1.0080           0
   21553 TIP3 4549 TIP3 H2   HT     0.417000        1.0080           0
   21554 TIP3 4550 TIP3 OH2  OT    -0.834000       15.9994           0
   21555 TIP3 4550 TIP3 H1   HT     0.417000        1.0080           0
   21556 TIP3 4550 TIP3 H2   HT     0.417000        1.0080           0
   21557 TIP3 4551 TIP3 OH2  OT    -0.834000       15.9994           0
   21558 TIP3 4551 TIP3 H1   HT     0.417000        1.0080           0
   21559 TIP3 4551 TIP3 H2   HT     0.417000        1.0080           0
   21560 TIP3 4552 TIP3 OH2  OT    -0.834000       15.9994           0
   21561 TIP3 4552 TIP3 H1   HT     0.417000        1.0080           0
   21562 TIP3 4552 TIP3 H2   HT     0.417000        1.0080           0
   21563 TIP3 4553 TIP3 OH2  OT    -0.834000       15.9994           0
   21564 TIP3 4553 TIP3 H1   HT     0.417000        1.0080           0
   21565 TIP3 4553 TIP3 H2   HT     0.417000        1.0080           0
   21566 TIP3 4554 TIP3 OH2  OT    -0.834000       15.9994           0
   21567 TIP3 4554 TIP3 H1   HT     0.417000        1.0080           0
   21568 TIP3 4554 TIP3 H2   HT     0.417000        1.0080           0
   21569 TIP3 4555 TIP3 OH2  OT    -0.834000       15.9994           0
   21570 TIP3 4555 TIP3 H1   HT     0.417000        1.0080           0
   21571 TIP3 4555 TIP3 H2   HT     0.417000        1.0080           0
   21572 TIP3 4556 TIP3 OH2  OT    -0.834000       15.9994           0
   21573 TIP3 4556 TIP3 H1   HT     0.417000        1.0080           0
   21574 TIP3 4556 TIP3 H2   HT     0.417000        1.0080           0
   21575 TIP3 4557 TIP3 OH2  OT    -0.834000       15.9994           0
   21576 TIP3 4557 TIP3 H1   HT     0.417000        1.0080           0
   21577 TIP3 4557 TIP3 H2   HT     0.417000        1.0080           0
   21578 TIP3 4558 TIP3 OH2  OT    -0.834000       15.9994           0
   21579 TIP3 4558 TIP3 H1   HT     0.417000        1.0080           0
   21580 TIP3 4558 TIP3 H2   HT     0.417000        1.0080           0
   21581 TIP3 4559 TIP3 OH2  OT    -0.834000       15.9994           0
   21582 TIP3 4559 TIP3 H1   HT     0.417000        1.0080           0
   21583 TIP3 4559 TIP3 H2   HT     0.417000        1.0080           0
   21584 TIP3 4560 TIP3 OH2  OT    -0.834000       15.9994           0
   21585 TIP3 4560 TIP3 H1   HT     0.417000        1.0080           0
   21586 TIP3 4560 TIP3 H2   HT     0.417000        1.0080           0
   21587 TIP3 4561 TIP3 OH2  OT    -0.834000       15.9994           0
   21588 TIP3 4561 TIP3 H1   HT     0.417000        1.0080           0
   21589 TIP3 4561 TIP3 H2   HT     0.417000        1.0080           0
   21590 TIP3 4562 TIP3 OH2  OT    -0.834000       15.9994           0
   21591 TIP3 4562 TIP3 H1   HT     0.417000        1.0080           0
   21592 TIP3 4562 TIP3 H2   HT     0.417000        1.0080           0
   21593 TIP3 4563 TIP3 OH2  OT    -0.834000       15.9994           0
   21594 TIP3 4563 TIP3 H1   HT     0.417000        1.0080           0
   21595 TIP3 4563 TIP3 H2   HT     0.417000        1.0080           0
   21596 TIP3 4564 TIP3 OH2  OT    -0.834000       15.9994           0
   21597 TIP3 4564 TIP3 H1   HT     0.417000        1.0080           0
   21598 TIP3 4564 TIP3 H2   HT     0.417000        1.0080           0
   21599 TIP3 4565 TIP3 OH2  OT    -0.834000       15.9994           0
   21600 TIP3 4565 TIP3 H1   HT     0.417000        1.0080           0
   21601 TIP3 4565 TIP3 H2   HT     0.417000        1.0080           0
   21602 TIP3 4566 TIP3 OH2  OT    -0.834000       15.9994           0
   21603 TIP3 4566 TIP3 H1   HT     0.417000        1.0080           0
   21604 TIP3 4566 TIP3 H2   HT     0.417000        1.0080           0
   21605 TIP3 4567 TIP3 OH2  OT    -0.834000       15.9994           0
   21606 TIP3 4567 TIP3 H1   HT     0.417000        1.0080           0
   21607 TIP3 4567 TIP3 H2   HT     0.417000        1.0080           0
   21608 TIP3 4568 TIP3 OH2  OT    -0.834000       15.9994           0
   21609 TIP3 4568 TIP3 H1   HT     0.417000        1.0080           0
   21610 TIP3 4568 TIP3 H2   HT     0.417000        1.0080           0
   21611 TIP3 4569 TIP3 OH2  OT    -0.834000       15.9994           0
   21612 TIP3 4569 TIP3 H1   HT     0.417000        1.0080           0
   21613 TIP3 4569 TIP3 H2   HT     0.417000        1.0080           0
   21614 TIP3 4570 TIP3 OH2  OT    -0.834000       15.9994           0
   21615 TIP3 4570 TIP3 H1   HT     0.417000        1.0080           0
   21616 TIP3 4570 TIP3 H2   HT     0.417000        1.0080           0
   21617 TIP3 4571 TIP3 OH2  OT    -0.834000       15.9994           0
   21618 TIP3 4571 TIP3 H1   HT     0.417000        1.0080           0
   21619 TIP3 4571 TIP3 H2   HT     0.417000        1.0080           0
   21620 TIP3 4572 TIP3 OH2  OT    -0.834000       15.9994           0
   21621 TIP3 4572 TIP3 H1   HT     0.417000        1.0080           0
   21622 TIP3 4572 TIP3 H2   HT     0.417000        1.0080           0
   21623 TIP3 4573 TIP3 OH2  OT    -0.834000       15.9994           0
   21624 TIP3 4573 TIP3 H1   HT     0.417000        1.0080           0
   21625 TIP3 4573 TIP3 H2   HT     0.417000        1.0080           0
   21626 TIP3 4574 TIP3 OH2  OT    -0.834000       15.9994           0
   21627 TIP3 4574 TIP3 H1   HT     0.417000        1.0080           0
   21628 TIP3 4574 TIP3 H2   HT     0.417000        1.0080           0
   21629 TIP3 4575 TIP3 OH2  OT    -0.834000       15.9994           0
   21630 TIP3 4575 TIP3 H1   HT     0.417000        1.0080           0
   21631 TIP3 4575 TIP3 H2   HT     0.417000        1.0080           0
   21632 TIP3 4576 TIP3 OH2  OT    -0.834000       15.9994           0
   21633 TIP3 4576 TIP3 H1   HT     0.417000        1.0080           0
   21634 TIP3 4576 TIP3 H2   HT     0.417000        1.0080           0
   21635 TIP3 4577 TIP3 OH2  OT    -0.834000       15.9994           0
   21636 TIP3 4577 TIP3 H1   HT     0.417000        1.0080           0
   21637 TIP3 4577 TIP3 H2   HT     0.417000        1.0080           0
   21638 TIP3 4578 TIP3 OH2  OT    -0.834000       15.9994           0
   21639 TIP3 4578 TIP3 H1   HT     0.417000        1.0080           0
   21640 TIP3 4578 TIP3 H2   HT     0.417000        1.0080           0
   21641 TIP3 4579 TIP3 OH2  OT    -0.834000       15.9994           0
   21642 TIP3 4579 TIP3 H1   HT     0.417000        1.0080           0
   21643 TIP3 4579 TIP3 H2   HT     0.417000        1.0080           0
   21644 TIP3 4580 TIP3 OH2  OT    -0.834000       15.9994           0
   21645 TIP3 4580 TIP3 H1   HT     0.417000        1.0080           0
   21646 TIP3 4580 TIP3 H2   HT     0.417000        1.0080           0
   21647 TIP3 4581 TIP3 OH2  OT    -0.834000       15.9994           0
   21648 TIP3 4581 TIP3 H1   HT     0.417000        1.0080           0
   21649 TIP3 4581 TIP3 H2   HT     0.417000        1.0080           0
   21650 TIP3 4582 TIP3 OH2  OT    -0.834000       15.9994           0
   21651 TIP3 4582 TIP3 H1   HT     0.417000        1.0080           0
   21652 TIP3 4582 TIP3 H2   HT     0.417000        1.0080           0
   21653 TIP3 4583 TIP3 OH2  OT    -0.834000       15.9994           0
   21654 TIP3 4583 TIP3 H1   HT     0.417000        1.0080           0
   21655 TIP3 4583 TIP3 H2   HT     0.417000        1.0080           0
   21656 TIP3 4584 TIP3 OH2  OT    -0.834000       15.9994           0
   21657 TIP3 4584 TIP3 H1   HT     0.417000        1.0080           0
   21658 TIP3 4584 TIP3 H2   HT     0.417000        1.0080           0
   21659 TIP3 4585 TIP3 OH2  OT    -0.834000       15.9994           0
   21660 TIP3 4585 TIP3 H1   HT     0.417000        1.0080           0
   21661 TIP3 4585 TIP3 H2   HT     0.417000        1.0080           0
   21662 TIP3 4586 TIP3 OH2  OT    -0.834000       15.9994           0
   21663 TIP3 4586 TIP3 H1   HT     0.417000        1.0080           0
   21664 TIP3 4586 TIP3 H2   HT     0.417000        1.0080           0
   21665 TIP3 4587 TIP3 OH2  OT    -0.834000       15.9994           0
   21666 TIP3 4587 TIP3 H1   HT     0.417000        1.0080           0
   21667 TIP3 4587 TIP3 H2   HT     0.417000        1.0080           0
   21668 TIP3 4588 TIP3 OH2  OT    -0.834000       15.9994           0
   21669 TIP3 4588 TIP3 H1   HT     0.417000        1.0080           0
   21670 TIP3 4588 TIP3 H2   HT     0.417000        1.0080           0
   21671 TIP3 4589 TIP3 OH2  OT    -0.834000       15.9994           0
   21672 TIP3 4589 TIP3 H1   HT     0.417000        1.0080           0
   21673 TIP3 4589 TIP3 H2   HT     0.417000        1.0080           0
   21674 TIP3 4590 TIP3 OH2  OT    -0.834000       15.9994           0
   21675 TIP3 4590 TIP3 H1   HT     0.417000        1.0080           0
   21676 TIP3 4590 TIP3 H2   HT     0.417000        1.0080           0
   21677 TIP3 4591 TIP3 OH2  OT    -0.834000       15.9994           0
   21678 TIP3 4591 TIP3 H1   HT     0.417000        1.0080           0
   21679 TIP3 4591 TIP3 H2   HT     0.417000        1.0080           0
   21680 TIP3 4592 TIP3 OH2  OT    -0.834000       15.9994           0
   21681 TIP3 4592 TIP3 H1   HT     0.417000        1.0080           0
   21682 TIP3 4592 TIP3 H2   HT     0.417000        1.0080           0
   21683 TIP3 4593 TIP3 OH2  OT    -0.834000       15.9994           0
   21684 TIP3 4593 TIP3 H1   HT     0.417000        1.0080           0
   21685 TIP3 4593 TIP3 H2   HT     0.417000        1.0080           0
   21686 TIP3 4594 TIP3 OH2  OT    -0.834000       15.9994           0
   21687 TIP3 4594 TIP3 H1   HT     0.417000        1.0080           0
   21688 TIP3 4594 TIP3 H2   HT     0.417000        1.0080           0
   21689 TIP3 4595 TIP3 OH2  OT    -0.834000       15.9994           0
   21690 TIP3 4595 TIP3 H1   HT     0.417000        1.0080           0
   21691 TIP3 4595 TIP3 H2   HT     0.417000        1.0080           0
   21692 TIP3 4596 TIP3 OH2  OT    -0.834000       15.9994           0
   21693 TIP3 4596 TIP3 H1   HT     0.417000        1.0080           0
   21694 TIP3 4596 TIP3 H2   HT     0.417000        1.0080           0
   21695 TIP3 4597 TIP3 OH2  OT    -0.834000       15.9994           0
   21696 TIP3 4597 TIP3 H1   HT     0.417000        1.0080           0
   21697 TIP3 4597 TIP3 H2   HT     0.417000        1.0080           0
   21698 TIP3 4598 TIP3 OH2  OT    -0.834000       15.9994           0
   21699 TIP3 4598 TIP3 H1   HT     0.417000        1.0080           0
   21700 TIP3 4598 TIP3 H2   HT     0.417000        1.0080           0
   21701 TIP3 4599 TIP3 OH2  OT    -0.834000       15.9994           0
   21702 TIP3 4599 TIP3 H1   HT     0.417000        1.0080           0
   21703 TIP3 4599 TIP3 H2   HT     0.417000        1.0080           0
   21704 TIP3 4600 TIP3 OH2  OT    -0.834000       15.9994           0
   21705 TIP3 4600 TIP3 H1   HT     0.417000        1.0080           0
   21706 TIP3 4600 TIP3 H2   HT     0.417000        1.0080           0
   21707 TIP3 4601 TIP3 OH2  OT    -0.834000       15.9994           0
   21708 TIP3 4601 TIP3 H1   HT     0.417000        1.0080           0
   21709 TIP3 4601 TIP3 H2   HT     0.417000        1.0080           0
   21710 TIP3 4602 TIP3 OH2  OT    -0.834000       15.9994           0
   21711 TIP3 4602 TIP3 H1   HT     0.417000        1.0080           0
   21712 TIP3 4602 TIP3 H2   HT     0.417000        1.0080           0
   21713 TIP3 4603 TIP3 OH2  OT    -0.834000       15.9994           0
   21714 TIP3 4603 TIP3 H1   HT     0.417000        1.0080           0
   21715 TIP3 4603 TIP3 H2   HT     0.417000        1.0080           0
   21716 TIP3 4604 TIP3 OH2  OT    -0.834000       15.9994           0
   21717 TIP3 4604 TIP3 H1   HT     0.417000        1.0080           0
   21718 TIP3 4604 TIP3 H2   HT     0.417000        1.0080           0
   21719 TIP3 4605 TIP3 OH2  OT    -0.834000       15.9994           0
   21720 TIP3 4605 TIP3 H1   HT     0.417000        1.0080           0
   21721 TIP3 4605 TIP3 H2   HT     0.417000        1.0080           0
   21722 TIP3 4606 TIP3 OH2  OT    -0.834000       15.9994           0
   21723 TIP3 4606 TIP3 H1   HT     0.417000        1.0080           0
   21724 TIP3 4606 TIP3 H2   HT     0.417000        1.0080           0
   21725 TIP3 4607 TIP3 OH2  OT    -0.834000       15.9994           0
   21726 TIP3 4607 TIP3 H1   HT     0.417000        1.0080           0
   21727 TIP3 4607 TIP3 H2   HT     0.417000        1.0080           0
   21728 TIP3 4608 TIP3 OH2  OT    -0.834000       15.9994           0
   21729 TIP3 4608 TIP3 H1   HT     0.417000        1.0080           0
   21730 TIP3 4608 TIP3 H2   HT     0.417000        1.0080           0
   21731 TIP3 4609 TIP3 OH2  OT    -0.834000       15.9994           0
   21732 TIP3 4609 TIP3 H1   HT     0.417000        1.0080           0
   21733 TIP3 4609 TIP3 H2   HT     0.417000        1.0080           0
   21734 TIP3 4610 TIP3 OH2  OT    -0.834000       15.9994           0
   21735 TIP3 4610 TIP3 H1   HT     0.417000        1.0080           0
   21736 TIP3 4610 TIP3 H2   HT     0.417000        1.0080           0
   21737 TIP3 4611 TIP3 OH2  OT    -0.834000       15.9994           0
   21738 TIP3 4611 TIP3 H1   HT     0.417000        1.0080           0
   21739 TIP3 4611 TIP3 H2   HT     0.417000        1.0080           0
   21740 TIP3 4612 TIP3 OH2  OT    -0.834000       15.9994           0
   21741 TIP3 4612 TIP3 H1   HT     0.417000        1.0080           0
   21742 TIP3 4612 TIP3 H2   HT     0.417000        1.0080           0
   21743 TIP3 4613 TIP3 OH2  OT    -0.834000       15.9994           0
   21744 TIP3 4613 TIP3 H1   HT     0.417000        1.0080           0
   21745 TIP3 4613 TIP3 H2   HT     0.417000        1.0080           0
   21746 TIP3 4614 TIP3 OH2  OT    -0.834000       15.9994           0
   21747 TIP3 4614 TIP3 H1   HT     0.417000        1.0080           0
   21748 TIP3 4614 TIP3 H2   HT     0.417000        1.0080           0
   21749 TIP3 4615 TIP3 OH2  OT    -0.834000       15.9994           0
   21750 TIP3 4615 TIP3 H1   HT     0.417000        1.0080           0
   21751 TIP3 4615 TIP3 H2   HT     0.417000        1.0080           0
   21752 TIP3 4616 TIP3 OH2  OT    -0.834000       15.9994           0
   21753 TIP3 4616 TIP3 H1   HT     0.417000        1.0080           0
   21754 TIP3 4616 TIP3 H2   HT     0.417000        1.0080           0
   21755 TIP3 4617 TIP3 OH2  OT    -0.834000       15.9994           0
   21756 TIP3 4617 TIP3 H1   HT     0.417000        1.0080           0
   21757 TIP3 4617 TIP3 H2   HT     0.417000        1.0080           0
   21758 TIP3 4618 TIP3 OH2  OT    -0.834000       15.9994           0
   21759 TIP3 4618 TIP3 H1   HT     0.417000        1.0080           0
   21760 TIP3 4618 TIP3 H2   HT     0.417000        1.0080           0
   21761 TIP3 4619 TIP3 OH2  OT    -0.834000       15.9994           0
   21762 TIP3 4619 TIP3 H1   HT     0.417000        1.0080           0
   21763 TIP3 4619 TIP3 H2   HT     0.417000        1.0080           0
   21764 TIP3 4620 TIP3 OH2  OT    -0.834000       15.9994           0
   21765 TIP3 4620 TIP3 H1   HT     0.417000        1.0080           0
   21766 TIP3 4620 TIP3 H2   HT     0.417000        1.0080           0
   21767 TIP3 4621 TIP3 OH2  OT    -0.834000       15.9994           0
   21768 TIP3 4621 TIP3 H1   HT     0.417000        1.0080           0
   21769 TIP3 4621 TIP3 H2   HT     0.417000        1.0080           0
   21770 TIP3 4622 TIP3 OH2  OT    -0.834000       15.9994           0
   21771 TIP3 4622 TIP3 H1   HT     0.417000        1.0080           0
   21772 TIP3 4622 TIP3 H2   HT     0.417000        1.0080           0
   21773 TIP3 4623 TIP3 OH2  OT    -0.834000       15.9994           0
   21774 TIP3 4623 TIP3 H1   HT     0.417000        1.0080           0
   21775 TIP3 4623 TIP3 H2   HT     0.417000        1.0080           0
   21776 TIP3 4624 TIP3 OH2  OT    -0.834000       15.9994           0
   21777 TIP3 4624 TIP3 H1   HT     0.417000        1.0080           0
   21778 TIP3 4624 TIP3 H2   HT     0.417000        1.0080           0
   21779 TIP3 4625 TIP3 OH2  OT    -0.834000       15.9994           0
   21780 TIP3 4625 TIP3 H1   HT     0.417000        1.0080           0
   21781 TIP3 4625 TIP3 H2   HT     0.417000        1.0080           0
   21782 TIP3 4626 TIP3 OH2  OT    -0.834000       15.9994           0
   21783 TIP3 4626 TIP3 H1   HT     0.417000        1.0080           0
   21784 TIP3 4626 TIP3 H2   HT     0.417000        1.0080           0
   21785 TIP3 4627 TIP3 OH2  OT    -0.834000       15.9994           0
   21786 TIP3 4627 TIP3 H1   HT     0.417000        1.0080           0
   21787 TIP3 4627 TIP3 H2   HT     0.417000        1.0080           0
   21788 TIP3 4628 TIP3 OH2  OT    -0.834000       15.9994           0
   21789 TIP3 4628 TIP3 H1   HT     0.417000        1.0080           0
   21790 TIP3 4628 TIP3 H2   HT     0.417000        1.0080           0
   21791 TIP3 4629 TIP3 OH2  OT    -0.834000       15.9994           0
   21792 TIP3 4629 TIP3 H1   HT     0.417000        1.0080           0
   21793 TIP3 4629 TIP3 H2   HT     0.417000        1.0080           0
   21794 TIP3 4630 TIP3 OH2  OT    -0.834000       15.9994           0
   21795 TIP3 4630 TIP3 H1   HT     0.417000        1.0080           0
   21796 TIP3 4630 TIP3 H2   HT     0.417000        1.0080           0
   21797 TIP3 4631 TIP3 OH2  OT    -0.834000       15.9994           0
   21798 TIP3 4631 TIP3 H1   HT     0.417000        1.0080           0
   21799 TIP3 4631 TIP3 H2   HT     0.417000        1.0080           0
   21800 TIP3 4632 TIP3 OH2  OT    -0.834000       15.9994           0
   21801 TIP3 4632 TIP3 H1   HT     0.417000        1.0080           0
   21802 TIP3 4632 TIP3 H2   HT     0.417000        1.0080           0
   21803 TIP3 4633 TIP3 OH2  OT    -0.834000       15.9994           0
   21804 TIP3 4633 TIP3 H1   HT     0.417000        1.0080           0
   21805 TIP3 4633 TIP3 H2   HT     0.417000        1.0080           0
   21806 TIP3 4634 TIP3 OH2  OT    -0.834000       15.9994           0
   21807 TIP3 4634 TIP3 H1   HT     0.417000        1.0080           0
   21808 TIP3 4634 TIP3 H2   HT     0.417000        1.0080           0
   21809 TIP3 4635 TIP3 OH2  OT    -0.834000       15.9994           0
   21810 TIP3 4635 TIP3 H1   HT     0.417000        1.0080           0
   21811 TIP3 4635 TIP3 H2   HT     0.417000        1.0080           0
   21812 TIP3 4636 TIP3 OH2  OT    -0.834000       15.9994           0
   21813 TIP3 4636 TIP3 H1   HT     0.417000        1.0080           0
   21814 TIP3 4636 TIP3 H2   HT     0.417000        1.0080           0
   21815 TIP3 4637 TIP3 OH2  OT    -0.834000       15.9994           0
   21816 TIP3 4637 TIP3 H1   HT     0.417000        1.0080           0
   21817 TIP3 4637 TIP3 H2   HT     0.417000        1.0080           0
   21818 TIP3 4638 TIP3 OH2  OT    -0.834000       15.9994           0
   21819 TIP3 4638 TIP3 H1   HT     0.417000        1.0080           0
   21820 TIP3 4638 TIP3 H2   HT     0.417000        1.0080           0
   21821 TIP3 4639 TIP3 OH2  OT    -0.834000       15.9994           0
   21822 TIP3 4639 TIP3 H1   HT     0.417000        1.0080           0
   21823 TIP3 4639 TIP3 H2   HT     0.417000        1.0080           0
   21824 TIP3 4640 TIP3 OH2  OT    -0.834000       15.9994           0
   21825 TIP3 4640 TIP3 H1   HT     0.417000        1.0080           0
   21826 TIP3 4640 TIP3 H2   HT     0.417000        1.0080           0
   21827 TIP3 4641 TIP3 OH2  OT    -0.834000       15.9994           0
   21828 TIP3 4641 TIP3 H1   HT     0.417000        1.0080           0
   21829 TIP3 4641 TIP3 H2   HT     0.417000        1.0080           0
   21830 TIP3 4642 TIP3 OH2  OT    -0.834000       15.9994           0
   21831 TIP3 4642 TIP3 H1   HT     0.417000        1.0080           0
   21832 TIP3 4642 TIP3 H2   HT     0.417000        1.0080           0
   21833 TIP3 4643 TIP3 OH2  OT    -0.834000       15.9994           0
   21834 TIP3 4643 TIP3 H1   HT     0.417000        1.0080           0
   21835 TIP3 4643 TIP3 H2   HT     0.417000        1.0080           0
   21836 TIP3 4644 TIP3 OH2  OT    -0.834000       15.9994           0
   21837 TIP3 4644 TIP3 H1   HT     0.417000        1.0080           0
   21838 TIP3 4644 TIP3 H2   HT     0.417000        1.0080           0
   21839 TIP3 4645 TIP3 OH2  OT    -0.834000       15.9994           0
   21840 TIP3 4645 TIP3 H1   HT     0.417000        1.0080           0
   21841 TIP3 4645 TIP3 H2   HT     0.417000        1.0080           0
   21842 TIP3 4646 TIP3 OH2  OT    -0.834000       15.9994           0
   21843 TIP3 4646 TIP3 H1   HT     0.417000        1.0080           0
   21844 TIP3 4646 TIP3 H2   HT     0.417000        1.0080           0
   21845 TIP3 4647 TIP3 OH2  OT    -0.834000       15.9994           0
   21846 TIP3 4647 TIP3 H1   HT     0.417000        1.0080           0
   21847 TIP3 4647 TIP3 H2   HT     0.417000        1.0080           0
   21848 TIP3 4648 TIP3 OH2  OT    -0.834000       15.9994           0
   21849 TIP3 4648 TIP3 H1   HT     0.417000        1.0080           0
   21850 TIP3 4648 TIP3 H2   HT     0.417000        1.0080           0
   21851 TIP3 4649 TIP3 OH2  OT    -0.834000       15.9994           0
   21852 TIP3 4649 TIP3 H1   HT     0.417000        1.0080           0
   21853 TIP3 4649 TIP3 H2   HT     0.417000        1.0080           0
   21854 TIP3 4650 TIP3 OH2  OT    -0.834000       15.9994           0
   21855 TIP3 4650 TIP3 H1   HT     0.417000        1.0080           0
   21856 TIP3 4650 TIP3 H2   HT     0.417000        1.0080           0
   21857 TIP3 4651 TIP3 OH2  OT    -0.834000       15.9994           0
   21858 TIP3 4651 TIP3 H1   HT     0.417000        1.0080           0
   21859 TIP3 4651 TIP3 H2   HT     0.417000        1.0080           0
   21860 TIP3 4652 TIP3 OH2  OT    -0.834000       15.9994           0
   21861 TIP3 4652 TIP3 H1   HT     0.417000        1.0080           0
   21862 TIP3 4652 TIP3 H2   HT     0.417000        1.0080           0
   21863 TIP3 4653 TIP3 OH2  OT    -0.834000       15.9994           0
   21864 TIP3 4653 TIP3 H1   HT     0.417000        1.0080           0
   21865 TIP3 4653 TIP3 H2   HT     0.417000        1.0080           0
   21866 TIP3 4654 TIP3 OH2  OT    -0.834000       15.9994           0
   21867 TIP3 4654 TIP3 H1   HT     0.417000        1.0080           0
   21868 TIP3 4654 TIP3 H2   HT     0.417000        1.0080           0
   21869 TIP3 4655 TIP3 OH2  OT    -0.834000       15.9994           0
   21870 TIP3 4655 TIP3 H1   HT     0.417000        1.0080           0
   21871 TIP3 4655 TIP3 H2   HT     0.417000        1.0080           0
   21872 TIP3 4656 TIP3 OH2  OT    -0.834000       15.9994           0
   21873 TIP3 4656 TIP3 H1   HT     0.417000        1.0080           0
   21874 TIP3 4656 TIP3 H2   HT     0.417000        1.0080           0
   21875 TIP3 4657 TIP3 OH2  OT    -0.834000       15.9994           0
   21876 TIP3 4657 TIP3 H1   HT     0.417000        1.0080           0
   21877 TIP3 4657 TIP3 H2   HT     0.417000        1.0080           0
   21878 TIP3 4658 TIP3 OH2  OT    -0.834000       15.9994           0
   21879 TIP3 4658 TIP3 H1   HT     0.417000        1.0080           0
   21880 TIP3 4658 TIP3 H2   HT     0.417000        1.0080           0
   21881 TIP3 4659 TIP3 OH2  OT    -0.834000       15.9994           0
   21882 TIP3 4659 TIP3 H1   HT     0.417000        1.0080           0
   21883 TIP3 4659 TIP3 H2   HT     0.417000        1.0080           0
   21884 TIP3 4660 TIP3 OH2  OT    -0.834000       15.9994           0
   21885 TIP3 4660 TIP3 H1   HT     0.417000        1.0080           0
   21886 TIP3 4660 TIP3 H2   HT     0.417000        1.0080           0
   21887 TIP3 4661 TIP3 OH2  OT    -0.834000       15.9994           0
   21888 TIP3 4661 TIP3 H1   HT     0.417000        1.0080           0
   21889 TIP3 4661 TIP3 H2   HT     0.417000        1.0080           0
   21890 TIP3 4662 TIP3 OH2  OT    -0.834000       15.9994           0
   21891 TIP3 4662 TIP3 H1   HT     0.417000        1.0080           0
   21892 TIP3 4662 TIP3 H2   HT     0.417000        1.0080           0
   21893 TIP3 4663 TIP3 OH2  OT    -0.834000       15.9994           0
   21894 TIP3 4663 TIP3 H1   HT     0.417000        1.0080           0
   21895 TIP3 4663 TIP3 H2   HT     0.417000        1.0080           0
   21896 TIP3 4664 TIP3 OH2  OT    -0.834000       15.9994           0
   21897 TIP3 4664 TIP3 H1   HT     0.417000        1.0080           0
   21898 TIP3 4664 TIP3 H2   HT     0.417000        1.0080           0
   21899 TIP3 4665 TIP3 OH2  OT    -0.834000       15.9994           0
   21900 TIP3 4665 TIP3 H1   HT     0.417000        1.0080           0
   21901 TIP3 4665 TIP3 H2   HT     0.417000        1.0080           0
   21902 TIP3 4666 TIP3 OH2  OT    -0.834000       15.9994           0
   21903 TIP3 4666 TIP3 H1   HT     0.417000        1.0080           0
   21904 TIP3 4666 TIP3 H2   HT     0.417000        1.0080           0
   21905 TIP3 4667 TIP3 OH2  OT    -0.834000       15.9994           0
   21906 TIP3 4667 TIP3 H1   HT     0.417000        1.0080           0
   21907 TIP3 4667 TIP3 H2   HT     0.417000        1.0080           0
   21908 TIP3 4668 TIP3 OH2  OT    -0.834000       15.9994           0
   21909 TIP3 4668 TIP3 H1   HT     0.417000        1.0080           0
   21910 TIP3 4668 TIP3 H2   HT     0.417000        1.0080           0
   21911 TIP3 4669 TIP3 OH2  OT    -0.834000       15.9994           0
   21912 TIP3 4669 TIP3 H1   HT     0.417000        1.0080           0
   21913 TIP3 4669 TIP3 H2   HT     0.417000        1.0080           0
   21914 TIP3 4670 TIP3 OH2  OT    -0.834000       15.9994           0
   21915 TIP3 4670 TIP3 H1   HT     0.417000        1.0080           0
   21916 TIP3 4670 TIP3 H2   HT     0.417000        1.0080           0
   21917 TIP3 4671 TIP3 OH2  OT    -0.834000       15.9994           0
   21918 TIP3 4671 TIP3 H1   HT     0.417000        1.0080           0
   21919 TIP3 4671 TIP3 H2   HT     0.417000        1.0080           0
   21920 TIP3 4672 TIP3 OH2  OT    -0.834000       15.9994           0
   21921 TIP3 4672 TIP3 H1   HT     0.417000        1.0080           0
   21922 TIP3 4672 TIP3 H2   HT     0.417000        1.0080           0
   21923 TIP3 4673 TIP3 OH2  OT    -0.834000       15.9994           0
   21924 TIP3 4673 TIP3 H1   HT     0.417000        1.0080           0
   21925 TIP3 4673 TIP3 H2   HT     0.417000        1.0080           0
   21926 TIP3 4674 TIP3 OH2  OT    -0.834000       15.9994           0
   21927 TIP3 4674 TIP3 H1   HT     0.417000        1.0080           0
   21928 TIP3 4674 TIP3 H2   HT     0.417000        1.0080           0
   21929 TIP3 4675 TIP3 OH2  OT    -0.834000       15.9994           0
   21930 TIP3 4675 TIP3 H1   HT     0.417000        1.0080           0
   21931 TIP3 4675 TIP3 H2   HT     0.417000        1.0080           0
   21932 TIP3 4676 TIP3 OH2  OT    -0.834000       15.9994           0
   21933 TIP3 4676 TIP3 H1   HT     0.417000        1.0080           0
   21934 TIP3 4676 TIP3 H2   HT     0.417000        1.0080           0
   21935 TIP3 4677 TIP3 OH2  OT    -0.834000       15.9994           0
   21936 TIP3 4677 TIP3 H1   HT     0.417000        1.0080           0
   21937 TIP3 4677 TIP3 H2   HT     0.417000        1.0080           0
   21938 TIP3 4678 TIP3 OH2  OT    -0.834000       15.9994           0
   21939 TIP3 4678 TIP3 H1   HT     0.417000        1.0080           0
   21940 TIP3 4678 TIP3 H2   HT     0.417000        1.0080           0
   21941 TIP3 4679 TIP3 OH2  OT    -0.834000       15.9994           0
   21942 TIP3 4679 TIP3 H1   HT     0.417000        1.0080           0
   21943 TIP3 4679 TIP3 H2   HT     0.417000        1.0080           0
   21944 TIP3 4680 TIP3 OH2  OT    -0.834000       15.9994           0
   21945 TIP3 4680 TIP3 H1   HT     0.417000        1.0080           0
   21946 TIP3 4680 TIP3 H2   HT     0.417000        1.0080           0
   21947 TIP3 4681 TIP3 OH2  OT    -0.834000       15.9994           0
   21948 TIP3 4681 TIP3 H1   HT     0.417000        1.0080           0
   21949 TIP3 4681 TIP3 H2   HT     0.417000        1.0080           0
   21950 TIP3 4682 TIP3 OH2  OT    -0.834000       15.9994           0
   21951 TIP3 4682 TIP3 H1   HT     0.417000        1.0080           0
   21952 TIP3 4682 TIP3 H2   HT     0.417000        1.0080           0
   21953 TIP3 4683 TIP3 OH2  OT    -0.834000       15.9994           0
   21954 TIP3 4683 TIP3 H1   HT     0.417000        1.0080           0
   21955 TIP3 4683 TIP3 H2   HT     0.417000        1.0080           0
   21956 TIP3 4684 TIP3 OH2  OT    -0.834000       15.9994           0
   21957 TIP3 4684 TIP3 H1   HT     0.417000        1.0080           0
   21958 TIP3 4684 TIP3 H2   HT     0.417000        1.0080           0
   21959 TIP3 4685 TIP3 OH2  OT    -0.834000       15.9994           0
   21960 TIP3 4685 TIP3 H1   HT     0.417000        1.0080           0
   21961 TIP3 4685 TIP3 H2   HT     0.417000        1.0080           0
   21962 TIP3 4686 TIP3 OH2  OT    -0.834000       15.9994           0
   21963 TIP3 4686 TIP3 H1   HT     0.417000        1.0080           0
   21964 TIP3 4686 TIP3 H2   HT     0.417000        1.0080           0
   21965 TIP3 4687 TIP3 OH2  OT    -0.834000       15.9994           0
   21966 TIP3 4687 TIP3 H1   HT     0.417000        1.0080           0
   21967 TIP3 4687 TIP3 H2   HT     0.417000        1.0080           0
   21968 TIP3 4688 TIP3 OH2  OT    -0.834000       15.9994           0
   21969 TIP3 4688 TIP3 H1   HT     0.417000        1.0080           0
   21970 TIP3 4688 TIP3 H2   HT     0.417000        1.0080           0
   21971 TIP3 4689 TIP3 OH2  OT    -0.834000       15.9994           0
   21972 TIP3 4689 TIP3 H1   HT     0.417000        1.0080           0
   21973 TIP3 4689 TIP3 H2   HT     0.417000        1.0080           0
   21974 TIP3 4690 TIP3 OH2  OT    -0.834000       15.9994           0
   21975 TIP3 4690 TIP3 H1   HT     0.417000        1.0080           0
   21976 TIP3 4690 TIP3 H2   HT     0.417000        1.0080           0
   21977 TIP3 4691 TIP3 OH2  OT    -0.834000       15.9994           0
   21978 TIP3 4691 TIP3 H1   HT     0.417000        1.0080           0
   21979 TIP3 4691 TIP3 H2   HT     0.417000        1.0080           0
   21980 TIP3 4692 TIP3 OH2  OT    -0.834000       15.9994           0
   21981 TIP3 4692 TIP3 H1   HT     0.417000        1.0080           0
   21982 TIP3 4692 TIP3 H2   HT     0.417000        1.0080           0
   21983 TIP3 4693 TIP3 OH2  OT    -0.834000       15.9994           0
   21984 TIP3 4693 TIP3 H1   HT     0.417000        1.0080           0
   21985 TIP3 4693 TIP3 H2   HT     0.417000        1.0080           0
   21986 TIP3 4694 TIP3 OH2  OT    -0.834000       15.9994           0
   21987 TIP3 4694 TIP3 H1   HT     0.417000        1.0080           0
   21988 TIP3 4694 TIP3 H2   HT     0.417000        1.0080           0
   21989 TIP3 4695 TIP3 OH2  OT    -0.834000       15.9994           0
   21990 TIP3 4695 TIP3 H1   HT     0.417000        1.0080           0
   21991 TIP3 4695 TIP3 H2   HT     0.417000        1.0080           0
   21992 TIP3 4696 TIP3 OH2  OT    -0.834000       15.9994           0
   21993 TIP3 4696 TIP3 H1   HT     0.417000        1.0080           0
   21994 TIP3 4696 TIP3 H2   HT     0.417000        1.0080           0
   21995 TIP3 4697 TIP3 OH2  OT    -0.834000       15.9994           0
   21996 TIP3 4697 TIP3 H1   HT     0.417000        1.0080           0
   21997 TIP3 4697 TIP3 H2   HT     0.417000        1.0080           0
   21998 TIP3 4698 TIP3 OH2  OT    -0.834000       15.9994           0
   21999 TIP3 4698 TIP3 H1   HT     0.417000        1.0080           0
   22000 TIP3 4698 TIP3 H2   HT     0.417000        1.0080           0
   22001 TIP3 4699 TIP3 OH2  OT    -0.834000       15.9994           0
   22002 TIP3 4699 TIP3 H1   HT     0.417000        1.0080           0
   22003 TIP3 4699 TIP3 H2   HT     0.417000        1.0080           0
   22004 TIP3 4700 TIP3 OH2  OT    -0.834000       15.9994           0
   22005 TIP3 4700 TIP3 H1   HT     0.417000        1.0080           0
   22006 TIP3 4700 TIP3 H2   HT     0.417000        1.0080           0
   22007 TIP3 4701 TIP3 OH2  OT    -0.834000       15.9994           0
   22008 TIP3 4701 TIP3 H1   HT     0.417000        1.0080           0
   22009 TIP3 4701 TIP3 H2   HT     0.417000        1.0080           0
   22010 TIP3 4702 TIP3 OH2  OT    -0.834000       15.9994           0
   22011 TIP3 4702 TIP3 H1   HT     0.417000        1.0080           0
   22012 TIP3 4702 TIP3 H2   HT     0.417000        1.0080           0
   22013 TIP3 4703 TIP3 OH2  OT    -0.834000       15.9994           0
   22014 TIP3 4703 TIP3 H1   HT     0.417000        1.0080           0
   22015 TIP3 4703 TIP3 H2   HT     0.417000        1.0080           0
   22016 TIP3 4704 TIP3 OH2  OT    -0.834000       15.9994           0
   22017 TIP3 4704 TIP3 H1   HT     0.417000        1.0080           0
   22018 TIP3 4704 TIP3 H2   HT     0.417000        1.0080           0
   22019 TIP3 4705 TIP3 OH2  OT    -0.834000       15.9994           0
   22020 TIP3 4705 TIP3 H1   HT     0.417000        1.0080           0
   22021 TIP3 4705 TIP3 H2   HT     0.417000        1.0080           0
   22022 TIP3 4706 TIP3 OH2  OT    -0.834000       15.9994           0
   22023 TIP3 4706 TIP3 H1   HT     0.417000        1.0080           0
   22024 TIP3 4706 TIP3 H2   HT     0.417000        1.0080           0
   22025 TIP3 4707 TIP3 OH2  OT    -0.834000       15.9994           0
   22026 TIP3 4707 TIP3 H1   HT     0.417000        1.0080           0
   22027 TIP3 4707 TIP3 H2   HT     0.417000        1.0080           0
   22028 TIP3 4708 TIP3 OH2  OT    -0.834000       15.9994           0
   22029 TIP3 4708 TIP3 H1   HT     0.417000        1.0080           0
   22030 TIP3 4708 TIP3 H2   HT     0.417000        1.0080           0
   22031 TIP3 4709 TIP3 OH2  OT    -0.834000       15.9994           0
   22032 TIP3 4709 TIP3 H1   HT     0.417000        1.0080           0
   22033 TIP3 4709 TIP3 H2   HT     0.417000        1.0080           0
   22034 TIP3 4710 TIP3 OH2  OT    -0.834000       15.9994           0
   22035 TIP3 4710 TIP3 H1   HT     0.417000        1.0080           0
   22036 TIP3 4710 TIP3 H2   HT     0.417000        1.0080           0
   22037 TIP3 4711 TIP3 OH2  OT    -0.834000       15.9994           0
   22038 TIP3 4711 TIP3 H1   HT     0.417000        1.0080           0
   22039 TIP3 4711 TIP3 H2   HT     0.417000        1.0080           0
   22040 TIP3 4712 TIP3 OH2  OT    -0.834000       15.9994           0
   22041 TIP3 4712 TIP3 H1   HT     0.417000        1.0080           0
   22042 TIP3 4712 TIP3 H2   HT     0.417000        1.0080           0
   22043 TIP3 4713 TIP3 OH2  OT    -0.834000       15.9994           0
   22044 TIP3 4713 TIP3 H1   HT     0.417000        1.0080           0
   22045 TIP3 4713 TIP3 H2   HT     0.417000        1.0080           0
   22046 TIP3 4714 TIP3 OH2  OT    -0.834000       15.9994           0
   22047 TIP3 4714 TIP3 H1   HT     0.417000        1.0080           0
   22048 TIP3 4714 TIP3 H2   HT     0.417000        1.0080           0
   22049 TIP3 4715 TIP3 OH2  OT    -0.834000       15.9994           0
   22050 TIP3 4715 TIP3 H1   HT     0.417000        1.0080           0
   22051 TIP3 4715 TIP3 H2   HT     0.417000        1.0080           0
   22052 TIP3 4716 TIP3 OH2  OT    -0.834000       15.9994           0
   22053 TIP3 4716 TIP3 H1   HT     0.417000        1.0080           0
   22054 TIP3 4716 TIP3 H2   HT     0.417000        1.0080           0
   22055 TIP3 4717 TIP3 OH2  OT    -0.834000       15.9994           0
   22056 TIP3 4717 TIP3 H1   HT     0.417000        1.0080           0
   22057 TIP3 4717 TIP3 H2   HT     0.417000        1.0080           0
   22058 TIP3 4718 TIP3 OH2  OT    -0.834000       15.9994           0
   22059 TIP3 4718 TIP3 H1   HT     0.417000        1.0080           0
   22060 TIP3 4718 TIP3 H2   HT     0.417000        1.0080           0
   22061 TIP3 4719 TIP3 OH2  OT    -0.834000       15.9994           0
   22062 TIP3 4719 TIP3 H1   HT     0.417000        1.0080           0
   22063 TIP3 4719 TIP3 H2   HT     0.417000        1.0080           0
   22064 TIP3 4720 TIP3 OH2  OT    -0.834000       15.9994           0
   22065 TIP3 4720 TIP3 H1   HT     0.417000        1.0080           0
   22066 TIP3 4720 TIP3 H2   HT     0.417000        1.0080           0
   22067 TIP3 4721 TIP3 OH2  OT    -0.834000       15.9994           0
   22068 TIP3 4721 TIP3 H1   HT     0.417000        1.0080           0
   22069 TIP3 4721 TIP3 H2   HT     0.417000        1.0080           0
   22070 TIP3 4722 TIP3 OH2  OT    -0.834000       15.9994           0
   22071 TIP3 4722 TIP3 H1   HT     0.417000        1.0080           0
   22072 TIP3 4722 TIP3 H2   HT     0.417000        1.0080           0
   22073 TIP3 4723 TIP3 OH2  OT    -0.834000       15.9994           0
   22074 TIP3 4723 TIP3 H1   HT     0.417000        1.0080           0
   22075 TIP3 4723 TIP3 H2   HT     0.417000        1.0080           0
   22076 TIP3 4724 TIP3 OH2  OT    -0.834000       15.9994           0
   22077 TIP3 4724 TIP3 H1   HT     0.417000        1.0080           0
   22078 TIP3 4724 TIP3 H2   HT     0.417000        1.0080           0
   22079 TIP3 4725 TIP3 OH2  OT    -0.834000       15.9994           0
   22080 TIP3 4725 TIP3 H1   HT     0.417000        1.0080           0
   22081 TIP3 4725 TIP3 H2   HT     0.417000        1.0080           0
   22082 TIP3 4726 TIP3 OH2  OT    -0.834000       15.9994           0
   22083 TIP3 4726 TIP3 H1   HT     0.417000        1.0080           0
   22084 TIP3 4726 TIP3 H2   HT     0.417000        1.0080           0
   22085 TIP3 4727 TIP3 OH2  OT    -0.834000       15.9994           0
   22086 TIP3 4727 TIP3 H1   HT     0.417000        1.0080           0
   22087 TIP3 4727 TIP3 H2   HT     0.417000        1.0080           0
   22088 TIP3 4728 TIP3 OH2  OT    -0.834000       15.9994           0
   22089 TIP3 4728 TIP3 H1   HT     0.417000        1.0080           0
   22090 TIP3 4728 TIP3 H2   HT     0.417000        1.0080           0
   22091 TIP3 4729 TIP3 OH2  OT    -0.834000       15.9994           0
   22092 TIP3 4729 TIP3 H1   HT     0.417000        1.0080           0
   22093 TIP3 4729 TIP3 H2   HT     0.417000        1.0080           0
   22094 TIP3 4730 TIP3 OH2  OT    -0.834000       15.9994           0
   22095 TIP3 4730 TIP3 H1   HT     0.417000        1.0080           0
   22096 TIP3 4730 TIP3 H2   HT     0.417000        1.0080           0
   22097 TIP3 4731 TIP3 OH2  OT    -0.834000       15.9994           0
   22098 TIP3 4731 TIP3 H1   HT     0.417000        1.0080           0
   22099 TIP3 4731 TIP3 H2   HT     0.417000        1.0080           0
   22100 TIP3 4732 TIP3 OH2  OT    -0.834000       15.9994           0
   22101 TIP3 4732 TIP3 H1   HT     0.417000        1.0080           0
   22102 TIP3 4732 TIP3 H2   HT     0.417000        1.0080           0
   22103 TIP3 4733 TIP3 OH2  OT    -0.834000       15.9994           0
   22104 TIP3 4733 TIP3 H1   HT     0.417000        1.0080           0
   22105 TIP3 4733 TIP3 H2   HT     0.417000        1.0080           0
   22106 TIP3 4734 TIP3 OH2  OT    -0.834000       15.9994           0
   22107 TIP3 4734 TIP3 H1   HT     0.417000        1.0080           0
   22108 TIP3 4734 TIP3 H2   HT     0.417000        1.0080           0
   22109 TIP3 4735 TIP3 OH2  OT    -0.834000       15.9994           0
   22110 TIP3 4735 TIP3 H1   HT     0.417000        1.0080           0
   22111 TIP3 4735 TIP3 H2   HT     0.417000        1.0080           0
   22112 TIP3 4736 TIP3 OH2  OT    -0.834000       15.9994           0
   22113 TIP3 4736 TIP3 H1   HT     0.417000        1.0080           0
   22114 TIP3 4736 TIP3 H2   HT     0.417000        1.0080           0
   22115 TIP3 4737 TIP3 OH2  OT    -0.834000       15.9994           0
   22116 TIP3 4737 TIP3 H1   HT     0.417000        1.0080           0
   22117 TIP3 4737 TIP3 H2   HT     0.417000        1.0080           0
   22118 TIP3 4738 TIP3 OH2  OT    -0.834000       15.9994           0
   22119 TIP3 4738 TIP3 H1   HT     0.417000        1.0080           0
   22120 TIP3 4738 TIP3 H2   HT     0.417000        1.0080           0
   22121 TIP3 4739 TIP3 OH2  OT    -0.834000       15.9994           0
   22122 TIP3 4739 TIP3 H1   HT     0.417000        1.0080           0
   22123 TIP3 4739 TIP3 H2   HT     0.417000        1.0080           0
   22124 TIP3 4740 TIP3 OH2  OT    -0.834000       15.9994           0
   22125 TIP3 4740 TIP3 H1   HT     0.417000        1.0080           0
   22126 TIP3 4740 TIP3 H2   HT     0.417000        1.0080           0
   22127 TIP3 4741 TIP3 OH2  OT    -0.834000       15.9994           0
   22128 TIP3 4741 TIP3 H1   HT     0.417000        1.0080           0
   22129 TIP3 4741 TIP3 H2   HT     0.417000        1.0080           0
   22130 TIP3 4742 TIP3 OH2  OT    -0.834000       15.9994           0
   22131 TIP3 4742 TIP3 H1   HT     0.417000        1.0080           0
   22132 TIP3 4742 TIP3 H2   HT     0.417000        1.0080           0
   22133 TIP3 4743 TIP3 OH2  OT    -0.834000       15.9994           0
   22134 TIP3 4743 TIP3 H1   HT     0.417000        1.0080           0
   22135 TIP3 4743 TIP3 H2   HT     0.417000        1.0080           0
   22136 TIP3 4744 TIP3 OH2  OT    -0.834000       15.9994           0
   22137 TIP3 4744 TIP3 H1   HT     0.417000        1.0080           0
   22138 TIP3 4744 TIP3 H2   HT     0.417000        1.0080           0
   22139 TIP3 4745 TIP3 OH2  OT    -0.834000       15.9994           0
   22140 TIP3 4745 TIP3 H1   HT     0.417000        1.0080           0
   22141 TIP3 4745 TIP3 H2   HT     0.417000        1.0080           0
   22142 TIP3 4746 TIP3 OH2  OT    -0.834000       15.9994           0
   22143 TIP3 4746 TIP3 H1   HT     0.417000        1.0080           0
   22144 TIP3 4746 TIP3 H2   HT     0.417000        1.0080           0
   22145 TIP3 4747 TIP3 OH2  OT    -0.834000       15.9994           0
   22146 TIP3 4747 TIP3 H1   HT     0.417000        1.0080           0
   22147 TIP3 4747 TIP3 H2   HT     0.417000        1.0080           0
   22148 TIP3 4748 TIP3 OH2  OT    -0.834000       15.9994           0
   22149 TIP3 4748 TIP3 H1   HT     0.417000        1.0080           0
   22150 TIP3 4748 TIP3 H2   HT     0.417000        1.0080           0
   22151 TIP3 4749 TIP3 OH2  OT    -0.834000       15.9994           0
   22152 TIP3 4749 TIP3 H1   HT     0.417000        1.0080           0
   22153 TIP3 4749 TIP3 H2   HT     0.417000        1.0080           0
   22154 TIP3 4750 TIP3 OH2  OT    -0.834000       15.9994           0
   22155 TIP3 4750 TIP3 H1   HT     0.417000        1.0080           0
   22156 TIP3 4750 TIP3 H2   HT     0.417000        1.0080           0
   22157 TIP3 4751 TIP3 OH2  OT    -0.834000       15.9994           0
   22158 TIP3 4751 TIP3 H1   HT     0.417000        1.0080           0
   22159 TIP3 4751 TIP3 H2   HT     0.417000        1.0080           0
   22160 TIP3 4752 TIP3 OH2  OT    -0.834000       15.9994           0
   22161 TIP3 4752 TIP3 H1   HT     0.417000        1.0080           0
   22162 TIP3 4752 TIP3 H2   HT     0.417000        1.0080           0
   22163 TIP3 4753 TIP3 OH2  OT    -0.834000       15.9994           0
   22164 TIP3 4753 TIP3 H1   HT     0.417000        1.0080           0
   22165 TIP3 4753 TIP3 H2   HT     0.417000        1.0080           0
   22166 TIP3 4754 TIP3 OH2  OT    -0.834000       15.9994           0
   22167 TIP3 4754 TIP3 H1   HT     0.417000        1.0080           0
   22168 TIP3 4754 TIP3 H2   HT     0.417000        1.0080           0
   22169 TIP3 4755 TIP3 OH2  OT    -0.834000       15.9994           0
   22170 TIP3 4755 TIP3 H1   HT     0.417000        1.0080           0
   22171 TIP3 4755 TIP3 H2   HT     0.417000        1.0080           0
   22172 TIP3 4756 TIP3 OH2  OT    -0.834000       15.9994           0
   22173 TIP3 4756 TIP3 H1   HT     0.417000        1.0080           0
   22174 TIP3 4756 TIP3 H2   HT     0.417000        1.0080           0
   22175 TIP3 4757 TIP3 OH2  OT    -0.834000       15.9994           0
   22176 TIP3 4757 TIP3 H1   HT     0.417000        1.0080           0
   22177 TIP3 4757 TIP3 H2   HT     0.417000        1.0080           0
   22178 TIP3 4758 TIP3 OH2  OT    -0.834000       15.9994           0
   22179 TIP3 4758 TIP3 H1   HT     0.417000        1.0080           0
   22180 TIP3 4758 TIP3 H2   HT     0.417000        1.0080           0
   22181 TIP3 4759 TIP3 OH2  OT    -0.834000       15.9994           0
   22182 TIP3 4759 TIP3 H1   HT     0.417000        1.0080           0
   22183 TIP3 4759 TIP3 H2   HT     0.417000        1.0080           0
   22184 TIP3 4760 TIP3 OH2  OT    -0.834000       15.9994           0
   22185 TIP3 4760 TIP3 H1   HT     0.417000        1.0080           0
   22186 TIP3 4760 TIP3 H2   HT     0.417000        1.0080           0
   22187 TIP3 4761 TIP3 OH2  OT    -0.834000       15.9994           0
   22188 TIP3 4761 TIP3 H1   HT     0.417000        1.0080           0
   22189 TIP3 4761 TIP3 H2   HT     0.417000        1.0080           0
   22190 TIP3 4762 TIP3 OH2  OT    -0.834000       15.9994           0
   22191 TIP3 4762 TIP3 H1   HT     0.417000        1.0080           0
   22192 TIP3 4762 TIP3 H2   HT     0.417000        1.0080           0
   22193 TIP3 4763 TIP3 OH2  OT    -0.834000       15.9994           0
   22194 TIP3 4763 TIP3 H1   HT     0.417000        1.0080           0
   22195 TIP3 4763 TIP3 H2   HT     0.417000        1.0080           0
   22196 TIP3 4764 TIP3 OH2  OT    -0.834000       15.9994           0
   22197 TIP3 4764 TIP3 H1   HT     0.417000        1.0080           0
   22198 TIP3 4764 TIP3 H2   HT     0.417000        1.0080           0
   22199 TIP3 4765 TIP3 OH2  OT    -0.834000       15.9994           0
   22200 TIP3 4765 TIP3 H1   HT     0.417000        1.0080           0
   22201 TIP3 4765 TIP3 H2   HT     0.417000        1.0080           0
   22202 TIP3 4766 TIP3 OH2  OT    -0.834000       15.9994           0
   22203 TIP3 4766 TIP3 H1   HT     0.417000        1.0080           0
   22204 TIP3 4766 TIP3 H2   HT     0.417000        1.0080           0
   22205 TIP3 4767 TIP3 OH2  OT    -0.834000       15.9994           0
   22206 TIP3 4767 TIP3 H1   HT     0.417000        1.0080           0
   22207 TIP3 4767 TIP3 H2   HT     0.417000        1.0080           0
   22208 TIP3 4768 TIP3 OH2  OT    -0.834000       15.9994           0
   22209 TIP3 4768 TIP3 H1   HT     0.417000        1.0080           0
   22210 TIP3 4768 TIP3 H2   HT     0.417000        1.0080           0
   22211 TIP3 4769 TIP3 OH2  OT    -0.834000       15.9994           0
   22212 TIP3 4769 TIP3 H1   HT     0.417000        1.0080           0
   22213 TIP3 4769 TIP3 H2   HT     0.417000        1.0080           0
   22214 TIP3 4770 TIP3 OH2  OT    -0.834000       15.9994           0
   22215 TIP3 4770 TIP3 H1   HT     0.417000        1.0080           0
   22216 TIP3 4770 TIP3 H2   HT     0.417000        1.0080           0
   22217 TIP3 4771 TIP3 OH2  OT    -0.834000       15.9994           0
   22218 TIP3 4771 TIP3 H1   HT     0.417000        1.0080           0
   22219 TIP3 4771 TIP3 H2   HT     0.417000        1.0080           0
   22220 TIP3 4772 TIP3 OH2  OT    -0.834000       15.9994           0
   22221 TIP3 4772 TIP3 H1   HT     0.417000        1.0080           0
   22222 TIP3 4772 TIP3 H2   HT     0.417000        1.0080           0
   22223 TIP3 4773 TIP3 OH2  OT    -0.834000       15.9994           0
   22224 TIP3 4773 TIP3 H1   HT     0.417000        1.0080           0
   22225 TIP3 4773 TIP3 H2   HT     0.417000        1.0080           0
   22226 TIP3 4774 TIP3 OH2  OT    -0.834000       15.9994           0
   22227 TIP3 4774 TIP3 H1   HT     0.417000        1.0080           0
   22228 TIP3 4774 TIP3 H2   HT     0.417000        1.0080           0
   22229 TIP3 4775 TIP3 OH2  OT    -0.834000       15.9994           0
   22230 TIP3 4775 TIP3 H1   HT     0.417000        1.0080           0
   22231 TIP3 4775 TIP3 H2   HT     0.417000        1.0080           0
   22232 TIP3 4776 TIP3 OH2  OT    -0.834000       15.9994           0
   22233 TIP3 4776 TIP3 H1   HT     0.417000        1.0080           0
   22234 TIP3 4776 TIP3 H2   HT     0.417000        1.0080           0
   22235 TIP3 4777 TIP3 OH2  OT    -0.834000       15.9994           0
   22236 TIP3 4777 TIP3 H1   HT     0.417000        1.0080           0
   22237 TIP3 4777 TIP3 H2   HT     0.417000        1.0080           0
   22238 TIP3 4778 TIP3 OH2  OT    -0.834000       15.9994           0
   22239 TIP3 4778 TIP3 H1   HT     0.417000        1.0080           0
   22240 TIP3 4778 TIP3 H2   HT     0.417000        1.0080           0
   22241 TIP3 4779 TIP3 OH2  OT    -0.834000       15.9994           0
   22242 TIP3 4779 TIP3 H1   HT     0.417000        1.0080           0
   22243 TIP3 4779 TIP3 H2   HT     0.417000        1.0080           0
   22244 TIP3 4780 TIP3 OH2  OT    -0.834000       15.9994           0
   22245 TIP3 4780 TIP3 H1   HT     0.417000        1.0080           0
   22246 TIP3 4780 TIP3 H2   HT     0.417000        1.0080           0
   22247 TIP3 4781 TIP3 OH2  OT    -0.834000       15.9994           0
   22248 TIP3 4781 TIP3 H1   HT     0.417000        1.0080           0
   22249 TIP3 4781 TIP3 H2   HT     0.417000        1.0080           0
   22250 TIP3 4782 TIP3 OH2  OT    -0.834000       15.9994           0
   22251 TIP3 4782 TIP3 H1   HT     0.417000        1.0080           0
   22252 TIP3 4782 TIP3 H2   HT     0.417000        1.0080           0
   22253 TIP3 4783 TIP3 OH2  OT    -0.834000       15.9994           0
   22254 TIP3 4783 TIP3 H1   HT     0.417000        1.0080           0
   22255 TIP3 4783 TIP3 H2   HT     0.417000        1.0080           0
   22256 TIP3 4784 TIP3 OH2  OT    -0.834000       15.9994           0
   22257 TIP3 4784 TIP3 H1   HT     0.417000        1.0080           0
   22258 TIP3 4784 TIP3 H2   HT     0.417000        1.0080           0
   22259 TIP3 4785 TIP3 OH2  OT    -0.834000       15.9994           0
   22260 TIP3 4785 TIP3 H1   HT     0.417000        1.0080           0
   22261 TIP3 4785 TIP3 H2   HT     0.417000        1.0080           0
   22262 TIP3 4786 TIP3 OH2  OT    -0.834000       15.9994           0
   22263 TIP3 4786 TIP3 H1   HT     0.417000        1.0080           0
   22264 TIP3 4786 TIP3 H2   HT     0.417000        1.0080           0
   22265 TIP3 4787 TIP3 OH2  OT    -0.834000       15.9994           0
   22266 TIP3 4787 TIP3 H1   HT     0.417000        1.0080           0
   22267 TIP3 4787 TIP3 H2   HT     0.417000        1.0080           0
   22268 TIP3 4788 TIP3 OH2  OT    -0.834000       15.9994           0
   22269 TIP3 4788 TIP3 H1   HT     0.417000        1.0080           0
   22270 TIP3 4788 TIP3 H2   HT     0.417000        1.0080           0
   22271 TIP3 4789 TIP3 OH2  OT    -0.834000       15.9994           0
   22272 TIP3 4789 TIP3 H1   HT     0.417000        1.0080           0
   22273 TIP3 4789 TIP3 H2   HT     0.417000        1.0080           0
   22274 TIP3 4790 TIP3 OH2  OT    -0.834000       15.9994           0
   22275 TIP3 4790 TIP3 H1   HT     0.417000        1.0080           0
   22276 TIP3 4790 TIP3 H2   HT     0.417000        1.0080           0
   22277 TIP3 4791 TIP3 OH2  OT    -0.834000       15.9994           0
   22278 TIP3 4791 TIP3 H1   HT     0.417000        1.0080           0
   22279 TIP3 4791 TIP3 H2   HT     0.417000        1.0080           0
   22280 TIP3 4792 TIP3 OH2  OT    -0.834000       15.9994           0
   22281 TIP3 4792 TIP3 H1   HT     0.417000        1.0080           0
   22282 TIP3 4792 TIP3 H2   HT     0.417000        1.0080           0
   22283 TIP3 4793 TIP3 OH2  OT    -0.834000       15.9994           0
   22284 TIP3 4793 TIP3 H1   HT     0.417000        1.0080           0
   22285 TIP3 4793 TIP3 H2   HT     0.417000        1.0080           0
   22286 TIP3 4794 TIP3 OH2  OT    -0.834000       15.9994           0
   22287 TIP3 4794 TIP3 H1   HT     0.417000        1.0080           0
   22288 TIP3 4794 TIP3 H2   HT     0.417000        1.0080           0
   22289 TIP3 4795 TIP3 OH2  OT    -0.834000       15.9994           0
   22290 TIP3 4795 TIP3 H1   HT     0.417000        1.0080           0
   22291 TIP3 4795 TIP3 H2   HT     0.417000        1.0080           0
   22292 TIP3 4796 TIP3 OH2  OT    -0.834000       15.9994           0
   22293 TIP3 4796 TIP3 H1   HT     0.417000        1.0080           0
   22294 TIP3 4796 TIP3 H2   HT     0.417000        1.0080           0
   22295 TIP3 4797 TIP3 OH2  OT    -0.834000       15.9994           0
   22296 TIP3 4797 TIP3 H1   HT     0.417000        1.0080           0
   22297 TIP3 4797 TIP3 H2   HT     0.417000        1.0080           0
   22298 TIP3 4798 TIP3 OH2  OT    -0.834000       15.9994           0
   22299 TIP3 4798 TIP3 H1   HT     0.417000        1.0080           0
   22300 TIP3 4798 TIP3 H2   HT     0.417000        1.0080           0
   22301 TIP3 4799 TIP3 OH2  OT    -0.834000       15.9994           0
   22302 TIP3 4799 TIP3 H1   HT     0.417000        1.0080           0
   22303 TIP3 4799 TIP3 H2   HT     0.417000        1.0080           0
   22304 TIP3 4800 TIP3 OH2  OT    -0.834000       15.9994           0
   22305 TIP3 4800 TIP3 H1   HT     0.417000        1.0080           0
   22306 TIP3 4800 TIP3 H2   HT     0.417000        1.0080           0
   22307 TIP3 4801 TIP3 OH2  OT    -0.834000       15.9994           0
   22308 TIP3 4801 TIP3 H1   HT     0.417000        1.0080           0
   22309 TIP3 4801 TIP3 H2   HT     0.417000        1.0080           0
   22310 TIP3 4802 TIP3 OH2  OT    -0.834000       15.9994           0
   22311 TIP3 4802 TIP3 H1   HT     0.417000        1.0080           0
   22312 TIP3 4802 TIP3 H2   HT     0.417000        1.0080           0
   22313 TIP3 4803 TIP3 OH2  OT    -0.834000       15.9994           0
   22314 TIP3 4803 TIP3 H1   HT     0.417000        1.0080           0
   22315 TIP3 4803 TIP3 H2   HT     0.417000        1.0080           0
   22316 TIP3 4804 TIP3 OH2  OT    -0.834000       15.9994           0
   22317 TIP3 4804 TIP3 H1   HT     0.417000        1.0080           0
   22318 TIP3 4804 TIP3 H2   HT     0.417000        1.0080           0
   22319 TIP3 4805 TIP3 OH2  OT    -0.834000       15.9994           0
   22320 TIP3 4805 TIP3 H1   HT     0.417000        1.0080           0
   22321 TIP3 4805 TIP3 H2   HT     0.417000        1.0080           0
   22322 TIP3 4806 TIP3 OH2  OT    -0.834000       15.9994           0
   22323 TIP3 4806 TIP3 H1   HT     0.417000        1.0080           0
   22324 TIP3 4806 TIP3 H2   HT     0.417000        1.0080           0
   22325 TIP3 4807 TIP3 OH2  OT    -0.834000       15.9994           0
   22326 TIP3 4807 TIP3 H1   HT     0.417000        1.0080           0
   22327 TIP3 4807 TIP3 H2   HT     0.417000        1.0080           0
   22328 TIP3 4808 TIP3 OH2  OT    -0.834000       15.9994           0
   22329 TIP3 4808 TIP3 H1   HT     0.417000        1.0080           0
   22330 TIP3 4808 TIP3 H2   HT     0.417000        1.0080           0
   22331 TIP3 4809 TIP3 OH2  OT    -0.834000       15.9994           0
   22332 TIP3 4809 TIP3 H1   HT     0.417000        1.0080           0
   22333 TIP3 4809 TIP3 H2   HT     0.417000        1.0080           0
   22334 TIP3 4810 TIP3 OH2  OT    -0.834000       15.9994           0
   22335 TIP3 4810 TIP3 H1   HT     0.417000        1.0080           0
   22336 TIP3 4810 TIP3 H2   HT     0.417000        1.0080           0
   22337 TIP3 4811 TIP3 OH2  OT    -0.834000       15.9994           0
   22338 TIP3 4811 TIP3 H1   HT     0.417000        1.0080           0
   22339 TIP3 4811 TIP3 H2   HT     0.417000        1.0080           0
   22340 TIP3 4812 TIP3 OH2  OT    -0.834000       15.9994           0
   22341 TIP3 4812 TIP3 H1   HT     0.417000        1.0080           0
   22342 TIP3 4812 TIP3 H2   HT     0.417000        1.0080           0
   22343 TIP3 4813 TIP3 OH2  OT    -0.834000       15.9994           0
   22344 TIP3 4813 TIP3 H1   HT     0.417000        1.0080           0
   22345 TIP3 4813 TIP3 H2   HT     0.417000        1.0080           0
   22346 TIP3 4814 TIP3 OH2  OT    -0.834000       15.9994           0
   22347 TIP3 4814 TIP3 H1   HT     0.417000        1.0080           0
   22348 TIP3 4814 TIP3 H2   HT     0.417000        1.0080           0
   22349 TIP3 4815 TIP3 OH2  OT    -0.834000       15.9994           0
   22350 TIP3 4815 TIP3 H1   HT     0.417000        1.0080           0
   22351 TIP3 4815 TIP3 H2   HT     0.417000        1.0080           0
   22352 TIP3 4816 TIP3 OH2  OT    -0.834000       15.9994           0
   22353 TIP3 4816 TIP3 H1   HT     0.417000        1.0080           0
   22354 TIP3 4816 TIP3 H2   HT     0.417000        1.0080           0
   22355 TIP3 4817 TIP3 OH2  OT    -0.834000       15.9994           0
   22356 TIP3 4817 TIP3 H1   HT     0.417000        1.0080           0
   22357 TIP3 4817 TIP3 H2   HT     0.417000        1.0080           0
   22358 TIP3 4818 TIP3 OH2  OT    -0.834000       15.9994           0
   22359 TIP3 4818 TIP3 H1   HT     0.417000        1.0080           0
   22360 TIP3 4818 TIP3 H2   HT     0.417000        1.0080           0
   22361 TIP3 4819 TIP3 OH2  OT    -0.834000       15.9994           0
   22362 TIP3 4819 TIP3 H1   HT     0.417000        1.0080           0
   22363 TIP3 4819 TIP3 H2   HT     0.417000        1.0080           0
   22364 TIP3 4820 TIP3 OH2  OT    -0.834000       15.9994           0
   22365 TIP3 4820 TIP3 H1   HT     0.417000        1.0080           0
   22366 TIP3 4820 TIP3 H2   HT     0.417000        1.0080           0
   22367 TIP3 4821 TIP3 OH2  OT    -0.834000       15.9994           0
   22368 TIP3 4821 TIP3 H1   HT     0.417000        1.0080           0
   22369 TIP3 4821 TIP3 H2   HT     0.417000        1.0080           0
   22370 TIP3 4822 TIP3 OH2  OT    -0.834000       15.9994           0
   22371 TIP3 4822 TIP3 H1   HT     0.417000        1.0080           0
   22372 TIP3 4822 TIP3 H2   HT     0.417000        1.0080           0
   22373 TIP3 4823 TIP3 OH2  OT    -0.834000       15.9994           0
   22374 TIP3 4823 TIP3 H1   HT     0.417000        1.0080           0
   22375 TIP3 4823 TIP3 H2   HT     0.417000        1.0080           0
   22376 TIP3 4824 TIP3 OH2  OT    -0.834000       15.9994           0
   22377 TIP3 4824 TIP3 H1   HT     0.417000        1.0080           0
   22378 TIP3 4824 TIP3 H2   HT     0.417000        1.0080           0
   22379 TIP3 4825 TIP3 OH2  OT    -0.834000       15.9994           0
   22380 TIP3 4825 TIP3 H1   HT     0.417000        1.0080           0
   22381 TIP3 4825 TIP3 H2   HT     0.417000        1.0080           0
   22382 TIP3 4826 TIP3 OH2  OT    -0.834000       15.9994           0
   22383 TIP3 4826 TIP3 H1   HT     0.417000        1.0080           0
   22384 TIP3 4826 TIP3 H2   HT     0.417000        1.0080           0
   22385 TIP3 4827 TIP3 OH2  OT    -0.834000       15.9994           0
   22386 TIP3 4827 TIP3 H1   HT     0.417000        1.0080           0
   22387 TIP3 4827 TIP3 H2   HT     0.417000        1.0080           0
   22388 TIP3 4828 TIP3 OH2  OT    -0.834000       15.9994           0
   22389 TIP3 4828 TIP3 H1   HT     0.417000        1.0080           0
   22390 TIP3 4828 TIP3 H2   HT     0.417000        1.0080           0
   22391 TIP3 4829 TIP3 OH2  OT    -0.834000       15.9994           0
   22392 TIP3 4829 TIP3 H1   HT     0.417000        1.0080           0
   22393 TIP3 4829 TIP3 H2   HT     0.417000        1.0080           0
   22394 TIP3 4830 TIP3 OH2  OT    -0.834000       15.9994           0
   22395 TIP3 4830 TIP3 H1   HT     0.417000        1.0080           0
   22396 TIP3 4830 TIP3 H2   HT     0.417000        1.0080           0
   22397 TIP3 4831 TIP3 OH2  OT    -0.834000       15.9994           0
   22398 TIP3 4831 TIP3 H1   HT     0.417000        1.0080           0
   22399 TIP3 4831 TIP3 H2   HT     0.417000        1.0080           0
   22400 TIP3 4832 TIP3 OH2  OT    -0.834000       15.9994           0
   22401 TIP3 4832 TIP3 H1   HT     0.417000        1.0080           0
   22402 TIP3 4832 TIP3 H2   HT     0.417000        1.0080           0
   22403 TIP3 4833 TIP3 OH2  OT    -0.834000       15.9994           0
   22404 TIP3 4833 TIP3 H1   HT     0.417000        1.0080           0
   22405 TIP3 4833 TIP3 H2   HT     0.417000        1.0080           0
   22406 TIP3 4834 TIP3 OH2  OT    -0.834000       15.9994           0
   22407 TIP3 4834 TIP3 H1   HT     0.417000        1.0080           0
   22408 TIP3 4834 TIP3 H2   HT     0.417000        1.0080           0
   22409 TIP3 4835 TIP3 OH2  OT    -0.834000       15.9994           0
   22410 TIP3 4835 TIP3 H1   HT     0.417000        1.0080           0
   22411 TIP3 4835 TIP3 H2   HT     0.417000        1.0080           0
   22412 TIP3 4836 TIP3 OH2  OT    -0.834000       15.9994           0
   22413 TIP3 4836 TIP3 H1   HT     0.417000        1.0080           0
   22414 TIP3 4836 TIP3 H2   HT     0.417000        1.0080           0
   22415 TIP3 4837 TIP3 OH2  OT    -0.834000       15.9994           0
   22416 TIP3 4837 TIP3 H1   HT     0.417000        1.0080           0
   22417 TIP3 4837 TIP3 H2   HT     0.417000        1.0080           0
   22418 TIP3 4838 TIP3 OH2  OT    -0.834000       15.9994           0
   22419 TIP3 4838 TIP3 H1   HT     0.417000        1.0080           0
   22420 TIP3 4838 TIP3 H2   HT     0.417000        1.0080           0
   22421 TIP3 4839 TIP3 OH2  OT    -0.834000       15.9994           0
   22422 TIP3 4839 TIP3 H1   HT     0.417000        1.0080           0
   22423 TIP3 4839 TIP3 H2   HT     0.417000        1.0080           0
   22424 TIP3 4840 TIP3 OH2  OT    -0.834000       15.9994           0
   22425 TIP3 4840 TIP3 H1   HT     0.417000        1.0080           0
   22426 TIP3 4840 TIP3 H2   HT     0.417000        1.0080           0
   22427 TIP3 4841 TIP3 OH2  OT    -0.834000       15.9994           0
   22428 TIP3 4841 TIP3 H1   HT     0.417000        1.0080           0
   22429 TIP3 4841 TIP3 H2   HT     0.417000        1.0080           0
   22430 TIP3 4842 TIP3 OH2  OT    -0.834000       15.9994           0
   22431 TIP3 4842 TIP3 H1   HT     0.417000        1.0080           0
   22432 TIP3 4842 TIP3 H2   HT     0.417000        1.0080           0
   22433 TIP3 4843 TIP3 OH2  OT    -0.834000       15.9994           0
   22434 TIP3 4843 TIP3 H1   HT     0.417000        1.0080           0
   22435 TIP3 4843 TIP3 H2   HT     0.417000        1.0080           0
   22436 TIP3 4844 TIP3 OH2  OT    -0.834000       15.9994           0
   22437 TIP3 4844 TIP3 H1   HT     0.417000        1.0080           0
   22438 TIP3 4844 TIP3 H2   HT     0.417000        1.0080           0
   22439 TIP3 4845 TIP3 OH2  OT    -0.834000       15.9994           0
   22440 TIP3 4845 TIP3 H1   HT     0.417000        1.0080           0
   22441 TIP3 4845 TIP3 H2   HT     0.417000        1.0080           0
   22442 IONS 1    POT  POT  POT    1.000000       39.0983           0
   22443 IONS 2    POT  POT  POT    1.000000       39.0983           0
   22444 IONS 3    POT  POT  POT    1.000000       39.0983           0
   22445 IONS 4    POT  POT  POT    1.000000       39.0983           0
   22446 IONS 5    POT  POT  POT    1.000000       39.0983           0
   22447 IONS 6    POT  POT  POT    1.000000       39.0983           0
   22448 IONS 7    POT  POT  POT    1.000000       39.0983           0
   22449 IONS 8    POT  POT  POT    1.000000       39.0983           0
   22450 IONS 9    POT  POT  POT    1.000000       39.0983           0
   22451 IONS 10   POT  POT  POT    1.000000       39.0983           0
   22452 IONS 11   POT  POT  POT    1.000000       39.0983           0
   22453 IONS 12   POT  POT  POT    1.000000       39.0983           0
   22454 IONS 13   POT  POT  POT    1.000000       39.0983           0
   22455 IONS 14   POT  POT  POT    1.000000       39.0983           0
   22456 IONS 15   POT  POT  POT    1.000000       39.0983           0
   22457 IONS 16   POT  POT  POT    1.000000       39.0983           0
   22458 IONS 17   POT  POT  POT    1.000000       39.0983           0
   22459 IONS 18   POT  POT  POT    1.000000       39.0983           0
   22460 IONS 19   POT  POT  POT    1.000000       39.0983           0
   22461 IONS 20   POT  POT  POT    1.000000       39.0983           0
   22462 IONS 21   CLA  CLA  CLA   -1.000000       35.4500           0
   22463 IONS 22   CLA  CLA  CLA   -1.000000       35.4500           0
   22464 IONS 23   CLA  CLA  CLA   -1.000000       35.4500           0
   22465 IONS 24   CLA  CLA  CLA   -1.000000       35.4500           0
   22466 IONS 25   CLA  CLA  CLA   -1.000000       35.4500           0
   22467 IONS 26   CLA  CLA  CLA   -1.000000       35.4500           0
   22468 IONS 27   CLA  CLA  CLA   -1.000000       35.4500           0
   22469 IONS 28   CLA  CLA  CLA   -1.000000       35.4500           0
   22470 IONS 29   CLA  CLA  CLA   -1.000000       35.4500           0
   22471 IONS 30   CLA  CLA  CLA   -1.000000       35.4500           0
   22472 IONS 31   CLA  CLA  CLA   -1.000000       35.4500           0
   22473 IONS 32   CLA  CLA  CLA   -1.000000       35.4500           0
   22474 HMM0 0    SCSE C1   SCSE   0.000000       14.0270           0
   22475 HMM0 0    SCSE C2   SCSE   0.000000       14.0270           0
   22476 HMM0 1    SCSE C1   SCSE   0.000000       14.0270           0
   22477 HMM0 1    SCSE C2   SCSE   0.000000       14.0270           0
   22478 HMM0 2    SCSE C1   SCSE   0.000000       14.0270           0
   22479 HMM0 2    SCSE C2   SCSE   0.000000       14.0270           0
   22480 HMM0 3    SCSE C1   SCSE   0.000000       14.0270           0
   22481 HMM0 3    SCSE C2   SCSE   0.000000       14.0270           0
   22482 HMM0 4    SCSE C1   SCSE   0.000000       14.0270           0
   22483 HMM0 4    SCSE C2   SCSE   0.000000       14.0270           0
   22484 HMM0 5    SCSE C1   SCSE   0.000000       14.0270           0
   22485 HMM0 5    SCSE C2   SCSE   0.000000       14.0270           0
   22486 HMM0 6    SCSE C1   SCSE   0.000000       14.0270           0
   22487 HMM0 6    SCSE C2   SCSE   0.000000       14.0270           0
   22488 HMM0 7    SCSE C1   SCSE   0.000000       14.0270           0
   22489 HMM0 7    SCSE C2   SCSE   0.000000       14.0270           0
   22490 HMM0 8    SCSE C1   SCSE   0.000000       14.0270           0
   22491 HMM0 8    SCSE C2   SCSE   0.000000       14.0270           0
   22492 HMM0 9    SCSE C1   SCSE   0.000000       14.0270           0
   22493 HMM0 9    SCSE C2   SCSE   0.000000       14.0270           0
   22494 HMM0 10   SCSE C1   SCSE   0.000000       14.0270           0
   22495 HMM0 10   SCSE C2   SCSE   0.000000       14.0270           0
   22496 HMM0 11   SCSE C1   SCSE   0.000000       14.0270           0
   22497 HMM0 11   SCSE C2   SCSE   0.000000       14.0270           0
   22498 HMM0 12   SCSE C1   SCSE   0.000000       14.0270           0
   22499 HMM0 12   SCSE C2   SCSE   0.000000       14.0270           0
   22500 HMM0 13   SCSE C1   SCSE   0.000000       14.0270           0
   22501 HMM0 13   SCSE C2   SCSE   0.000000       14.0270           0
   22502 HMM0 14   SCSE C1   SCSE   0.000000       14.0270           0
   22503 HMM0 14   SCSE C2   SCSE   0.000000       14.0270           0
   22504 HMM0 15   SCSE C1   SCSE   0.000000       14.0270           0
   22505 HMM0 15   SCSE C2   SCSE   0.000000       14.0270           0
   22506 HMM0 16   SCSE C1   SCSE   0.000000       14.0270           0
   22507 HMM0 16   SCSE C2   SCSE   0.000000       14.0270           0
   22508 HMM0 17   SCSE C1   SCSE   0.000000       14.0270           0
   22509 HMM0 17   SCSE C2   SCSE   0.000000       14.0270           0
   22510 HMM0 18   SCSE C1   SCSE   0.000000       14.0270           0
   22511 HMM0 18   SCSE C2   SCSE   0.000000       14.0270           0
   22512 HMM0 19   SCSE C1   SCSE   0.000000       14.0270           0
   22513 HMM0 19   SCSE C2   SCSE   0.000000       14.0270           0
   22514 HMM0 20   SCSE C1   SCSE   0.000000       14.0270           0
   22515 HMM0 20   SCSE C2   SCSE   0.000000       14.0270           0
   22516 HMM0 21   SCSE C1   SCSE   0.000000       14.0270           0
   22517 HMM0 21   SCSE C2   SCSE   0.000000       14.0270           0
   22518 HMM0 22   SCSE C1   SCSE   0.000000       14.0270           0
   22519 HMM0 22   SCSE C2   SCSE   0.000000       14.0270           0
   22520 HMM0 23   SCSE C1   SCSE   0.000000       14.0270           0
   22521 HMM0 23   SCSE C2   SCSE   0.000000       14.0270           0
   22522 HMM0 24   SCSE C1   SCSE   0.000000       14.0270           0
   22523 HMM0 24   SCSE C2   SCSE   0.000000       14.0270           0
   22524 HMM0 25   SCSE C1   SCSE   0.000000       14.0270           0
   22525 HMM0 25   SCSE C2   SCSE   0.000000       14.0270           0
   22526 HMM0 26   SCSE C1   SCSE   0.000000       14.0270           0
   22527 HMM0 26   SCSE C2   SCSE   0.000000       14.0270           0
   22528 HMM0 27   SCSE C1   SCSE   0.000000       14.0270           0
   22529 HMM0 27   SCSE C2   SCSE   0.000000       14.0270           0
   22530 HMM0 28   SCSE C1   SCSE   0.000000       14.0270           0
   22531 HMM0 28   SCSE C2   SCSE   0.000000       14.0270           0
   22532 HMM0 29   SCSE C1   SCSE   0.000000       14.0270           0
   22533 HMM0 29   SCSE C2   SCSE   0.000000       14.0270           0
   22534 HMM0 30   SCSE C1   SCSE   0.000000       14.0270           0
   22535 HMM0 30   SCSE C2   SCSE   0.000000       14.0270           0
   22536 HMM0 31   SCSE C1   SCSE   0.000000       14.0270           0
   22537 HMM0 31   SCSE C2   SCSE   0.000000       14.0270           0
   22538 HMM0 32   SCSE C1   SCSE   0.000000       14.0270           0
   22539 HMM0 32   SCSE C2   SCSE   0.000000       14.0270           0
   22540 HMM0 33   SCSE C1   SCSE   0.000000       14.0270           0
   22541 HMM0 33   SCSE C2   SCSE   0.000000       14.0270           0
   22542 HMM0 34   SCSE C1   SCSE   0.000000       14.0270           0
   22543 HMM0 34   SCSE C2   SCSE   0.000000       14.0270           0
   22544 HMM0 35   SCSE C1   SCSE   0.000000       14.0270           0
   22545 HMM0 35   SCSE C2   SCSE   0.000000       14.0270           0
   22546 HMM0 36   SCSE C1   SCSE   0.000000       14.0270           0
   22547 HMM0 36   SCSE C2   SCSE   0.000000       14.0270           0
   22548 HMM0 37   SCSE C1   SCSE   0.000000       14.0270           0
   22549 HMM0 37   SCSE C2   SCSE   0.000000       14.0270           0
   22550 HMM0 38   SCSE C1   SCSE   0.000000       14.0270           0
   22551 HMM0 38   SCSE C2   SCSE   0.000000       14.0270           0
   22552 HMM0 39   SCSE C1   SCSE   0.000000       14.0270           0
   22553 HMM0 39   SCSE C2   SCSE   0.000000       14.0270           0
   22554 HMM0 40   SCSE C1   SCSE   0.000000       14.0270           0
   22555 HMM0 40   SCSE C2   SCSE   0.000000       14.0270           0
   22556 HMM0 41   SCSE C1   SCSE   0.000000       14.0270           0
   22557 HMM0 41   SCSE C2   SCSE   0.000000       14.0270           0
   22558 HMM0 42   SCSE C1   SCSE   0.000000       14.0270           0
   22559 HMM0 42   SCSE C2   SCSE   0.000000       14.0270           0
   22560 HMM0 43   SCSE C1   SCSE   0.000000       14.0270           0
   22561 HMM0 43   SCSE C2   SCSE   0.000000       14.0270           0
   22562 HMM0 44   SCSE C1   SCSE   0.000000       14.0270           0
   22563 HMM0 44   SCSE C2   SCSE   0.000000       14.0270           0
   22564 HMM0 45   SCSE C1   SCSE   0.000000       14.0270           0
   22565 HMM0 45   SCSE C2   SCSE   0.000000       14.0270           0
   22566 HMM0 46   SCSE C1   SCSE   0.000000       14.0270           0
   22567 HMM0 46   SCSE C2   SCSE   0.000000       14.0270           0
   22568 HMM0 47   SCSE C1   SCSE   0.000000       14.0270           0
   22569 HMM0 47   SCSE C2   SCSE   0.000000       14.0270           0
   22570 HMM0 48   SCSE C1   SCSE   0.000000       14.0270           0
   22571 HMM0 48   SCSE C2   SCSE   0.000000       14.0270           0
   22572 HMM0 49   SCSE C1   SCSE   0.000000       14.0270           0
   22573 HMM0 49   SCSE C2   SCSE   0.000000       14.0270           0
   22574 HMM0 50   SCSE C1   SCSE   0.000000       14.0270           0
   22575 HMM0 50   SCSE C2   SCSE   0.000000       14.0270           0
   22576 HMM0 51   SCSE C1   SCSE   0.000000       14.0270           0
   22577 HMM0 51   SCSE C2   SCSE   0.000000       14.0270           0
   22578 HMM0 52   SCSE C1   SCSE   0.000000       14.0270           0
   22579 HMM0 52   SCSE C2   SCSE   0.000000       14.0270           0
   22580 HMM0 53   SCSE C1   SCSE   0.000000       14.0270           0
   22581 HMM0 53   SCSE C2   SCSE   0.000000       14.0270           0
   22582 HMM0 54   SCSE C1   SCSE   0.000000       14.0270           0
   22583 HMM0 54   SCSE C2   SCSE   0.000000       14.0270           0
   22584 HMM0 55   SCSE C1   SCSE   0.000000       14.0270           0
   22585 HMM0 55   SCSE C2   SCSE   0.000000       14.0270           0
   22586 HMM0 56   SCSE C1   SCSE   0.000000       14.0270           0
   22587 HMM0 56   SCSE C2   SCSE   0.000000       14.0270           0
   22588 HMM0 57   SCSE C1   SCSE   0.000000       14.0270           0
   22589 HMM0 57   SCSE C2   SCSE   0.000000       14.0270           0
   22590 HMM0 58   SCSE C1   SCSE   0.000000       14.0270           0
   22591 HMM0 58   SCSE C2   SCSE   0.000000       14.0270           0
   22592 HMM0 59   SCSE C1   SCSE   0.000000       14.0270           0
   22593 HMM0 59   SCSE C2   SCSE   0.000000       14.0270           0
   22594 HMM0 60   SCSE C1   SCSE   0.000000       14.0270           0
   22595 HMM0 60   SCSE C2   SCSE   0.000000       14.0270           0
   22596 HMM0 61   SCSE C1   SCSE   0.000000       14.0270           0
   22597 HMM0 61   SCSE C2   SCSE   0.000000       14.0270           0
   22598 HMM0 62   SCSE C1   SCSE   0.000000       14.0270           0
   22599 HMM0 62   SCSE C2   SCSE   0.000000       14.0270           0
   22600 HMM0 63   SCSE C1   SCSE   0.000000       14.0270           0
   22601 HMM0 63   SCSE C2   SCSE   0.000000       14.0270           0
   22602 HMM0 64   SCSE C1   SCSE   0.000000       14.0270           0
   22603 HMM0 64   SCSE C2   SCSE   0.000000       14.0270           0
   22604 HMM0 65   SCSE C1   SCSE   0.000000       14.0270           0
   22605 HMM0 65   SCSE C2   SCSE   0.000000       14.0270           0
   22606 HMM0 66   SCSE C1   SCSE   0.000000       14.0270           0
   22607 HMM0 66   SCSE C2   SCSE   0.000000       14.0270           0
   22608 HMM0 67   SCSE C1   SCSE   0.000000       14.0270           0
   22609 HMM0 67   SCSE C2   SCSE   0.000000       14.0270           0
   22610 HMM0 68   SCSE C1   SCSE   0.000000       14.0270           0
   22611 HMM0 68   SCSE C2   SCSE   0.000000       14.0270           0
   22612 HMM0 69   SCSE C1   SCSE   0.000000       14.0270           0
   22613 HMM0 69   SCSE C2   SCSE   0.000000       14.0270           0
   22614 HMM0 70   SCSE C1   SCSE   0.000000       14.0270           0
   22615 HMM0 70   SCSE C2   SCSE   0.000000       14.0270           0
   22616 HMM0 71   SCSE C1   SCSE   0.000000       14.0270           0
   22617 HMM0 71   SCSE C2   SCSE   0.000000       14.0270           0
   22618 HMM0 72   SCSE C1   SCSE   0.000000       14.0270           0
   22619 HMM0 72   SCSE C2   SCSE   0.000000       14.0270           0
   22620 HMM0 73   SCSE C1   SCSE   0.000000       14.0270           0
   22621 HMM0 73   SCSE C2   SCSE   0.000000       14.0270           0
   22622 HMM0 74   SCSE C1   SCSE   0.000000       14.0270           0
   22623 HMM0 74   SCSE C2   SCSE   0.000000       14.0270           0
   22624 HMM0 75   SCSE C1   SCSE   0.000000       14.0270           0
   22625 HMM0 75   SCSE C2   SCSE   0.000000       14.0270           0
   22626 HMM0 76   SCSE C1   SCSE   0.000000       14.0270           0
   22627 HMM0 76   SCSE C2   SCSE   0.000000       14.0270           0
   22628 HMM0 77   SCSE C1   SCSE   0.000000       14.0270           0
   22629 HMM0 77   SCSE C2   SCSE   0.000000       14.0270           0
   22630 HMM0 78   SCSE C1   SCSE   0.000000       14.0270           0
   22631 HMM0 78   SCSE C2   SCSE   0.000000       14.0270           0
   22632 HMM0 79   SCSE C1   SCSE   0.000000       14.0270           0
   22633 HMM0 79   SCSE C2   SCSE   0.000000       14.0270           0
   22634 HMM0 80   SCSE C1   SCSE   0.000000       14.0270           0
   22635 HMM0 80   SCSE C2   SCSE   0.000000       14.0270           0
   22636 HMM0 81   SCSE C1   SCSE   0.000000       14.0270           0
   22637 HMM0 81   SCSE C2   SCSE   0.000000       14.0270           0
   22638 HMM0 82   SCSE C1   SCSE   0.000000       14.0270           0
   22639 HMM0 82   SCSE C2   SCSE   0.000000       14.0270           0
   22640 HMM0 83   SCSE C1   SCSE   0.000000       14.0270           0
   22641 HMM0 83   SCSE C2   SCSE   0.000000       14.0270           0
   22642 HMM0 84   SCSE C1   SCSE   0.000000       14.0270           0
   22643 HMM0 84   SCSE C2   SCSE   0.000000       14.0270           0
   22644 HMM0 85   SCSE C1   SCSE   0.000000       14.0270           0
   22645 HMM0 85   SCSE C2   SCSE   0.000000       14.0270           0
   22646 HMM0 86   SCSE C1   SCSE   0.000000       14.0270           0
   22647 HMM0 86   SCSE C2   SCSE   0.000000       14.0270           0
   22648 HMM0 87   SCSE C1   SCSE   0.000000       14.0270           0
   22649 HMM0 87   SCSE C2   SCSE   0.000000       14.0270           0
   22650 HMM0 88   SCSE C1   SCSE   0.000000       14.0270           0
   22651 HMM0 88   SCSE C2   SCSE   0.000000       14.0270           0
   22652 HMM0 89   SCSE C1   SCSE   0.000000       14.0270           0
   22653 HMM0 89   SCSE C2   SCSE   0.000000       14.0270           0
   22654 HMM0 90   SCSE C1   SCSE   0.000000       14.0270           0
   22655 HMM0 90   SCSE C2   SCSE   0.000000       14.0270           0
   22656 HMM0 91   SCSE C1   SCSE   0.000000       14.0270           0
   22657 HMM0 91   SCSE C2   SCSE   0.000000       14.0270           0
   22658 HMM0 92   SCSE C1   SCSE   0.000000       14.0270           0
   22659 HMM0 92   SCSE C2   SCSE   0.000000       14.0270           0
   22660 HMM0 93   SCSE C1   SCSE   0.000000       14.0270           0
   22661 HMM0 93   SCSE C2   SCSE   0.000000       14.0270           0
   22662 HMM0 94   SCSE C1   SCSE   0.000000       14.0270           0
   22663 HMM0 94   SCSE C2   SCSE   0.000000       14.0270           0
   22664 HMM0 95   SCSE C1   SCSE   0.000000       14.0270           0
   22665 HMM0 95   SCSE C2   SCSE   0.000000       14.0270           0
   22666 HMM0 96   SCSE C1   SCSE   0.000000       14.0270           0
   22667 HMM0 96   SCSE C2   SCSE   0.000000       14.0270           0
   22668 HMM0 97   SCSE C1   SCSE   0.000000       14.0270           0
   22669 HMM0 97   SCSE C2   SCSE   0.000000       14.0270           0
   22670 HMM0 98   SCSE C1   SCSE   0.000000       14.0270           0
   22671 HMM0 98   SCSE C2   SCSE   0.000000       14.0270           0
   22672 HMM0 99   SCSE C1   SCSE   0.000000       14.0270           0
   22673 HMM0 99   SCSE C2   SCSE   0.000000       14.0270           0
   22674 HMM0 100  SCSE C1   SCSE   0.000000       14.0270           0
   22675 HMM0 100  SCSE C2   SCSE   0.000000       14.0270           0
   22676 HMM0 101  SCSE C1   SCSE   0.000000       14.0270           0
   22677 HMM0 101  SCSE C2   SCSE   0.000000       14.0270           0
   22678 HMM0 102  SCSE C1   SCSE   0.000000       14.0270           0
   22679 HMM0 102  SCSE C2   SCSE   0.000000       14.0270           0
   22680 HMM0 103  SCSE C1   SCSE   0.000000       14.0270           0
   22681 HMM0 103  SCSE C2   SCSE   0.000000       14.0270           0
   22682 HMM0 104  SCSE C1   SCSE   0.000000       14.0270           0
   22683 HMM0 104  SCSE C2   SCSE   0.000000       14.0270           0
   22684 HMM0 105  SCSE C1   SCSE   0.000000       14.0270           0
   22685 HMM0 105  SCSE C2   SCSE   0.000000       14.0270           0
   22686 HMM0 106  SCSE C1   SCSE   0.000000       14.0270           0
   22687 HMM0 106  SCSE C2   SCSE   0.000000       14.0270           0
   22688 HMM0 107  SCSE C1   SCSE   0.000000       14.0270           0
   22689 HMM0 107  SCSE C2   SCSE   0.000000       14.0270           0
   22690 HMM0 108  SCSE C1   SCSE   0.000000       14.0270           0
   22691 HMM0 108  SCSE C2   SCSE   0.000000       14.0270           0
   22692 HMM0 109  SCSE C1   SCSE   0.000000       14.0270           0
   22693 HMM0 109  SCSE C2   SCSE   0.000000       14.0270           0
   22694 HMM0 110  SCSE C1   SCSE   0.000000       14.0270           0
   22695 HMM0 110  SCSE C2   SCSE   0.000000       14.0270           0
   22696 HMM0 111  SCSE C1   SCSE   0.000000       14.0270           0
   22697 HMM0 111  SCSE C2   SCSE   0.000000       14.0270           0
   22698 HMM0 112  SCSE C1   SCSE   0.000000       14.0270           0
   22699 HMM0 112  SCSE C2   SCSE   0.000000       14.0270           0
   22700 HMM0 113  SCSE C1   SCSE   0.000000       14.0270           0
   22701 HMM0 113  SCSE C2   SCSE   0.000000       14.0270           0
   22702 HMM0 114  SCSE C1   SCSE   0.000000       14.0270           0
   22703 HMM0 114  SCSE C2   SCSE   0.000000       14.0270           0
   22704 HMM0 115  SCSE C1   SCSE   0.000000       14.0270           0
   22705 HMM0 115  SCSE C2   SCSE   0.000000       14.0270           0
   22706 HMM0 116  SCSE C1   SCSE   0.000000       14.0270           0
   22707 HMM0 116  SCSE C2   SCSE   0.000000       14.0270           0
   22708 HMM0 117  SCSE C1   SCSE   0.000000       14.0270           0
   22709 HMM0 117  SCSE C2   SCSE   0.000000       14.0270           0
   22710 HMM0 118  SCSE C1   SCSE   0.000000       14.0270           0
   22711 HMM0 118  SCSE C2   SCSE   0.000000       14.0270           0
   22712 HMM0 119  SCSE C1   SCSE   0.000000       14.0270           0
   22713 HMM0 119  SCSE C2   SCSE   0.000000       14.0270           0
   22714 HMM0 120  SCSE C1   SCSE   0.000000       14.0270           0
   22715 HMM0 120  SCSE C2   SCSE   0.000000       14.0270           0
   22716 HMM0 121  SCSE C1   SCSE   0.000000       14.0270           0
   22717 HMM0 121  SCSE C2   SCSE   0.000000       14.0270           0
   22718 HMM0 122  SCSE C1   SCSE   0.000000       14.0270           0
   22719 HMM0 122  SCSE C2   SCSE   0.000000       14.0270           0
   22720 HMM0 123  SCSE C1   SCSE   0.000000       14.0270           0
   22721 HMM0 123  SCSE C2   SCSE   0.000000       14.0270           0
   22722 HMM0 124  SCSE C1   SCSE   0.000000       14.0270           0
   22723 HMM0 124  SCSE C2   SCSE   0.000000       14.0270           0
   22724 HMM0 125  SCSE C1   SCSE   0.000000       14.0270           0
   22725 HMM0 125  SCSE C2   SCSE   0.000000       14.0270           0
   22726 HMM0 126  SCSE C1   SCSE   0.000000       14.0270           0
   22727 HMM0 126  SCSE C2   SCSE   0.000000       14.0270           0
   22728 HMM0 127  SCSE C1   SCSE   0.000000       14.0270           0
   22729 HMM0 127  SCSE C2   SCSE   0.000000       14.0270           0
   22730 HMM0 128  SCSE C1   SCSE   0.000000       14.0270           0
   22731 HMM0 128  SCSE C2   SCSE   0.000000       14.0270           0
   22732 HMM0 129  SCSE C1   SCSE   0.000000       14.0270           0
   22733 HMM0 129  SCSE C2   SCSE   0.000000       14.0270           0
   22734 HMM0 130  SCSE C1   SCSE   0.000000       14.0270           0
   22735 HMM0 130  SCSE C2   SCSE   0.000000       14.0270           0
   22736 HMM0 131  SCSE C1   SCSE   0.000000       14.0270           0
   22737 HMM0 131  SCSE C2   SCSE   0.000000       14.0270           0
   22738 HMM0 132  SCSE C1   SCSE   0.000000       14.0270           0
   22739 HMM0 132  SCSE C2   SCSE   0.000000       14.0270           0
   22740 HMM0 133  SCSE C1   SCSE   0.000000       14.0270           0
   22741 HMM0 133  SCSE C2   SCSE   0.000000       14.0270           0
   22742 HMM0 134  SCSE C1   SCSE   0.000000       14.0270           0
   22743 HMM0 134  SCSE C2   SCSE   0.000000       14.0270           0
   22744 HMM0 135  SCSE C1   SCSE   0.000000       14.0270           0
   22745 HMM0 135  SCSE C2   SCSE   0.000000       14.0270           0
   22746 HMM0 136  SCSE C1   SCSE   0.000000       14.0270           0
   22747 HMM0 136  SCSE C2   SCSE   0.000000       14.0270           0
   22748 HMM0 137  SCSE C1   SCSE   0.000000       14.0270           0
   22749 HMM0 137  SCSE C2   SCSE   0.000000       14.0270           0
   22750 HMM0 138  SCSE C1   SCSE   0.000000       14.0270           0
   22751 HMM0 138  SCSE C2   SCSE   0.000000       14.0270           0
   22752 HMM0 139  SCSE C1   SCSE   0.000000       14.0270           0
   22753 HMM0 139  SCSE C2   SCSE   0.000000       14.0270           0
   22754 HMM0 140  SCSE C1   SCSE   0.000000       14.0270           0
   22755 HMM0 140  SCSE C2   SCSE   0.000000       14.0270           0
   22756 HMM0 141  SCSE C1   SCSE   0.000000       14.0270           0
   22757 HMM0 141  SCSE C2   SCSE   0.000000       14.0270           0
   22758 HMM0 142  SCSE C1   SCSE   0.000000       14.0270           0
   22759 HMM0 142  SCSE C2   SCSE   0.000000       14.0270           0
   22760 HMM0 143  SCSE C1   SCSE   0.000000       14.0270           0
   22761 HMM0 143  SCSE C2   SCSE   0.000000       14.0270           0
   22762 HMM0 144  SCSE C1   SCSE   0.000000       14.0270           0
   22763 HMM0 144  SCSE C2   SCSE   0.000000       14.0270           0
   22764 HMM0 145  SCSE C1   SCSE   0.000000       14.0270           0
   22765 HMM0 145  SCSE C2   SCSE   0.000000       14.0270           0
   22766 HMM0 146  SCSE C1   SCSE   0.000000       14.0270           0
   22767 HMM0 146  SCSE C2   SCSE   0.000000       14.0270           0
   22768 HMM0 147  SCSE C1   SCSE   0.000000       14.0270           0
   22769 HMM0 147  SCSE C2   SCSE   0.000000       14.0270           0
   22770 HMM0 148  SCSE C1   SCSE   0.000000       14.0270           0
   22771 HMM0 148  SCSE C2   SCSE   0.000000       14.0270           0
   22772 HMM0 149  SCSE C1   SCSE   0.000000       14.0270           0
   22773 HMM0 149  SCSE C2   SCSE   0.000000       14.0270           0
   22774 HMM0 150  SCSE C1   SCSE   0.000000       14.0270           0
   22775 HMM0 150  SCSE C2   SCSE   0.000000       14.0270           0
   22776 HMM0 151  SCSE C1   SCSE   0.000000       14.0270           0
   22777 HMM0 151  SCSE C2   SCSE   0.000000       14.0270           0
   22778 HMM0 152  SCSE C1   SCSE   0.000000       14.0270           0
   22779 HMM0 152  SCSE C2   SCSE   0.000000       14.0270           0
   22780 HMM0 153  SCSE C1   SCSE   0.000000       14.0270           0
   22781 HMM0 153  SCSE C2   SCSE   0.000000       14.0270           0
   22782 HMM0 154  SCSE C1   SCSE   0.000000       14.0270           0
   22783 HMM0 154  SCSE C2   SCSE   0.000000       14.0270           0
   22784 HMM0 155  SCSE C1   SCSE   0.000000       14.0270           0
   22785 HMM0 155  SCSE C2   SCSE   0.000000       14.0270           0
   22786 HMM0 156  SCSE C1   SCSE   0.000000       14.0270           0
   22787 HMM0 156  SCSE C2   SCSE   0.000000       14.0270           0
   22788 HMM0 157  SCSE C1   SCSE   0.000000       14.0270           0
   22789 HMM0 157  SCSE C2   SCSE   0.000000       14.0270           0
   22790 HMM0 158  SCSE C1   SCSE   0.000000       14.0270           0
   22791 HMM0 158  SCSE C2   SCSE   0.000000       14.0270           0
   22792 HMM0 159  SCSE C1   SCSE   0.000000       14.0270           0
   22793 HMM0 159  SCSE C2   SCSE   0.000000       14.0270           0
   22794 HMM0 160  SCSE C1   SCSE   0.000000       14.0270           0
   22795 HMM0 160  SCSE C2   SCSE   0.000000       14.0270           0
   22796 HMM0 161  SCSE C1   SCSE   0.000000       14.0270           0
   22797 HMM0 161  SCSE C2   SCSE   0.000000       14.0270           0
   22798 HMM0 162  SCSE C1   SCSE   0.000000       14.0270           0
   22799 HMM0 162  SCSE C2   SCSE   0.000000       14.0270           0
   22800 HMM0 163  SCSE C1   SCSE   0.000000       14.0270           0
   22801 HMM0 163  SCSE C2   SCSE   0.000000       14.0270           0
   22802 HMM0 164  SCSE C1   SCSE   0.000000       14.0270           0
   22803 HMM0 164  SCSE C2   SCSE   0.000000       14.0270           0
   22804 HMM0 165  SCSE C1   SCSE   0.000000       14.0270           0
   22805 HMM0 165  SCSE C2   SCSE   0.000000       14.0270           0
   22806 HMM0 166  SCSE C1   SCSE   0.000000       14.0270           0
   22807 HMM0 166  SCSE C2   SCSE   0.000000       14.0270           0
   22808 HMM0 167  SCSE C1   SCSE   0.000000       14.0270           0
   22809 HMM0 167  SCSE C2   SCSE   0.000000       14.0270           0
   22810 HMM0 168  SCSE C1   SCSE   0.000000       14.0270           0
   22811 HMM0 168  SCSE C2   SCSE   0.000000       14.0270           0
   22812 HMM0 169  SCSE C1   SCSE   0.000000       14.0270           0
   22813 HMM0 169  SCSE C2   SCSE   0.000000       14.0270           0
   22814 HMM0 170  SCSE C1   SCSE   0.000000       14.0270           0
   22815 HMM0 170  SCSE C2   SCSE   0.000000       14.0270           0
   22816 HMM0 171  SCSE C1   SCSE   0.000000       14.0270           0
   22817 HMM0 171  SCSE C2   SCSE   0.000000       14.0270           0
   22818 HMM0 172  SCSE C1   SCSE   0.000000       14.0270           0
   22819 HMM0 172  SCSE C2   SCSE   0.000000       14.0270           0
   22820 HMM0 173  SCSE C1   SCSE   0.000000       14.0270           0
   22821 HMM0 173  SCSE C2   SCSE   0.000000       14.0270           0
   22822 HMM0 174  SCSE C1   SCSE   0.000000       14.0270           0
   22823 HMM0 174  SCSE C2   SCSE   0.000000       14.0270           0
   22824 HMM0 175  SCSE C1   SCSE   0.000000       14.0270           0
   22825 HMM0 175  SCSE C2   SCSE   0.000000       14.0270           0
   22826 HMM0 176  SCSE C1   SCSE   0.000000       14.0270           0
   22827 HMM0 176  SCSE C2   SCSE   0.000000       14.0270           0
   22828 HMM0 177  SCSE C1   SCSE   0.000000       14.0270           0
   22829 HMM0 177  SCSE C2   SCSE   0.000000       14.0270           0
   22830 HMM0 178  SCSE C1   SCSE   0.000000       14.0270           0
   22831 HMM0 178  SCSE C2   SCSE   0.000000       14.0270           0
   22832 HMM0 179  SCSE C1   SCSE   0.000000       14.0270           0
   22833 HMM0 179  SCSE C2   SCSE   0.000000       14.0270           0
   22834 HMM0 180  SCSE C1   SCSE   0.000000       14.0270           0
   22835 HMM0 180  SCSE C2   SCSE   0.000000       14.0270           0
   22836 HMM0 181  SCSE C1   SCSE   0.000000       14.0270           0
   22837 HMM0 181  SCSE C2   SCSE   0.000000       14.0270           0
   22838 HMM0 182  SCSE C1   SCSE   0.000000       14.0270           0
   22839 HMM0 182  SCSE C2   SCSE   0.000000       14.0270           0
   22840 HMM0 183  SCSE C1   SCSE   0.000000       14.0270           0
   22841 HMM0 183  SCSE C2   SCSE   0.000000       14.0270           0
   22842 HMM0 184  SCSE C1   SCSE   0.000000       14.0270           0
   22843 HMM0 184  SCSE C2   SCSE   0.000000       14.0270           0
   22844 HMM0 185  SCSE C1   SCSE   0.000000       14.0270           0
   22845 HMM0 185  SCSE C2   SCSE   0.000000       14.0270           0
   22846 HMM0 186  SCSE C1   SCSE   0.000000       14.0270           0
   22847 HMM0 186  SCSE C2   SCSE   0.000000       14.0270           0
   22848 HMM0 187  SCSE C1   SCSE   0.000000       14.0270           0
   22849 HMM0 187  SCSE C2   SCSE   0.000000       14.0270           0
   22850 HMM0 188  SCSE C1   SCSE   0.000000       14.0270           0
   22851 HMM0 188  SCSE C2   SCSE   0.000000       14.0270           0
   22852 HMM0 189  SCSE C1   SCSE   0.000000       14.0270           0
   22853 HMM0 189  SCSE C2   SCSE   0.000000       14.0270           0
   22854 HMM0 190  SCSE C1   SCSE   0.000000       14.0270           0
   22855 HMM0 190  SCSE C2   SCSE   0.000000       14.0270           0
   22856 HMM0 191  SCSE C1   SCSE   0.000000       14.0270           0
   22857 HMM0 191  SCSE C2   SCSE   0.000000       14.0270           0
   22858 HMM0 192  SCSE C1   SCSE   0.000000       14.0270           0
   22859 HMM0 192  SCSE C2   SCSE   0.000000       14.0270           0
   22860 HMM0 193  SCSE C1   SCSE   0.000000       14.0270           0
   22861 HMM0 193  SCSE C2   SCSE   0.000000       14.0270           0
   22862 HMM0 194  SCSE C1   SCSE   0.000000       14.0270           0
   22863 HMM0 194  SCSE C2   SCSE   0.000000       14.0270           0
   22864 HMM0 195  SCSE C1   SCSE   0.000000       14.0270           0
   22865 HMM0 195  SCSE C2   SCSE   0.000000       14.0270           0
   22866 HMM0 196  SCSE C1   SCSE   0.000000       14.0270           0
   22867 HMM0 196  SCSE C2   SCSE   0.000000       14.0270           0
   22868 HMM0 197  SCSE C1   SCSE   0.000000       14.0270           0
   22869 HMM0 197  SCSE C2   SCSE   0.000000       14.0270           0
   22870 HMM0 198  SCSE C1   SCSE   0.000000       14.0270           0
   22871 HMM0 198  SCSE C2   SCSE   0.000000       14.0270           0
   22872 HMM0 199  SCSE C1   SCSE   0.000000       14.0270           0
   22873 HMM0 199  SCSE C2   SCSE   0.000000       14.0270           0
   22874 HMM0 200  SCSE C1   SCSE   0.000000       14.0270           0
   22875 HMM0 200  SCSE C2   SCSE   0.000000       14.0270           0
   22876 HMM0 201  SCSE C1   SCSE   0.000000       14.0270           0
   22877 HMM0 201  SCSE C2   SCSE   0.000000       14.0270           0
   22878 HMM0 202  SCSE C1   SCSE   0.000000       14.0270           0
   22879 HMM0 202  SCSE C2   SCSE   0.000000       14.0270           0
   22880 HMM0 203  SCSE C1   SCSE   0.000000       14.0270           0
   22881 HMM0 203  SCSE C2   SCSE   0.000000       14.0270           0
   22882 HMM0 204  SCSE C1   SCSE   0.000000       14.0270           0
   22883 HMM0 204  SCSE C2   SCSE   0.000000       14.0270           0
   22884 HMM0 205  SCSE C1   SCSE   0.000000       14.0270           0
   22885 HMM0 205  SCSE C2   SCSE   0.000000       14.0270           0
   22886 HMM0 206  SCSE C1   SCSE   0.000000       14.0270           0
   22887 HMM0 206  SCSE C2   SCSE   0.000000       14.0270           0
   22888 HMM0 207  SCSE C1   SCSE   0.000000       14.0270           0
   22889 HMM0 207  SCSE C2   SCSE   0.000000       14.0270           0
   22890 HMM0 208  SCSE C1   SCSE   0.000000       14.0270           0
   22891 HMM0 208  SCSE C2   SCSE   0.000000       14.0270           0
   22892 HMM0 209  SCSE C1   SCSE   0.000000       14.0270           0
   22893 HMM0 209  SCSE C2   SCSE   0.000000       14.0270           0
   22894 HMM0 210  SCSE C1   SCSE   0.000000       14.0270           0
   22895 HMM0 210  SCSE C2   SCSE   0.000000       14.0270           0
   22896 HMM0 211  SCSE C1   SCSE   0.000000       14.0270           0
   22897 HMM0 211  SCSE C2   SCSE   0.000000       14.0270           0
   22898 HMM0 212  SCSE C1   SCSE   0.000000       14.0270           0
   22899 HMM0 212  SCSE C2   SCSE   0.000000       14.0270           0
   22900 HMM0 213  SCSE C1   SCSE   0.000000       14.0270           0
   22901 HMM0 213  SCSE C2   SCSE   0.000000       14.0270           0
   22902 HMM0 214  SCSE C1   SCSE   0.000000       14.0270           0
   22903 HMM0 214  SCSE C2   SCSE   0.000000       14.0270           0
   22904 HMM0 215  SCSE C1   SCSE   0.000000       14.0270           0
   22905 HMM0 215  SCSE C2   SCSE   0.000000       14.0270           0
   22906 HMM0 216  SCSE C1   SCSE   0.000000       14.0270           0
   22907 HMM0 216  SCSE C2   SCSE   0.000000       14.0270           0
   22908 HMM0 217  SCSE C1   SCSE   0.000000       14.0270           0
   22909 HMM0 217  SCSE C2   SCSE   0.000000       14.0270           0
   22910 HMM0 218  SCSE C1   SCSE   0.000000       14.0270           0
   22911 HMM0 218  SCSE C2   SCSE   0.000000       14.0270           0
   22912 HMM0 219  SCSE C1   SCSE   0.000000       14.0270           0
   22913 HMM0 219  SCSE C2   SCSE   0.000000       14.0270           0
   22914 HMM0 220  SCSE C1   SCSE   0.000000       14.0270           0
   22915 HMM0 220  SCSE C2   SCSE   0.000000       14.0270           0
   22916 HMM0 221  SCSE C1   SCSE   0.000000       14.0270           0
   22917 HMM0 221  SCSE C2   SCSE   0.000000       14.0270           0
   22918 HMM0 222  SCSE C1   SCSE   0.000000       14.0270           0
   22919 HMM0 222  SCSE C2   SCSE   0.000000       14.0270           0
   22920 HMM0 223  SCSE C1   SCSE   0.000000       14.0270           0
   22921 HMM0 223  SCSE C2   SCSE   0.000000       14.0270           0
   22922 HMM0 224  SCSE C1   SCSE   0.000000       14.0270           0
   22923 HMM0 224  SCSE C2   SCSE   0.000000       14.0270           0
   22924 HMM0 225  SCSE C1   SCSE   0.000000       14.0270           0
   22925 HMM0 225  SCSE C2   SCSE   0.000000       14.0270           0
   22926 HMM0 226  SCSE C1   SCSE   0.000000       14.0270           0
   22927 HMM0 226  SCSE C2   SCSE   0.000000       14.0270           0
   22928 HMM0 227  SCSE C1   SCSE   0.000000       14.0270           0
   22929 HMM0 227  SCSE C2   SCSE   0.000000       14.0270           0
   22930 HMM0 228  SCSE C1   SCSE   0.000000       14.0270           0
   22931 HMM0 228  SCSE C2   SCSE   0.000000       14.0270           0
   22932 HMM0 229  SCSE C1   SCSE   0.000000       14.0270           0
   22933 HMM0 229  SCSE C2   SCSE   0.000000       14.0270           0
   22934 HMM0 230  SCSE C1   SCSE   0.000000       14.0270           0
   22935 HMM0 230  SCSE C2   SCSE   0.000000       14.0270           0
   22936 HMM0 231  SCSE C1   SCSE   0.000000       14.0270           0
   22937 HMM0 231  SCSE C2   SCSE   0.000000       14.0270           0
   22938 HMM0 232  SCSE C1   SCSE   0.000000       14.0270           0
   22939 HMM0 232  SCSE C2   SCSE   0.000000       14.0270           0
   22940 HMM0 233  SCSE C1   SCSE   0.000000       14.0270           0
   22941 HMM0 233  SCSE C2   SCSE   0.000000       14.0270           0
   22942 HMM0 234  SCSE C1   SCSE   0.000000       14.0270           0
   22943 HMM0 234  SCSE C2   SCSE   0.000000       14.0270           0
   22944 HMM0 235  SCSE C1   SCSE   0.000000       14.0270           0
   22945 HMM0 235  SCSE C2   SCSE   0.000000       14.0270           0
   22946 HMM0 236  SCSE C1   SCSE   0.000000       14.0270           0
   22947 HMM0 236  SCSE C2   SCSE   0.000000       14.0270           0
   22948 HMM0 237  SCSE C1   SCSE   0.000000       14.0270           0
   22949 HMM0 237  SCSE C2   SCSE   0.000000       14.0270           0
   22950 HMM0 238  SCSE C1   SCSE   0.000000       14.0270           0
   22951 HMM0 238  SCSE C2   SCSE   0.000000       14.0270           0
   22952 HMM0 239  SCSE C1   SCSE   0.000000       14.0270           0
   22953 HMM0 239  SCSE C2   SCSE   0.000000       14.0270           0
   22954 HMM0 240  SCSE C1   SCSE   0.000000       14.0270           0
   22955 HMM0 240  SCSE C2   SCSE   0.000000       14.0270           0
   22956 HMM0 241  SCSE C1   SCSE   0.000000       14.0270           0
   22957 HMM0 241  SCSE C2   SCSE   0.000000       14.0270           0
   22958 HMM0 242  SCSE C1   SCSE   0.000000       14.0270           0
   22959 HMM0 242  SCSE C2   SCSE   0.000000       14.0270           0
   22960 HMM0 243  SCSE C1   SCSE   0.000000       14.0270           0
   22961 HMM0 243  SCSE C2   SCSE   0.000000       14.0270           0
   22962 HMM0 244  SCSE C1   SCSE   0.000000       14.0270           0
   22963 HMM0 244  SCSE C2   SCSE   0.000000       14.0270           0
   22964 HMM0 245  SCSE C1   SCSE   0.000000       14.0270           0
   22965 HMM0 245  SCSE C2   SCSE   0.000000       14.0270           0
   22966 HMM0 246  SCSE C1   SCSE   0.000000       14.0270           0
   22967 HMM0 246  SCSE C2   SCSE   0.000000       14.0270           0
   22968 HMM0 247  SCSE C1   SCSE   0.000000       14.0270           0
   22969 HMM0 247  SCSE C2   SCSE   0.000000       14.0270           0
   22970 HMM0 248  SCSE C1   SCSE   0.000000       14.0270           0
   22971 HMM0 248  SCSE C2   SCSE   0.000000       14.0270           0
   22972 HMM0 249  SCSE C1   SCSE   0.000000       14.0270           0
   22973 HMM0 249  SCSE C2   SCSE   0.000000       14.0270           0
   22974 HMM0 250  SCSE C1   SCSE   0.000000       14.0270           0
   22975 HMM0 250  SCSE C2   SCSE   0.000000       14.0270           0
   22976 HMM0 251  SCSE C1   SCSE   0.000000       14.0270           0
   22977 HMM0 251  SCSE C2   SCSE   0.000000       14.0270           0
   22978 HMM0 252  SCSE C1   SCSE   0.000000       14.0270           0
   22979 HMM0 252  SCSE C2   SCSE   0.000000       14.0270           0
   22980 HMM0 253  SCSE C1   SCSE   0.000000       14.0270           0
   22981 HMM0 253  SCSE C2   SCSE   0.000000       14.0270           0
   22982 HMM0 254  SCSE C1   SCSE   0.000000       14.0270           0
   22983 HMM0 254  SCSE C2   SCSE   0.000000       14.0270           0
   22984 HMM0 255  SCSE C1   SCSE   0.000000       14.0270           0
   22985 HMM0 255  SCSE C2   SCSE   0.000000       14.0270           0
   22986 HMM0 256  SCSE C1   SCSE   0.000000       14.0270           0
   22987 HMM0 256  SCSE C2   SCSE   0.000000       14.0270           0
   22988 HMM0 257  SCSE C1   SCSE   0.000000       14.0270           0
   22989 HMM0 257  SCSE C2   SCSE   0.000000       14.0270           0
   22990 HMM0 258  SCSE C1   SCSE   0.000000       14.0270           0
   22991 HMM0 258  SCSE C2   SCSE   0.000000       14.0270           0
   22992 HMM0 259  SCSE C1   SCSE   0.000000       14.0270           0
   22993 HMM0 259  SCSE C2   SCSE   0.000000       14.0270           0
   22994 HMM0 260  SCSE C1   SCSE   0.000000       14.0270           0
   22995 HMM0 260  SCSE C2   SCSE   0.000000       14.0270           0
   22996 HMM0 261  SCSE C1   SCSE   0.000000       14.0270           0
   22997 HMM0 261  SCSE C2   SCSE   0.000000       14.0270           0
   22998 HMM0 262  SCSE C1   SCSE   0.000000       14.0270           0
   22999 HMM0 262  SCSE C2   SCSE   0.000000       14.0270           0
   23000 HMM0 263  SCSE C1   SCSE   0.000000       14.0270           0
   23001 HMM0 263  SCSE C2   SCSE   0.000000       14.0270           0
   23002 HMM0 264  SCSE C1   SCSE   0.000000       14.0270           0
   23003 HMM0 264  SCSE C2   SCSE   0.000000       14.0270           0
   23004 HMM0 265  SCSE C1   SCSE   0.000000       14.0270           0
   23005 HMM0 265  SCSE C2   SCSE   0.000000       14.0270           0
   23006 HMM0 266  SCSE C1   SCSE   0.000000       14.0270           0
   23007 HMM0 266  SCSE C2   SCSE   0.000000       14.0270           0
   23008 HMM0 267  SCSE C1   SCSE   0.000000       14.0270           0
   23009 HMM0 267  SCSE C2   SCSE   0.000000       14.0270           0
   23010 HMM0 268  SCSE C1   SCSE   0.000000       14.0270           0
   23011 HMM0 268  SCSE C2   SCSE   0.000000       14.0270           0
   23012 HMM0 269  SCSE C1   SCSE   0.000000       14.0270           0
   23013 HMM0 269  SCSE C2   SCSE   0.000000       14.0270           0
   23014 HMM0 270  SCSE C1   SCSE   0.000000       14.0270           0
   23015 HMM0 270  SCSE C2   SCSE   0.000000       14.0270           0
   23016 HMM0 271  SCSE C1   SCSE   0.000000       14.0270           0
   23017 HMM0 271  SCSE C2   SCSE   0.000000       14.0270           0
   23018 HMM0 272  SCSE C1   SCSE   0.000000       14.0270           0
   23019 HMM0 272  SCSE C2   SCSE   0.000000       14.0270           0
   23020 HMM0 273  SCSE C1   SCSE   0.000000       14.0270           0
   23021 HMM0 273  SCSE C2   SCSE   0.000000       14.0270           0
   23022 HMM0 274  SCSE C1   SCSE   0.000000       14.0270           0
   23023 HMM0 274  SCSE C2   SCSE   0.000000       14.0270           0
   23024 HMM0 275  SCSE C1   SCSE   0.000000       14.0270           0
   23025 HMM0 275  SCSE C2   SCSE   0.000000       14.0270           0
   23026 HMM0 276  SCSE C1   SCSE   0.000000       14.0270           0
   23027 HMM0 276  SCSE C2   SCSE   0.000000       14.0270           0
   23028 HMM0 277  SCSE C1   SCSE   0.000000       14.0270           0
   23029 HMM0 277  SCSE C2   SCSE   0.000000       14.0270           0
   23030 HMM0 278  SCSE C1   SCSE   0.000000       14.0270           0
   23031 HMM0 278  SCSE C2   SCSE   0.000000       14.0270           0
   23032 HMM0 279  SCSE C1   SCSE   0.000000       14.0270           0
   23033 HMM0 279  SCSE C2   SCSE   0.000000       14.0270           0
   23034 HMM0 280  SCSE C1   SCSE   0.000000       14.0270           0
   23035 HMM0 280  SCSE C2   SCSE   0.000000       14.0270           0
   23036 HMM0 281  SCSE C1   SCSE   0.000000       14.0270           0
   23037 HMM0 281  SCSE C2   SCSE   0.000000       14.0270           0
   23038 HMM0 282  SCSE C1   SCSE   0.000000       14.0270           0
   23039 HMM0 282  SCSE C2   SCSE   0.000000       14.0270           0
   23040 HMM0 283  SCSE C1   SCSE   0.000000       14.0270           0
   23041 HMM0 283  SCSE C2   SCSE   0.000000       14.0270           0
   23042 HMM0 284  SCSE C1   SCSE   0.000000       14.0270           0
   23043 HMM0 284  SCSE C2   SCSE   0.000000       14.0270           0
   23044 HMM0 285  SCSE C1   SCSE   0.000000       14.0270           0
   23045 HMM0 285  SCSE C2   SCSE   0.000000       14.0270           0
   23046 HMM0 286  SCSE C1   SCSE   0.000000       14.0270           0
   23047 HMM0 286  SCSE C2   SCSE   0.000000       14.0270           0
   23048 HMM0 287  SCSE C1   SCSE   0.000000       14.0270           0
   23049 HMM0 287  SCSE C2   SCSE   0.000000       14.0270           0
   23050 HMM0 288  SCSE C1   SCSE   0.000000       14.0270           0
   23051 HMM0 288  SCSE C2   SCSE   0.000000       14.0270           0
   23052 HMM0 289  SCSE C1   SCSE   0.000000       14.0270           0
   23053 HMM0 289  SCSE C2   SCSE   0.000000       14.0270           0
   23054 HMM0 290  SCSE C1   SCSE   0.000000       14.0270           0
   23055 HMM0 290  SCSE C2   SCSE   0.000000       14.0270           0
   23056 HMM0 291  SCSE C1   SCSE   0.000000       14.0270           0
   23057 HMM0 291  SCSE C2   SCSE   0.000000       14.0270           0
   23058 HMM0 292  SCSE C1   SCSE   0.000000       14.0270           0
   23059 HMM0 292  SCSE C2   SCSE   0.000000       14.0270           0
   23060 HMM0 293  SCSE C1   SCSE   0.000000       14.0270           0
   23061 HMM0 293  SCSE C2   SCSE   0.000000       14.0270           0
   23062 HMM0 294  SCSE C1   SCSE   0.000000       14.0270           0
   23063 HMM0 294  SCSE C2   SCSE   0.000000       14.0270           0
   23064 HMM0 295  SCSE C1   SCSE   0.000000       14.0270           0
   23065 HMM0 295  SCSE C2   SCSE   0.000000       14.0270           0
   23066 HMM0 296  SCSE C1   SCSE   0.000000       14.0270           0
   23067 HMM0 296  SCSE C2   SCSE   0.000000       14.0270           0
   23068 HMM0 297  SCSE C1   SCSE   0.000000       14.0270           0
   23069 HMM0 297  SCSE C2   SCSE   0.000000       14.0270           0
   23070 HMM0 298  SCSE C1   SCSE   0.000000       14.0270           0
   23071 HMM0 298  SCSE C2   SCSE   0.000000       14.0270           0
   23072 HMM0 299  SCSE C1   SCSE   0.000000       14.0270           0
   23073 HMM0 299  SCSE C2   SCSE   0.000000       14.0270           0
   23074 HMM0 300  SCSE C1   SCSE   0.000000       14.0270           0
   23075 HMM0 300  SCSE C2   SCSE   0.000000       14.0270           0
   23076 HMM0 301  SCSE C1   SCSE   0.000000       14.0270           0
   23077 HMM0 301  SCSE C2   SCSE   0.000000       14.0270           0
   23078 HMM0 302  SCSE C1   SCSE   0.000000       14.0270           0
   23079 HMM0 302  SCSE C2   SCSE   0.000000       14.0270           0
   23080 HMM0 303  SCSE C1   SCSE   0.000000       14.0270           0
   23081 HMM0 303  SCSE C2   SCSE   0.000000       14.0270           0
   23082 HMM0 304  SCSE C1   SCSE   0.000000       14.0270           0
   23083 HMM0 304  SCSE C2   SCSE   0.000000       14.0270           0
   23084 HMM0 305  SCSE C1   SCSE   0.000000       14.0270           0
   23085 HMM0 305  SCSE C2   SCSE   0.000000       14.0270           0
   23086 HMM0 306  SCSE C1   SCSE   0.000000       14.0270           0
   23087 HMM0 306  SCSE C2   SCSE   0.000000       14.0270           0
   23088 HMM0 307  SCSE C1   SCSE   0.000000       14.0270           0
   23089 HMM0 307  SCSE C2   SCSE   0.000000       14.0270           0
   23090 HMM0 308  SCSE C1   SCSE   0.000000       14.0270           0
   23091 HMM0 308  SCSE C2   SCSE   0.000000       14.0270           0
   23092 HMM0 309  SCSE C1   SCSE   0.000000       14.0270           0
   23093 HMM0 309  SCSE C2   SCSE   0.000000       14.0270           0
   23094 HMM0 310  SCSE C1   SCSE   0.000000       14.0270           0
   23095 HMM0 310  SCSE C2   SCSE   0.000000       14.0270           0
   23096 HMM0 311  SCSE C1   SCSE   0.000000       14.0270           0
   23097 HMM0 311  SCSE C2   SCSE   0.000000       14.0270           0
   23098 HMM0 312  SCSE C1   SCSE   0.000000       14.0270           0
   23099 HMM0 312  SCSE C2   SCSE   0.000000       14.0270           0
   23100 HMM0 313  SCSE C1   SCSE   0.000000       14.0270           0
   23101 HMM0 313  SCSE C2   SCSE   0.000000       14.0270           0
   23102 HMM0 314  SCSE C1   SCSE   0.000000       14.0270           0
   23103 HMM0 314  SCSE C2   SCSE   0.000000       14.0270           0
   23104 HMM0 315  SCSE C1   SCSE   0.000000       14.0270           0
   23105 HMM0 315  SCSE C2   SCSE   0.000000       14.0270           0
   23106 HMM0 316  SCSE C1   SCSE   0.000000       14.0270           0
   23107 HMM0 316  SCSE C2   SCSE   0.000000       14.0270           0
   23108 HMM0 317  SCSE C1   SCSE   0.000000       14.0270           0
   23109 HMM0 317  SCSE C2   SCSE   0.000000       14.0270           0
   23110 HMM0 318  SCSE C1   SCSE   0.000000       14.0270           0
   23111 HMM0 318  SCSE C2   SCSE   0.000000       14.0270           0
   23112 HMM0 319  SCSE C1   SCSE   0.000000       14.0270           0
   23113 HMM0 319  SCSE C2   SCSE   0.000000       14.0270           0
   23114 HMM0 320  SCSE C1   SCSE   0.000000       14.0270           0
   23115 HMM0 320  SCSE C2   SCSE   0.000000       14.0270           0
   23116 HMM0 321  SCSE C1   SCSE   0.000000       14.0270           0
   23117 HMM0 321  SCSE C2   SCSE   0.000000       14.0270           0
   23118 HMM0 322  SCSE C1   SCSE   0.000000       14.0270           0
   23119 HMM0 322  SCSE C2   SCSE   0.000000       14.0270           0
   23120 HMM0 323  SCSE C1   SCSE   0.000000       14.0270           0
   23121 HMM0 323  SCSE C2   SCSE   0.000000       14.0270           0
   23122 HMM0 324  SCSE C1   SCSE   0.000000       14.0270           0
   23123 HMM0 324  SCSE C2   SCSE   0.000000       14.0270           0
   23124 HMM0 325  SCSE C1   SCSE   0.000000       14.0270           0
   23125 HMM0 325  SCSE C2   SCSE   0.000000       14.0270           0
   23126 HMM0 326  SCSE C1   SCSE   0.000000       14.0270           0
   23127 HMM0 326  SCSE C2   SCSE   0.000000       14.0270           0
   23128 HMM0 327  SCSE C1   SCSE   0.000000       14.0270           0
   23129 HMM0 327  SCSE C2   SCSE   0.000000       14.0270           0
   23130 HMM0 328  SCSE C1   SCSE   0.000000       14.0270           0
   23131 HMM0 328  SCSE C2   SCSE   0.000000       14.0270           0
   23132 HMM0 329  SCSE C1   SCSE   0.000000       14.0270           0
   23133 HMM0 329  SCSE C2   SCSE   0.000000       14.0270           0
   23134 HMM0 330  SCSE C1   SCSE   0.000000       14.0270           0
   23135 HMM0 330  SCSE C2   SCSE   0.000000       14.0270           0
   23136 HMM0 331  SCSE C1   SCSE   0.000000       14.0270           0
   23137 HMM0 331  SCSE C2   SCSE   0.000000       14.0270           0
   23138 HMM0 332  SCSE C1   SCSE   0.000000       14.0270           0
   23139 HMM0 332  SCSE C2   SCSE   0.000000       14.0270           0
   23140 HMM0 333  SCSE C1   SCSE   0.000000       14.0270           0
   23141 HMM0 333  SCSE C2   SCSE   0.000000       14.0270           0
   23142 HMM0 334  SCSE C1   SCSE   0.000000       14.0270           0
   23143 HMM0 334  SCSE C2   SCSE   0.000000       14.0270           0
   23144 HMM0 335  SCSE C1   SCSE   0.000000       14.0270           0
   23145 HMM0 335  SCSE C2   SCSE   0.000000       14.0270           0
   23146 HMM0 336  SCSE C1   SCSE   0.000000       14.0270           0
   23147 HMM0 336  SCSE C2   SCSE   0.000000       14.0270           0
   23148 HMM0 337  SCSE C1   SCSE   0.000000       14.0270           0
   23149 HMM0 337  SCSE C2   SCSE   0.000000       14.0270           0
   23150 HMM0 338  SCSE C1   SCSE   0.000000       14.0270           0
   23151 HMM0 338  SCSE C2   SCSE   0.000000       14.0270           0
   23152 HMM0 339  SCSE C1   SCSE   0.000000       14.0270           0
   23153 HMM0 339  SCSE C2   SCSE   0.000000       14.0270           0
   23154 HMM0 340  SCSE C1   SCSE   0.000000       14.0270           0
   23155 HMM0 340  SCSE C2   SCSE   0.000000       14.0270           0
   23156 HMM0 341  SCSE C1   SCSE   0.000000       14.0270           0
   23157 HMM0 341  SCSE C2   SCSE   0.000000       14.0270           0
   23158 HMM0 342  SCSE C1   SCSE   0.000000       14.0270           0
   23159 HMM0 342  SCSE C2   SCSE   0.000000       14.0270           0
   23160 HMM0 343  SCSE C1   SCSE   0.000000       14.0270           0
   23161 HMM0 343  SCSE C2   SCSE   0.000000       14.0270           0
   23162 HMM0 344  SCSE C1   SCSE   0.000000       14.0270           0
   23163 HMM0 344  SCSE C2   SCSE   0.000000       14.0270           0
   23164 HMM0 345  SCSE C1   SCSE   0.000000       14.0270           0
   23165 HMM0 345  SCSE C2   SCSE   0.000000       14.0270           0
   23166 HMM0 346  SCSE C1   SCSE   0.000000       14.0270           0
   23167 HMM0 346  SCSE C2   SCSE   0.000000       14.0270           0
   23168 HMM0 347  SCSE C1   SCSE   0.000000       14.0270           0
   23169 HMM0 347  SCSE C2   SCSE   0.000000       14.0270           0
   23170 HMM0 348  SCSE C1   SCSE   0.000000       14.0270           0
   23171 HMM0 348  SCSE C2   SCSE   0.000000       14.0270           0
   23172 HMM0 349  SCSE C1   SCSE   0.000000       14.0270           0
   23173 HMM0 349  SCSE C2   SCSE   0.000000       14.0270           0
   23174 HMM0 350  SCSE C1   SCSE   0.000000       14.0270           0
   23175 HMM0 350  SCSE C2   SCSE   0.000000       14.0270           0
   23176 HMM0 351  SCSE C1   SCSE   0.000000       14.0270           0
   23177 HMM0 351  SCSE C2   SCSE   0.000000       14.0270           0
   23178 HMM0 352  SCSE C1   SCSE   0.000000       14.0270           0
   23179 HMM0 352  SCSE C2   SCSE   0.000000       14.0270           0
   23180 HMM0 353  SCSE C1   SCSE   0.000000       14.0270           0
   23181 HMM0 353  SCSE C2   SCSE   0.000000       14.0270           0
   23182 HMM0 354  SCSE C1   SCSE   0.000000       14.0270           0
   23183 HMM0 354  SCSE C2   SCSE   0.000000       14.0270           0
   23184 HMM0 355  SCSE C1   SCSE   0.000000       14.0270           0
   23185 HMM0 355  SCSE C2   SCSE   0.000000       14.0270           0
   23186 HMM0 356  SCSE C1   SCSE   0.000000       14.0270           0
   23187 HMM0 356  SCSE C2   SCSE   0.000000       14.0270           0
   23188 HMM0 357  SCSE C1   SCSE   0.000000       14.0270           0
   23189 HMM0 357  SCSE C2   SCSE   0.000000       14.0270           0
   23190 HMM0 358  SCSE C1   SCSE   0.000000       14.0270           0
   23191 HMM0 358  SCSE C2   SCSE   0.000000       14.0270           0
   23192 HMM0 359  SCSE C1   SCSE   0.000000       14.0270           0
   23193 HMM0 359  SCSE C2   SCSE   0.000000       14.0270           0
   23194 HMM0 360  SCSE C1   SCSE   0.000000       14.0270           0
   23195 HMM0 360  SCSE C2   SCSE   0.000000       14.0270           0
   23196 HMM0 361  SCSE C1   SCSE   0.000000       14.0270           0
   23197 HMM0 361  SCSE C2   SCSE   0.000000       14.0270           0
   23198 HMM0 362  SCSE C1   SCSE   0.000000       14.0270           0
   23199 HMM0 362  SCSE C2   SCSE   0.000000       14.0270           0
   23200 HMM0 363  SCSE C1   SCSE   0.000000       14.0270           0
   23201 HMM0 363  SCSE C2   SCSE   0.000000       14.0270           0
   23202 HMM0 364  SCSE C1   SCSE   0.000000       14.0270           0
   23203 HMM0 364  SCSE C2   SCSE   0.000000       14.0270           0
   23204 HMM0 365  SCSE C1   SCSE   0.000000       14.0270           0
   23205 HMM0 365  SCSE C2   SCSE   0.000000       14.0270           0
   23206 HMM0 366  SCSE C1   SCSE   0.000000       14.0270           0
   23207 HMM0 366  SCSE C2   SCSE   0.000000       14.0270           0
   23208 HMM0 367  SCSE C1   SCSE   0.000000       14.0270           0
   23209 HMM0 367  SCSE C2   SCSE   0.000000       14.0270           0
   23210 HMM0 368  SCSE C1   SCSE   0.000000       14.0270           0
   23211 HMM0 368  SCSE C2   SCSE   0.000000       14.0270           0
   23212 HMM0 369  SCSE C1   SCSE   0.000000       14.0270           0
   23213 HMM0 369  SCSE C2   SCSE   0.000000       14.0270           0
   23214 HMM0 370  SCSE C1   SCSE   0.000000       14.0270           0
   23215 HMM0 370  SCSE C2   SCSE   0.000000       14.0270           0
   23216 HMM0 371  SCSE C1   SCSE   0.000000       14.0270           0
   23217 HMM0 371  SCSE C2   SCSE   0.000000       14.0270           0
   23218 HMM0 372  SCSE C1   SCSE   0.000000       14.0270           0
   23219 HMM0 372  SCSE C2   SCSE   0.000000       14.0270           0
   23220 HMM0 373  SCSE C1   SCSE   0.000000       14.0270           0
   23221 HMM0 373  SCSE C2   SCSE   0.000000       14.0270           0
   23222 HMM0 374  SCSE C1   SCSE   0.000000       14.0270           0
   23223 HMM0 374  SCSE C2   SCSE   0.000000       14.0270           0
   23224 HMM0 375  SCSE C1   SCSE   0.000000       14.0270           0
   23225 HMM0 375  SCSE C2   SCSE   0.000000       14.0270           0
   23226 HMM0 376  SCSE C1   SCSE   0.000000       14.0270           0
   23227 HMM0 376  SCSE C2   SCSE   0.000000       14.0270           0
   23228 HMM0 377  SCSE C1   SCSE   0.000000       14.0270           0
   23229 HMM0 377  SCSE C2   SCSE   0.000000       14.0270           0
   23230 HMM0 378  SCSE C1   SCSE   0.000000       14.0270           0
   23231 HMM0 378  SCSE C2   SCSE   0.000000       14.0270           0
   23232 HMM0 379  SCSE C1   SCSE   0.000000       14.0270           0
   23233 HMM0 379  SCSE C2   SCSE   0.000000       14.0270           0
   23234 HMM0 380  SCSE C1   SCSE   0.000000       14.0270           0
   23235 HMM0 380  SCSE C2   SCSE   0.000000       14.0270           0
   23236 HMM0 381  SCSE C1   SCSE   0.000000       14.0270           0
   23237 HMM0 381  SCSE C2   SCSE   0.000000       14.0270           0
   23238 HMM0 382  SCSE C1   SCSE   0.000000       14.0270           0
   23239 HMM0 382  SCSE C2   SCSE   0.000000       14.0270           0
   23240 HMM0 383  SCSE C1   SCSE   0.000000       14.0270           0
   23241 HMM0 383  SCSE C2   SCSE   0.000000       14.0270           0
   23242 HMM0 384  SCSE C1   SCSE   0.000000       14.0270           0
   23243 HMM0 384  SCSE C2   SCSE   0.000000       14.0270           0
   23244 HMM0 385  SCSE C1   SCSE   0.000000       14.0270           0
   23245 HMM0 385  SCSE C2   SCSE   0.000000       14.0270           0
   23246 HMM0 386  SCSE C1   SCSE   0.000000       14.0270           0
   23247 HMM0 386  SCSE C2   SCSE   0.000000       14.0270           0
   23248 HMM0 387  SCSE C1   SCSE   0.000000       14.0270           0
   23249 HMM0 387  SCSE C2   SCSE   0.000000       14.0270           0
   23250 HMM0 388  SCSE C1   SCSE   0.000000       14.0270           0
   23251 HMM0 388  SCSE C2   SCSE   0.000000       14.0270           0
   23252 HMM0 389  SCSE C1   SCSE   0.000000       14.0270           0
   23253 HMM0 389  SCSE C2   SCSE   0.000000       14.0270           0
   23254 HMM0 390  SCSE C1   SCSE   0.000000       14.0270           0
   23255 HMM0 390  SCSE C2   SCSE   0.000000       14.0270           0
   23256 HMM0 391  SCSE C1   SCSE   0.000000       14.0270           0
   23257 HMM0 391  SCSE C2   SCSE   0.000000       14.0270           0
   23258 HMM0 392  SCSE C1   SCSE   0.000000       14.0270           0
   23259 HMM0 392  SCSE C2   SCSE   0.000000       14.0270           0
   23260 HMM0 393  SCSE C1   SCSE   0.000000       14.0270           0
   23261 HMM0 393  SCSE C2   SCSE   0.000000       14.0270           0
   23262 HMM0 394  SCSE C1   SCSE   0.000000       14.0270           0
   23263 HMM0 394  SCSE C2   SCSE   0.000000       14.0270           0
   23264 HMM0 395  SCSE C1   SCSE   0.000000       14.0270           0
   23265 HMM0 395  SCSE C2   SCSE   0.000000       14.0270           0
   23266 HMM0 396  SCSE C1   SCSE   0.000000       14.0270           0
   23267 HMM0 396  SCSE C2   SCSE   0.000000       14.0270           0
   23268 HMM0 397  SCSE C1   SCSE   0.000000       14.0270           0
   23269 HMM0 397  SCSE C2   SCSE   0.000000       14.0270           0
   23270 HMM0 398  SCSE C1   SCSE   0.000000       14.0270           0
   23271 HMM0 398  SCSE C2   SCSE   0.000000       14.0270           0
   23272 HMM0 399  SCSE C1   SCSE   0.000000       14.0270           0
   23273 HMM0 399  SCSE C2   SCSE   0.000000       14.0270           0
   23274 HMM0 400  SCSE C1   SCSE   0.000000       14.0270           0
   23275 HMM0 400  SCSE C2   SCSE   0.000000       14.0270           0
   23276 HMM0 401  SCSE C1   SCSE   0.000000       14.0270           0
   23277 HMM0 401  SCSE C2   SCSE   0.000000       14.0270           0
   23278 HMM0 402  SCSE C1   SCSE   0.000000       14.0270           0
   23279 HMM0 402  SCSE C2   SCSE   0.000000       14.0270           0
   23280 HMM0 403  SCSE C1   SCSE   0.000000       14.0270           0
   23281 HMM0 403  SCSE C2   SCSE   0.000000       14.0270           0
   23282 HMM0 404  SCSE C1   SCSE   0.000000       14.0270           0
   23283 HMM0 404  SCSE C2   SCSE   0.000000       14.0270           0
   23284 HMM0 405  SCSE C1   SCSE   0.000000       14.0270           0
   23285 HMM0 405  SCSE C2   SCSE   0.000000       14.0270           0
   23286 HMM0 406  SCSE C1   SCSE   0.000000       14.0270           0
   23287 HMM0 406  SCSE C2   SCSE   0.000000       14.0270           0
   23288 HMM0 407  SCSE C1   SCSE   0.000000       14.0270           0
   23289 HMM0 407  SCSE C2   SCSE   0.000000       14.0270           0
   23290 HMM0 408  SCSE C1   SCSE   0.000000       14.0270           0
   23291 HMM0 408  SCSE C2   SCSE   0.000000       14.0270           0
   23292 HMM0 409  SCSE C1   SCSE   0.000000       14.0270           0
   23293 HMM0 409  SCSE C2   SCSE   0.000000       14.0270           0
   23294 HMM0 410  SCSE C1   SCSE   0.000000       14.0270           0
   23295 HMM0 410  SCSE C2   SCSE   0.000000       14.0270           0
   23296 HMM0 411  SCSE C1   SCSE   0.000000       14.0270           0
   23297 HMM0 411  SCSE C2   SCSE   0.000000       14.0270           0
   23298 HMM0 412  SCSE C1   SCSE   0.000000       14.0270           0
   23299 HMM0 412  SCSE C2   SCSE   0.000000       14.0270           0
   23300 HMM0 413  SCSE C1   SCSE   0.000000       14.0270           0
   23301 HMM0 413  SCSE C2   SCSE   0.000000       14.0270           0
   23302 HMM0 414  SCSE C1   SCSE   0.000000       14.0270           0
   23303 HMM0 414  SCSE C2   SCSE   0.000000       14.0270           0
   23304 HMM0 415  SCSE C1   SCSE   0.000000       14.0270           0
   23305 HMM0 415  SCSE C2   SCSE   0.000000       14.0270           0
   23306 HMM0 416  SCSE C1   SCSE   0.000000       14.0270           0
   23307 HMM0 416  SCSE C2   SCSE   0.000000       14.0270           0
   23308 HMM0 417  SCSE C1   SCSE   0.000000       14.0270           0
   23309 HMM0 417  SCSE C2   SCSE   0.000000       14.0270           0
   23310 HMM0 418  SCSE C1   SCSE   0.000000       14.0270           0
   23311 HMM0 418  SCSE C2   SCSE   0.000000       14.0270           0
   23312 HMM0 419  SCSE C1   SCSE   0.000000       14.0270           0
   23313 HMM0 419  SCSE C2   SCSE   0.000000       14.0270           0
   23314 HMM0 420  SCSE C1   SCSE   0.000000       14.0270           0
   23315 HMM0 420  SCSE C2   SCSE   0.000000       14.0270           0
   23316 HMM0 421  SCSE C1   SCSE   0.000000       14.0270           0
   23317 HMM0 421  SCSE C2   SCSE   0.000000       14.0270           0
   23318 HMM0 422  SCSE C1   SCSE   0.000000       14.0270           0
   23319 HMM0 422  SCSE C2   SCSE   0.000000       14.0270           0
   23320 HMM0 423  SCSE C1   SCSE   0.000000       14.0270           0
   23321 HMM0 423  SCSE C2   SCSE   0.000000       14.0270           0
   23322 HMM0 424  SCSE C1   SCSE   0.000000       14.0270           0
   23323 HMM0 424  SCSE C2   SCSE   0.000000       14.0270           0
   23324 HMM0 425  SCSE C1   SCSE   0.000000       14.0270           0
   23325 HMM0 425  SCSE C2   SCSE   0.000000       14.0270           0
   23326 HMM0 426  SCSE C1   SCSE   0.000000       14.0270           0
   23327 HMM0 426  SCSE C2   SCSE   0.000000       14.0270           0
   23328 HMM0 427  SCSE C1   SCSE   0.000000       14.0270           0
   23329 HMM0 427  SCSE C2   SCSE   0.000000       14.0270           0
   23330 HMM0 428  SCSE C1   SCSE   0.000000       14.0270           0
   23331 HMM0 428  SCSE C2   SCSE   0.000000       14.0270           0
   23332 HMM0 429  SCSE C1   SCSE   0.000000       14.0270           0
   23333 HMM0 429  SCSE C2   SCSE   0.000000       14.0270           0
   23334 HMM0 430  SCSE C1   SCSE   0.000000       14.0270           0
   23335 HMM0 430  SCSE C2   SCSE   0.000000       14.0270           0
   23336 HMM0 431  SCSE C1   SCSE   0.000000       14.0270           0
   23337 HMM0 431  SCSE C2   SCSE   0.000000       14.0270           0
   23338 HMM0 432  SCSE C1   SCSE   0.000000       14.0270           0
   23339 HMM0 432  SCSE C2   SCSE   0.000000       14.0270           0
   23340 HMM0 433  SCSE C1   SCSE   0.000000       14.0270           0
   23341 HMM0 433  SCSE C2   SCSE   0.000000       14.0270           0
   23342 HMM0 434  SCSE C1   SCSE   0.000000       14.0270           0
   23343 HMM0 434  SCSE C2   SCSE   0.000000       14.0270           0
   23344 HMM0 435  SCSE C1   SCSE   0.000000       14.0270           0
   23345 HMM0 435  SCSE C2   SCSE   0.000000       14.0270           0
   23346 HMM0 436  SCSE C1   SCSE   0.000000       14.0270           0
   23347 HMM0 436  SCSE C2   SCSE   0.000000       14.0270           0
   23348 HMM0 437  SCSE C1   SCSE   0.000000       14.0270           0
   23349 HMM0 437  SCSE C2   SCSE   0.000000       14.0270           0
   23350 HMM0 438  SCSE C1   SCSE   0.000000       14.0270           0
   23351 HMM0 438  SCSE C2   SCSE   0.000000       14.0270           0
   23352 HMM0 439  SCSE C1   SCSE   0.000000       14.0270           0
   23353 HMM0 439  SCSE C2   SCSE   0.000000       14.0270           0
   23354 HMM0 440  SCSE C1   SCSE   0.000000       14.0270           0
   23355 HMM0 440  SCSE C2   SCSE   0.000000       14.0270           0
   23356 HMM0 441  SCSE C1   SCSE   0.000000       14.0270           0
   23357 HMM0 441  SCSE C2   SCSE   0.000000       14.0270           0
   23358 HMM0 442  SCSE C1   SCSE   0.000000       14.0270           0
   23359 HMM0 442  SCSE C2   SCSE   0.000000       14.0270           0
   23360 HMM0 443  SCSE C1   SCSE   0.000000       14.0270           0
   23361 HMM0 443  SCSE C2   SCSE   0.000000       14.0270           0
   23362 HMM0 444  SCSE C1   SCSE   0.000000       14.0270           0
   23363 HMM0 444  SCSE C2   SCSE   0.000000       14.0270           0
   23364 HMM0 445  SCSE C1   SCSE   0.000000       14.0270           0
   23365 HMM0 445  SCSE C2   SCSE   0.000000       14.0270           0
   23366 HMM0 446  SCSE C1   SCSE   0.000000       14.0270           0
   23367 HMM0 446  SCSE C2   SCSE   0.000000       14.0270           0
   23368 HMM0 447  SCSE C1   SCSE   0.000000       14.0270           0
   23369 HMM0 447  SCSE C2   SCSE   0.000000       14.0270           0
   23370 HMM0 448  SCSE C1   SCSE   0.000000       14.0270           0
   23371 HMM0 448  SCSE C2   SCSE   0.000000       14.0270           0
   23372 HMM0 449  SCSE C1   SCSE   0.000000       14.0270           0
   23373 HMM0 449  SCSE C2   SCSE   0.000000       14.0270           0
   23374 HMM0 450  SCSE C1   SCSE   0.000000       14.0270           0
   23375 HMM0 450  SCSE C2   SCSE   0.000000       14.0270           0
   23376 HMM0 451  SCSE C1   SCSE   0.000000       14.0270           0
   23377 HMM0 451  SCSE C2   SCSE   0.000000       14.0270           0
   23378 HMM0 452  SCSE C1   SCSE   0.000000       14.0270           0
   23379 HMM0 452  SCSE C2   SCSE   0.000000       14.0270           0
   23380 HMM0 453  SCSE C1   SCSE   0.000000       14.0270           0
   23381 HMM0 453  SCSE C2   SCSE   0.000000       14.0270           0
   23382 HMM0 454  SCSE C1   SCSE   0.000000       14.0270           0
   23383 HMM0 454  SCSE C2   SCSE   0.000000       14.0270           0
   23384 HMM0 455  SCSE C1   SCSE   0.000000       14.0270           0
   23385 HMM0 455  SCSE C2   SCSE   0.000000       14.0270           0
   23386 HMM0 456  SCSE C1   SCSE   0.000000       14.0270           0
   23387 HMM0 456  SCSE C2   SCSE   0.000000       14.0270           0
   23388 HMM0 457  SCSE C1   SCSE   0.000000       14.0270           0
   23389 HMM0 457  SCSE C2   SCSE   0.000000       14.0270           0
   23390 HMM0 458  SCSE C1   SCSE   0.000000       14.0270           0
   23391 HMM0 458  SCSE C2   SCSE   0.000000       14.0270           0
   23392 HMM0 459  SCSE C1   SCSE   0.000000       14.0270           0
   23393 HMM0 459  SCSE C2   SCSE   0.000000       14.0270           0
   23394 HMM0 460  SCSE C1   SCSE   0.000000       14.0270           0
   23395 HMM0 460  SCSE C2   SCSE   0.000000       14.0270           0
   23396 HMM0 461  SCSE C1   SCSE   0.000000       14.0270           0
   23397 HMM0 461  SCSE C2   SCSE   0.000000       14.0270           0
   23398 HMM0 462  SCSE C1   SCSE   0.000000       14.0270           0
   23399 HMM0 462  SCSE C2   SCSE   0.000000       14.0270           0
   23400 HMM0 463  SCSE C1   SCSE   0.000000       14.0270           0
   23401 HMM0 463  SCSE C2   SCSE   0.000000       14.0270           0
   23402 HMM0 464  SCSE C1   SCSE   0.000000       14.0270           0
   23403 HMM0 464  SCSE C2   SCSE   0.000000       14.0270           0
   23404 HMM0 465  SCSE C1   SCSE   0.000000       14.0270           0
   23405 HMM0 465  SCSE C2   SCSE   0.000000       14.0270           0
   23406 HMM0 466  SCSE C1   SCSE   0.000000       14.0270           0
   23407 HMM0 466  SCSE C2   SCSE   0.000000       14.0270           0
   23408 HMM0 467  SCSE C1   SCSE   0.000000       14.0270           0
   23409 HMM0 467  SCSE C2   SCSE   0.000000       14.0270           0
   23410 HMM0 468  SCSE C1   SCSE   0.000000       14.0270           0
   23411 HMM0 468  SCSE C2   SCSE   0.000000       14.0270           0
   23412 HMM0 469  SCSE C1   SCSE   0.000000       14.0270           0
   23413 HMM0 469  SCSE C2   SCSE   0.000000       14.0270           0
   23414 HMM0 470  SCSE C1   SCSE   0.000000       14.0270           0
   23415 HMM0 470  SCSE C2   SCSE   0.000000       14.0270           0
   23416 HMM0 471  SCSE C1   SCSE   0.000000       14.0270           0
   23417 HMM0 471  SCSE C2   SCSE   0.000000       14.0270           0
   23418 HMM0 472  SCSE C1   SCSE   0.000000       14.0270           0
   23419 HMM0 472  SCSE C2   SCSE   0.000000       14.0270           0
   23420 HMM0 473  SCSE C1   SCSE   0.000000       14.0270           0
   23421 HMM0 473  SCSE C2   SCSE   0.000000       14.0270           0
   23422 HMM0 474  SCSE C1   SCSE   0.000000       14.0270           0
   23423 HMM0 474  SCSE C2   SCSE   0.000000       14.0270           0
   23424 HMM0 475  SCSE C1   SCSE   0.000000       14.0270           0
   23425 HMM0 475  SCSE C2   SCSE   0.000000       14.0270           0
   23426 HMM0 476  SCSE C1   SCSE   0.000000       14.0270           0
   23427 HMM0 476  SCSE C2   SCSE   0.000000       14.0270           0
   23428 HMM0 477  SCSE C1   SCSE   0.000000       14.0270           0
   23429 HMM0 477  SCSE C2   SCSE   0.000000       14.0270           0
   23430 HMM0 478  SCSE C1   SCSE   0.000000       14.0270           0
   23431 HMM0 478  SCSE C2   SCSE   0.000000       14.0270           0
   23432 HMM0 479  SCSE C1   SCSE   0.000000       14.0270           0
   23433 HMM0 479  SCSE C2   SCSE   0.000000       14.0270           0
   23434 HMM0 480  SCSE C1   SCSE   0.000000       14.0270           0
   23435 HMM0 480  SCSE C2   SCSE   0.000000       14.0270           0
   23436 HMM0 481  SCSE C1   SCSE   0.000000       14.0270           0
   23437 HMM0 481  SCSE C2   SCSE   0.000000       14.0270           0
   23438 HMM0 482  SCSE C1   SCSE   0.000000       14.0270           0
   23439 HMM0 482  SCSE C2   SCSE   0.000000       14.0270           0
   23440 HMM0 483  SCSE C1   SCSE   0.000000       14.0270           0
   23441 HMM0 483  SCSE C2   SCSE   0.000000       14.0270           0
   23442 HMM0 484  SCSE C1   SCSE   0.000000       14.0270           0
   23443 HMM0 484  SCSE C2   SCSE   0.000000       14.0270           0
   23444 HMM0 485  SCSE C1   SCSE   0.000000       14.0270           0
   23445 HMM0 485  SCSE C2   SCSE   0.000000       14.0270           0
   23446 HMM0 486  SCSE C1   SCSE   0.000000       14.0270           0
   23447 HMM0 486  SCSE C2   SCSE   0.000000       14.0270           0
   23448 HMM0 487  SCSE C1   SCSE   0.000000       14.0270           0
   23449 HMM0 487  SCSE C2   SCSE   0.000000       14.0270           0
   23450 HMM0 488  SCSE C1   SCSE   0.000000       14.0270           0
   23451 HMM0 488  SCSE C2   SCSE   0.000000       14.0270           0
   23452 HMM0 489  SCSE C1   SCSE   0.000000       14.0270           0
   23453 HMM0 489  SCSE C2   SCSE   0.000000       14.0270           0
   23454 HMM0 490  SCSE C1   SCSE   0.000000       14.0270           0
   23455 HMM0 490  SCSE C2   SCSE   0.000000       14.0270           0
   23456 HMM0 491  SCSE C1   SCSE   0.000000       14.0270           0
   23457 HMM0 491  SCSE C2   SCSE   0.000000       14.0270           0
   23458 HMM0 492  SCSE C1   SCSE   0.000000       14.0270           0
   23459 HMM0 492  SCSE C2   SCSE   0.000000       14.0270           0
   23460 HMM0 493  SCSE C1   SCSE   0.000000       14.0270           0
   23461 HMM0 493  SCSE C2   SCSE   0.000000       14.0270           0
   23462 HMM0 494  SCSE C1   SCSE   0.000000       14.0270           0
   23463 HMM0 494  SCSE C2   SCSE   0.000000       14.0270           0
   23464 HMM0 495  SCSE C1   SCSE   0.000000       14.0270           0
   23465 HMM0 495  SCSE C2   SCSE   0.000000       14.0270           0
   23466 HMM0 496  SCSE C1   SCSE   0.000000       14.0270           0
   23467 HMM0 496  SCSE C2   SCSE   0.000000       14.0270           0
   23468 HMM0 497  SCSE C1   SCSE   0.000000       14.0270           0
   23469 HMM0 497  SCSE C2   SCSE   0.000000       14.0270           0
   23470 HMM0 498  SCSE C1   SCSE   0.000000       14.0270           0
   23471 HMM0 498  SCSE C2   SCSE   0.000000       14.0270           0
   23472 HMM0 499  SCSE C1   SCSE   0.000000       14.0270           0
   23473 HMM0 499  SCSE C2   SCSE   0.000000       14.0270           0
   23474 HMM0 500  SCSE C1   SCSE   0.000000       14.0270           0
   23475 HMM0 500  SCSE C2   SCSE   0.000000       14.0270           0
   23476 HMM0 501  SCSE C1   SCSE   0.000000       14.0270           0
   23477 HMM0 501  SCSE C2   SCSE   0.000000       14.0270           0
   23478 HMM0 502  SCSE C1   SCSE   0.000000       14.0270           0
   23479 HMM0 502  SCSE C2   SCSE   0.000000       14.0270           0
   23480 HMM0 503  SCSE C1   SCSE   0.000000       14.0270           0
   23481 HMM0 503  SCSE C2   SCSE   0.000000       14.0270           0
   23482 HMM0 504  SCSE C1   SCSE   0.000000       14.0270           0
   23483 HMM0 504  SCSE C2   SCSE   0.000000       14.0270           0
   23484 HMM0 505  SCSE C1   SCSE   0.000000       14.0270           0
   23485 HMM0 505  SCSE C2   SCSE   0.000000       14.0270           0
   23486 HMM0 506  SCSE C1   SCSE   0.000000       14.0270           0
   23487 HMM0 506  SCSE C2   SCSE   0.000000       14.0270           0
   23488 HMM0 507  SCSE C1   SCSE   0.000000       14.0270           0
   23489 HMM0 507  SCSE C2   SCSE   0.000000       14.0270           0
   23490 HMM0 508  SCSE C1   SCSE   0.000000       14.0270           0
   23491 HMM0 508  SCSE C2   SCSE   0.000000       14.0270           0
   23492 HMM0 509  SCSE C1   SCSE   0.000000       14.0270           0
   23493 HMM0 509  SCSE C2   SCSE   0.000000       14.0270           0
   23494 HMM0 510  SCSE C1   SCSE   0.000000       14.0270           0
   23495 HMM0 510  SCSE C2   SCSE   0.000000       14.0270           0
   23496 HMM0 511  SCSE C1   SCSE   0.000000       14.0270           0
   23497 HMM0 511  SCSE C2   SCSE   0.000000       14.0270           0
   23498 HMM0 512  SCSE C1   SCSE   0.000000       14.0270           0
   23499 HMM0 512  SCSE C2   SCSE   0.000000       14.0270           0
   23500 HMM0 513  SCSE C1   SCSE   0.000000       14.0270           0
   23501 HMM0 513  SCSE C2   SCSE   0.000000       14.0270           0
   23502 HMM0 514  SCSE C1   SCSE   0.000000       14.0270           0
   23503 HMM0 514  SCSE C2   SCSE   0.000000       14.0270           0
   23504 HMM0 515  SCSE C1   SCSE   0.000000       14.0270           0
   23505 HMM0 515  SCSE C2   SCSE   0.000000       14.0270           0
   23506 HMM0 516  SCSE C1   SCSE   0.000000       14.0270           0
   23507 HMM0 516  SCSE C2   SCSE   0.000000       14.0270           0
   23508 HMM0 517  SCSE C1   SCSE   0.000000       14.0270           0
   23509 HMM0 517  SCSE C2   SCSE   0.000000       14.0270           0
   23510 HMM0 518  SCSE C1   SCSE   0.000000       14.0270           0
   23511 HMM0 518  SCSE C2   SCSE   0.000000       14.0270           0
   23512 HMM0 519  SCSE C1   SCSE   0.000000       14.0270           0
   23513 HMM0 519  SCSE C2   SCSE   0.000000       14.0270           0
   23514 HMM0 520  SCSE C1   SCSE   0.000000       14.0270           0
   23515 HMM0 520  SCSE C2   SCSE   0.000000       14.0270           0
   23516 HMM0 521  SCSE C1   SCSE   0.000000       14.0270           0
   23517 HMM0 521  SCSE C2   SCSE   0.000000       14.0270           0
   23518 HMM0 522  SCSE C1   SCSE   0.000000       14.0270           0
   23519 HMM0 522  SCSE C2   SCSE   0.000000       14.0270           0
   23520 HMM0 523  SCSE C1   SCSE   0.000000       14.0270           0
   23521 HMM0 523  SCSE C2   SCSE   0.000000       14.0270           0
   23522 HMM0 524  SCSE C1   SCSE   0.000000       14.0270           0
   23523 HMM0 524  SCSE C2   SCSE   0.000000       14.0270           0
   23524 HMM0 525  SCSE C1   SCSE   0.000000       14.0270           0
   23525 HMM0 525  SCSE C2   SCSE   0.000000       14.0270           0
   23526 HMM0 526  SCSE C1   SCSE   0.000000       14.0270           0
   23527 HMM0 526  SCSE C2   SCSE   0.000000       14.0270           0
   23528 HMM0 527  SCSE C1   SCSE   0.000000       14.0270           0
   23529 HMM0 527  SCSE C2   SCSE   0.000000       14.0270           0
   23530 HMM0 528  SCSE C1   SCSE   0.000000       14.0270           0
   23531 HMM0 528  SCSE C2   SCSE   0.000000       14.0270           0
   23532 HMM0 529  SCSE C1   SCSE   0.000000       14.0270           0
   23533 HMM0 529  SCSE C2   SCSE   0.000000       14.0270           0
   23534 HMM0 530  SCSE C1   SCSE   0.000000       14.0270           0
   23535 HMM0 530  SCSE C2   SCSE   0.000000       14.0270           0
   23536 HMM0 531  SCSE C1   SCSE   0.000000       14.0270           0
   23537 HMM0 531  SCSE C2   SCSE   0.000000       14.0270           0
   23538 HMM0 532  SCSE C1   SCSE   0.000000       14.0270           0
   23539 HMM0 532  SCSE C2   SCSE   0.000000       14.0270           0
   23540 HMM0 533  SCSE C1   SCSE   0.000000       14.0270           0
   23541 HMM0 533  SCSE C2   SCSE   0.000000       14.0270           0
   23542 HMM0 534  SCSE C1   SCSE   0.000000       14.0270           0
   23543 HMM0 534  SCSE C2   SCSE   0.000000       14.0270           0
   23544 HMM0 535  SCSE C1   SCSE   0.000000       14.0270           0
   23545 HMM0 535  SCSE C2   SCSE   0.000000       14.0270           0
   23546 HMM0 536  SCSE C1   SCSE   0.000000       14.0270           0
   23547 HMM0 536  SCSE C2   SCSE   0.000000       14.0270           0
   23548 HMM0 537  SCSE C1   SCSE   0.000000       14.0270           0
   23549 HMM0 537  SCSE C2   SCSE   0.000000       14.0270           0
   23550 HMM0 538  SCSE C1   SCSE   0.000000       14.0270           0
   23551 HMM0 538  SCSE C2   SCSE   0.000000       14.0270           0
   23552 HMM0 539  SCSE C1   SCSE   0.000000       14.0270           0
   23553 HMM0 539  SCSE C2   SCSE   0.000000       14.0270           0
   23554 HMM0 540  SCSE C1   SCSE   0.000000       14.0270           0
   23555 HMM0 540  SCSE C2   SCSE   0.000000       14.0270           0
   23556 HMM0 541  SCSE C1   SCSE   0.000000       14.0270           0
   23557 HMM0 541  SCSE C2   SCSE   0.000000       14.0270           0
   23558 HMM0 542  SCSE C1   SCSE   0.000000       14.0270           0
   23559 HMM0 542  SCSE C2   SCSE   0.000000       14.0270           0
   23560 HMM0 543  SCSE C1   SCSE   0.000000       14.0270           0
   23561 HMM0 543  SCSE C2   SCSE   0.000000       14.0270           0
   23562 HMM0 544  SCSE C1   SCSE   0.000000       14.0270           0
   23563 HMM0 544  SCSE C2   SCSE   0.000000       14.0270           0
   23564 HMM0 545  SCSE C1   SCSE   0.000000       14.0270           0
   23565 HMM0 545  SCSE C2   SCSE   0.000000       14.0270           0
   23566 HMM0 546  SCSE C1   SCSE   0.000000       14.0270           0
   23567 HMM0 546  SCSE C2   SCSE   0.000000       14.0270           0
   23568 HMM0 547  SCSE C1   SCSE   0.000000       14.0270           0
   23569 HMM0 547  SCSE C2   SCSE   0.000000       14.0270           0
   23570 HMM0 548  SCSE C1   SCSE   0.000000       14.0270           0
   23571 HMM0 548  SCSE C2   SCSE   0.000000       14.0270           0
   23572 HMM0 549  SCSE C1   SCSE   0.000000       14.0270           0
   23573 HMM0 549  SCSE C2   SCSE   0.000000       14.0270           0
   23574 HMM0 550  SCSE C1   SCSE   0.000000       14.0270           0
   23575 HMM0 550  SCSE C2   SCSE   0.000000       14.0270           0
   23576 HMM0 551  SCSE C1   SCSE   0.000000       14.0270           0
   23577 HMM0 551  SCSE C2   SCSE   0.000000       14.0270           0
   23578 HMM0 552  SCSE C1   SCSE   0.000000       14.0270           0
   23579 HMM0 552  SCSE C2   SCSE   0.000000       14.0270           0
   23580 HMM0 553  SCSE C1   SCSE   0.000000       14.0270           0
   23581 HMM0 553  SCSE C2   SCSE   0.000000       14.0270           0
   23582 HMM0 554  SCSE C1   SCSE   0.000000       14.0270           0
   23583 HMM0 554  SCSE C2   SCSE   0.000000       14.0270           0
   23584 HMM0 555  SCSE C1   SCSE   0.000000       14.0270           0
   23585 HMM0 555  SCSE C2   SCSE   0.000000       14.0270           0
   23586 HMM0 556  SCSE C1   SCSE   0.000000       14.0270           0
   23587 HMM0 556  SCSE C2   SCSE   0.000000       14.0270           0
   23588 HMM0 557  SCSE C1   SCSE   0.000000       14.0270           0
   23589 HMM0 557  SCSE C2   SCSE   0.000000       14.0270           0
   23590 HMM0 558  SCSE C1   SCSE   0.000000       14.0270           0
   23591 HMM0 558  SCSE C2   SCSE   0.000000       14.0270           0
   23592 HMM0 559  SCSE C1   SCSE   0.000000       14.0270           0
   23593 HMM0 559  SCSE C2   SCSE   0.000000       14.0270           0
   23594 HMM0 560  SCSE C1   SCSE   0.000000       14.0270           0
   23595 HMM0 560  SCSE C2   SCSE   0.000000       14.0270           0
   23596 HMM0 561  SCSE C1   SCSE   0.000000       14.0270           0
   23597 HMM0 561  SCSE C2   SCSE   0.000000       14.0270           0
   23598 HMM0 562  SCSE C1   SCSE   0.000000       14.0270           0
   23599 HMM0 562  SCSE C2   SCSE   0.000000       14.0270           0
   23600 HMM0 563  SCSE C1   SCSE   0.000000       14.0270           0
   23601 HMM0 563  SCSE C2   SCSE   0.000000       14.0270           0
   23602 HMM0 564  SCSE C1   SCSE   0.000000       14.0270           0
   23603 HMM0 564  SCSE C2   SCSE   0.000000       14.0270           0
   23604 HMM0 565  SCSE C1   SCSE   0.000000       14.0270           0
   23605 HMM0 565  SCSE C2   SCSE   0.000000       14.0270           0
   23606 HMM0 566  SCSE C1   SCSE   0.000000       14.0270           0
   23607 HMM0 566  SCSE C2   SCSE   0.000000       14.0270           0
   23608 HMM0 567  SCSE C1   SCSE   0.000000       14.0270           0
   23609 HMM0 567  SCSE C2   SCSE   0.000000       14.0270           0
   23610 HMM0 568  SCSE C1   SCSE   0.000000       14.0270           0
   23611 HMM0 568  SCSE C2   SCSE   0.000000       14.0270           0
   23612 HMM0 569  SCSE C1   SCSE   0.000000       14.0270           0
   23613 HMM0 569  SCSE C2   SCSE   0.000000       14.0270           0
   23614 HMM0 570  SCSE C1   SCSE   0.000000       14.0270           0
   23615 HMM0 570  SCSE C2   SCSE   0.000000       14.0270           0
   23616 HMM0 571  SCSE C1   SCSE   0.000000       14.0270           0
   23617 HMM0 571  SCSE C2   SCSE   0.000000       14.0270           0
   23618 HMM0 572  SCSE C1   SCSE   0.000000       14.0270           0
   23619 HMM0 572  SCSE C2   SCSE   0.000000       14.0270           0
   23620 HMM0 573  SCSE C1   SCSE   0.000000       14.0270           0
   23621 HMM0 573  SCSE C2   SCSE   0.000000       14.0270           0
   23622 HMM0 574  SCSE C1   SCSE   0.000000       14.0270           0
   23623 HMM0 574  SCSE C2   SCSE   0.000000       14.0270           0
   23624 HMM0 575  SCSE C1   SCSE   0.000000       14.0270           0
   23625 HMM0 575  SCSE C2   SCSE   0.000000       14.0270           0
   23626 HMM0 576  SCSE C1   SCSE   0.000000       14.0270           0
   23627 HMM0 576  SCSE C2   SCSE   0.000000       14.0270           0
   23628 HMM0 577  SCSE C1   SCSE   0.000000       14.0270           0
   23629 HMM0 577  SCSE C2   SCSE   0.000000       14.0270           0
   23630 HMM0 578  SCSE C1   SCSE   0.000000       14.0270           0
   23631 HMM0 578  SCSE C2   SCSE   0.000000       14.0270           0
   23632 HMM0 579  SCSE C1   SCSE   0.000000       14.0270           0
   23633 HMM0 579  SCSE C2   SCSE   0.000000       14.0270           0
   23634 HMM0 580  SCSE C1   SCSE   0.000000       14.0270           0
   23635 HMM0 580  SCSE C2   SCSE   0.000000       14.0270           0
   23636 HMM0 581  SCSE C1   SCSE   0.000000       14.0270           0
   23637 HMM0 581  SCSE C2   SCSE   0.000000       14.0270           0
   23638 HMM0 582  SCSE C1   SCSE   0.000000       14.0270           0
   23639 HMM0 582  SCSE C2   SCSE   0.000000       14.0270           0
   23640 HMM0 583  SCSE C1   SCSE   0.000000       14.0270           0
   23641 HMM0 583  SCSE C2   SCSE   0.000000       14.0270           0
   23642 HMM0 584  SCSE C1   SCSE   0.000000       14.0270           0
   23643 HMM0 584  SCSE C2   SCSE   0.000000       14.0270           0
   23644 HMM0 585  SCSE C1   SCSE   0.000000       14.0270           0
   23645 HMM0 585  SCSE C2   SCSE   0.000000       14.0270           0
   23646 HMM0 586  SCSE C1   SCSE   0.000000       14.0270           0
   23647 HMM0 586  SCSE C2   SCSE   0.000000       14.0270           0
   23648 HMM0 587  SCSE C1   SCSE   0.000000       14.0270           0
   23649 HMM0 587  SCSE C2   SCSE   0.000000       14.0270           0
   23650 HMM0 588  SCSE C1   SCSE   0.000000       14.0270           0
   23651 HMM0 588  SCSE C2   SCSE   0.000000       14.0270           0
   23652 HMM0 589  SCSE C1   SCSE   0.000000       14.0270           0
   23653 HMM0 589  SCSE C2   SCSE   0.000000       14.0270           0
   23654 HMM0 590  SCSE C1   SCSE   0.000000       14.0270           0
   23655 HMM0 590  SCSE C2   SCSE   0.000000       14.0270           0
   23656 HMM0 591  SCSE C1   SCSE   0.000000       14.0270           0
   23657 HMM0 591  SCSE C2   SCSE   0.000000       14.0270           0
   23658 HMM0 592  SCSE C1   SCSE   0.000000       14.0270           0
   23659 HMM0 592  SCSE C2   SCSE   0.000000       14.0270           0
   23660 HMM0 593  SCSE C1   SCSE   0.000000       14.0270           0
   23661 HMM0 593  SCSE C2   SCSE   0.000000       14.0270           0
   23662 HMM0 594  SCSE C1   SCSE   0.000000       14.0270           0
   23663 HMM0 594  SCSE C2   SCSE   0.000000       14.0270           0
   23664 HMM0 595  SCSE C1   SCSE   0.000000       14.0270           0
   23665 HMM0 595  SCSE C2   SCSE   0.000000       14.0270           0
   23666 HMM0 596  SCSE C1   SCSE   0.000000       14.0270           0
   23667 HMM0 596  SCSE C2   SCSE   0.000000       14.0270           0
   23668 HMM0 597  SCSE C1   SCSE   0.000000       14.0270           0
   23669 HMM0 597  SCSE C2   SCSE   0.000000       14.0270           0
   23670 HMM0 598  SCSE C1   SCSE   0.000000       14.0270           0
   23671 HMM0 598  SCSE C2   SCSE   0.000000       14.0270           0
   23672 HMM0 599  SCSE C1   SCSE   0.000000       14.0270           0
   23673 HMM0 599  SCSE C2   SCSE   0.000000       14.0270           0
   23674 HMM0 600  SCSE C1   SCSE   0.000000       14.0270           0
   23675 HMM0 600  SCSE C2   SCSE   0.000000       14.0270           0
   23676 HMM0 601  SCSE C1   SCSE   0.000000       14.0270           0
   23677 HMM0 601  SCSE C2   SCSE   0.000000       14.0270           0
   23678 HMM0 602  SCSE C1   SCSE   0.000000       14.0270           0
   23679 HMM0 602  SCSE C2   SCSE   0.000000       14.0270           0
   23680 HMM0 603  SCSE C1   SCSE   0.000000       14.0270           0
   23681 HMM0 603  SCSE C2   SCSE   0.000000       14.0270           0
   23682 HMM0 604  SCSE C1   SCSE   0.000000       14.0270           0
   23683 HMM0 604  SCSE C2   SCSE   0.000000       14.0270           0
   23684 HMM0 605  SCSE C1   SCSE   0.000000       14.0270           0
   23685 HMM0 605  SCSE C2   SCSE   0.000000       14.0270           0
   23686 HMM0 606  SCSE C1   SCSE   0.000000       14.0270           0
   23687 HMM0 606  SCSE C2   SCSE   0.000000       14.0270           0
   23688 HMM0 607  SCSE C1   SCSE   0.000000       14.0270           0
   23689 HMM0 607  SCSE C2   SCSE   0.000000       14.0270           0
   23690 HMM0 608  SCSE C1   SCSE   0.000000       14.0270           0
   23691 HMM0 608  SCSE C2   SCSE   0.000000       14.0270           0
   23692 HMM0 609  SCSE C1   SCSE   0.000000       14.0270           0
   23693 HMM0 609  SCSE C2   SCSE   0.000000       14.0270           0
   23694 HMM0 610  SCSE C1   SCSE   0.000000       14.0270           0
   23695 HMM0 610  SCSE C2   SCSE   0.000000       14.0270           0
   23696 HMM0 611  SCSE C1   SCSE   0.000000       14.0270           0
   23697 HMM0 611  SCSE C2   SCSE   0.000000       14.0270           0
   23698 HMM0 612  SCSE C1   SCSE   0.000000       14.0270           0
   23699 HMM0 612  SCSE C2   SCSE   0.000000       14.0270           0
   23700 HMM0 613  SCSE C1   SCSE   0.000000       14.0270           0
   23701 HMM0 613  SCSE C2   SCSE   0.000000       14.0270           0
   23702 HMM0 614  SCSE C1   SCSE   0.000000       14.0270           0
   23703 HMM0 614  SCSE C2   SCSE   0.000000       14.0270           0
   23704 HMM0 615  SCSE C1   SCSE   0.000000       14.0270           0
   23705 HMM0 615  SCSE C2   SCSE   0.000000       14.0270           0
   23706 HMM0 616  SCSE C1   SCSE   0.000000       14.0270           0
   23707 HMM0 616  SCSE C2   SCSE   0.000000       14.0270           0
   23708 HMM0 617  SCSE C1   SCSE   0.000000       14.0270           0
   23709 HMM0 617  SCSE C2   SCSE   0.000000       14.0270           0
   23710 HMM0 618  SCSE C1   SCSE   0.000000       14.0270           0
   23711 HMM0 618  SCSE C2   SCSE   0.000000       14.0270           0
   23712 HMM0 619  SCSE C1   SCSE   0.000000       14.0270           0
   23713 HMM0 619  SCSE C2   SCSE   0.000000       14.0270           0
   23714 HMM0 620  SCSE C1   SCSE   0.000000       14.0270           0
   23715 HMM0 620  SCSE C2   SCSE   0.000000       14.0270           0
   23716 HMM0 621  SCSE C1   SCSE   0.000000       14.0270           0
   23717 HMM0 621  SCSE C2   SCSE   0.000000       14.0270           0
   23718 HMM0 622  SCSE C1   SCSE   0.000000       14.0270           0
   23719 HMM0 622  SCSE C2   SCSE   0.000000       14.0270           0
   23720 HMM0 623  SCSE C1   SCSE   0.000000       14.0270           0
   23721 HMM0 623  SCSE C2   SCSE   0.000000       14.0270           0
   23722 HMM0 624  SCSE C1   SCSE   0.000000       14.0270           0
   23723 HMM0 624  SCSE C2   SCSE   0.000000       14.0270           0
   23724 HMM0 625  SCSE C1   SCSE   0.000000       14.0270           0
   23725 HMM0 625  SCSE C2   SCSE   0.000000       14.0270           0
   23726 HMM0 626  SCSE C1   SCSE   0.000000       14.0270           0
   23727 HMM0 626  SCSE C2   SCSE   0.000000       14.0270           0
   23728 HMM0 627  SCSE C1   SCSE   0.000000       14.0270           0
   23729 HMM0 627  SCSE C2   SCSE   0.000000       14.0270           0
   23730 HMM0 628  SCSE C1   SCSE   0.000000       14.0270           0
   23731 HMM0 628  SCSE C2   SCSE   0.000000       14.0270           0
   23732 HMM0 629  SCSE C1   SCSE   0.000000       14.0270           0
   23733 HMM0 629  SCSE C2   SCSE   0.000000       14.0270           0
   23734 HMM0 630  SCSE C1   SCSE   0.000000       14.0270           0
   23735 HMM0 630  SCSE C2   SCSE   0.000000       14.0270           0
   23736 HMM0 631  SCSE C1   SCSE   0.000000       14.0270           0
   23737 HMM0 631  SCSE C2   SCSE   0.000000       14.0270           0
   23738 HMM0 632  SCSE C1   SCSE   0.000000       14.0270           0
   23739 HMM0 632  SCSE C2   SCSE   0.000000       14.0270           0
   23740 HMM0 633  SCSE C1   SCSE   0.000000       14.0270           0
   23741 HMM0 633  SCSE C2   SCSE   0.000000       14.0270           0
   23742 HMM0 634  SCSE C1   SCSE   0.000000       14.0270           0
   23743 HMM0 634  SCSE C2   SCSE   0.000000       14.0270           0
   23744 HMM0 635  SCSE C1   SCSE   0.000000       14.0270           0
   23745 HMM0 635  SCSE C2   SCSE   0.000000       14.0270           0
   23746 HMM0 636  SCSE C1   SCSE   0.000000       14.0270           0
   23747 HMM0 636  SCSE C2   SCSE   0.000000       14.0270           0
   23748 HMM0 637  SCSE C1   SCSE   0.000000       14.0270           0
   23749 HMM0 637  SCSE C2   SCSE   0.000000       14.0270           0
   23750 HMM0 638  SCSE C1   SCSE   0.000000       14.0270           0
   23751 HMM0 638  SCSE C2   SCSE   0.000000       14.0270           0
   23752 HMM0 639  SCSE C1   SCSE   0.000000       14.0270           0
   23753 HMM0 639  SCSE C2   SCSE   0.000000       14.0270           0
   23754 HMM0 640  SCSE C1   SCSE   0.000000       14.0270           0
   23755 HMM0 640  SCSE C2   SCSE   0.000000       14.0270           0
   23756 HMM0 641  SCSE C1   SCSE   0.000000       14.0270           0
   23757 HMM0 641  SCSE C2   SCSE   0.000000       14.0270           0
   23758 HMM0 642  SCSE C1   SCSE   0.000000       14.0270           0
   23759 HMM0 642  SCSE C2   SCSE   0.000000       14.0270           0
   23760 HMM0 643  SCSE C1   SCSE   0.000000       14.0270           0
   23761 HMM0 643  SCSE C2   SCSE   0.000000       14.0270           0
   23762 HMM0 644  SCSE C1   SCSE   0.000000       14.0270           0
   23763 HMM0 644  SCSE C2   SCSE   0.000000       14.0270           0
   23764 HMM0 645  SCSE C1   SCSE   0.000000       14.0270           0
   23765 HMM0 645  SCSE C2   SCSE   0.000000       14.0270           0
   23766 HMM0 646  SCSE C1   SCSE   0.000000       14.0270           0
   23767 HMM0 646  SCSE C2   SCSE   0.000000       14.0270           0
   23768 HMM0 647  SCSE C1   SCSE   0.000000       14.0270           0
   23769 HMM0 647  SCSE C2   SCSE   0.000000       14.0270           0
   23770 HMM0 648  SCSE C1   SCSE   0.000000       14.0270           0
   23771 HMM0 648  SCSE C2   SCSE   0.000000       14.0270           0
   23772 HMM0 649  SCSE C1   SCSE   0.000000       14.0270           0
   23773 HMM0 649  SCSE C2   SCSE   0.000000       14.0270           0
   23774 HMM0 650  SCSE C1   SCSE   0.000000       14.0270           0
   23775 HMM0 650  SCSE C2   SCSE   0.000000       14.0270           0
   23776 HMM0 651  SCSE C1   SCSE   0.000000       14.0270           0
   23777 HMM0 651  SCSE C2   SCSE   0.000000       14.0270           0
   23778 HMM0 652  SCSE C1   SCSE   0.000000       14.0270           0
   23779 HMM0 652  SCSE C2   SCSE   0.000000       14.0270           0
   23780 HMM0 653  SCSE C1   SCSE   0.000000       14.0270           0
   23781 HMM0 653  SCSE C2   SCSE   0.000000       14.0270           0
   23782 HMM0 654  SCSE C1   SCSE   0.000000       14.0270           0
   23783 HMM0 654  SCSE C2   SCSE   0.000000       14.0270           0
   23784 HMM0 655  SCSE C1   SCSE   0.000000       14.0270           0
   23785 HMM0 655  SCSE C2   SCSE   0.000000       14.0270           0
   23786 HMM0 656  SCSE C1   SCSE   0.000000       14.0270           0
   23787 HMM0 656  SCSE C2   SCSE   0.000000       14.0270           0
   23788 HMM0 657  SCSE C1   SCSE   0.000000       14.0270           0
   23789 HMM0 657  SCSE C2   SCSE   0.000000       14.0270           0
   23790 HMM0 658  SCSE C1   SCSE   0.000000       14.0270           0
   23791 HMM0 658  SCSE C2   SCSE   0.000000       14.0270           0
   23792 HMM0 659  SCSE C1   SCSE   0.000000       14.0270           0
   23793 HMM0 659  SCSE C2   SCSE   0.000000       14.0270           0
   23794 HMM0 660  SCSE C1   SCSE   0.000000       14.0270           0
   23795 HMM0 660  SCSE C2   SCSE   0.000000       14.0270           0
   23796 HMM0 661  SCSE C1   SCSE   0.000000       14.0270           0
   23797 HMM0 661  SCSE C2   SCSE   0.000000       14.0270           0
   23798 HMM0 662  SCSE C1   SCSE   0.000000       14.0270           0
   23799 HMM0 662  SCSE C2   SCSE   0.000000       14.0270           0
   23800 HMM0 663  SCSE C1   SCSE   0.000000       14.0270           0
   23801 HMM0 663  SCSE C2   SCSE   0.000000       14.0270           0
   23802 HMM0 664  SCSE C1   SCSE   0.000000       14.0270           0
   23803 HMM0 664  SCSE C2   SCSE   0.000000       14.0270           0
   23804 HMM0 665  SCSE C1   SCSE   0.000000       14.0270           0
   23805 HMM0 665  SCSE C2   SCSE   0.000000       14.0270           0
   23806 HMM0 666  SCSE C1   SCSE   0.000000       14.0270           0
   23807 HMM0 666  SCSE C2   SCSE   0.000000       14.0270           0
   23808 HMM0 667  SCSE C1   SCSE   0.000000       14.0270           0
   23809 HMM0 667  SCSE C2   SCSE   0.000000       14.0270           0
   23810 HMM0 668  SCSE C1   SCSE   0.000000       14.0270           0
   23811 HMM0 668  SCSE C2   SCSE   0.000000       14.0270           0
   23812 HMM0 669  SCSE C1   SCSE   0.000000       14.0270           0
   23813 HMM0 669  SCSE C2   SCSE   0.000000       14.0270           0
   23814 HMM0 670  SCSE C1   SCSE   0.000000       14.0270           0
   23815 HMM0 670  SCSE C2   SCSE   0.000000       14.0270           0
   23816 HMM0 671  SCSE C1   SCSE   0.000000       14.0270           0
   23817 HMM0 671  SCSE C2   SCSE   0.000000       14.0270           0
   23818 HMM0 672  SCSE C1   SCSE   0.000000       14.0270           0
   23819 HMM0 672  SCSE C2   SCSE   0.000000       14.0270           0
   23820 HMM0 673  SCSE C1   SCSE   0.000000       14.0270           0
   23821 HMM0 673  SCSE C2   SCSE   0.000000       14.0270           0
   23822 HMM0 674  SCSE C1   SCSE   0.000000       14.0270           0
   23823 HMM0 674  SCSE C2   SCSE   0.000000       14.0270           0
   23824 HMM0 675  SCSE C1   SCSE   0.000000       14.0270           0
   23825 HMM0 675  SCSE C2   SCSE   0.000000       14.0270           0
   23826 HMM0 676  SCSE C1   SCSE   0.000000       14.0270           0
   23827 HMM0 676  SCSE C2   SCSE   0.000000       14.0270           0
   23828 HMM0 677  SCSE C1   SCSE   0.000000       14.0270           0
   23829 HMM0 677  SCSE C2   SCSE   0.000000       14.0270           0
   23830 HMM0 678  SCSE C1   SCSE   0.000000       14.0270           0
   23831 HMM0 678  SCSE C2   SCSE   0.000000       14.0270           0
   23832 HMM0 679  SCSE C1   SCSE   0.000000       14.0270           0
   23833 HMM0 679  SCSE C2   SCSE   0.000000       14.0270           0
   23834 HMM0 680  SCSE C1   SCSE   0.000000       14.0270           0
   23835 HMM0 680  SCSE C2   SCSE   0.000000       14.0270           0
   23836 HMM0 681  SCSE C1   SCSE   0.000000       14.0270           0
   23837 HMM0 681  SCSE C2   SCSE   0.000000       14.0270           0
   23838 HMM0 682  SCSE C1   SCSE   0.000000       14.0270           0
   23839 HMM0 682  SCSE C2   SCSE   0.000000       14.0270           0
   23840 HMM0 683  SCSE C1   SCSE   0.000000       14.0270           0
   23841 HMM0 683  SCSE C2   SCSE   0.000000       14.0270           0
   23842 HMM0 684  SCSE C1   SCSE   0.000000       14.0270           0
   23843 HMM0 684  SCSE C2   SCSE   0.000000       14.0270           0
   23844 HMM0 685  SCSE C1   SCSE   0.000000       14.0270           0
   23845 HMM0 685  SCSE C2   SCSE   0.000000       14.0270           0
   23846 HMM0 686  SCSE C1   SCSE   0.000000       14.0270           0
   23847 HMM0 686  SCSE C2   SCSE   0.000000       14.0270           0
   23848 HMM0 687  SCSE C1   SCSE   0.000000       14.0270           0
   23849 HMM0 687  SCSE C2   SCSE   0.000000       14.0270           0
   23850 HMM0 688  SCSE C1   SCSE   0.000000       14.0270           0
   23851 HMM0 688  SCSE C2   SCSE   0.000000       14.0270           0
   23852 HMM0 689  SCSE C1   SCSE   0.000000       14.0270           0
   23853 HMM0 689  SCSE C2   SCSE   0.000000       14.0270           0
   23854 HMM0 690  SCSE C1   SCSE   0.000000       14.0270           0
   23855 HMM0 690  SCSE C2   SCSE   0.000000       14.0270           0
   23856 HMM0 691  SCSE C1   SCSE   0.000000       14.0270           0
   23857 HMM0 691  SCSE C2   SCSE   0.000000       14.0270           0
   23858 HMM0 692  SCSE C1   SCSE   0.000000       14.0270           0
   23859 HMM0 692  SCSE C2   SCSE   0.000000       14.0270           0
   23860 HMM0 693  SCSE C1   SCSE   0.000000       14.0270           0
   23861 HMM0 693  SCSE C2   SCSE   0.000000       14.0270           0
   23862 HMM0 694  SCSE C1   SCSE   0.000000       14.0270           0
   23863 HMM0 694  SCSE C2   SCSE   0.000000       14.0270           0
   23864 HMM0 695  SCSE C1   SCSE   0.000000       14.0270           0
   23865 HMM0 695  SCSE C2   SCSE   0.000000       14.0270           0
   23866 HMM0 696  SCSE C1   SCSE   0.000000       14.0270           0
   23867 HMM0 696  SCSE C2   SCSE   0.000000       14.0270           0
   23868 HMM0 697  SCSE C1   SCSE   0.000000       14.0270           0
   23869 HMM0 697  SCSE C2   SCSE   0.000000       14.0270           0
   23870 HMM0 698  SCSE C1   SCSE   0.000000       14.0270           0
   23871 HMM0 698  SCSE C2   SCSE   0.000000       14.0270           0
   23872 HMM0 699  SCSE C1   SCSE   0.000000       14.0270           0
   23873 HMM0 699  SCSE C2   SCSE   0.000000       14.0270           0
   23874 HMM0 700  SCSE C1   SCSE   0.000000       14.0270           0
   23875 HMM0 700  SCSE C2   SCSE   0.000000       14.0270           0
   23876 HMM0 701  SCSE C1   SCSE   0.000000       14.0270           0
   23877 HMM0 701  SCSE C2   SCSE   0.000000       14.0270           0
   23878 HMM0 702  SCSE C1   SCSE   0.000000       14.0270           0
   23879 HMM0 702  SCSE C2   SCSE   0.000000       14.0270           0
   23880 HMM0 703  SCSE C1   SCSE   0.000000       14.0270           0
   23881 HMM0 703  SCSE C2   SCSE   0.000000       14.0270           0
   23882 HMM0 704  SCSE C1   SCSE   0.000000       14.0270           0
   23883 HMM0 704  SCSE C2   SCSE   0.000000       14.0270           0
   23884 HMM0 705  SCSE C1   SCSE   0.000000       14.0270           0
   23885 HMM0 705  SCSE C2   SCSE   0.000000       14.0270           0
   23886 HMM0 706  SCSE C1   SCSE   0.000000       14.0270           0
   23887 HMM0 706  SCSE C2   SCSE   0.000000       14.0270           0
   23888 HMM0 707  SCSE C1   SCSE   0.000000       14.0270           0
   23889 HMM0 707  SCSE C2   SCSE   0.000000       14.0270           0
   23890 HMM0 708  SCSE C1   SCSE   0.000000       14.0270           0
   23891 HMM0 708  SCSE C2   SCSE   0.000000       14.0270           0
   23892 HMM0 709  SCSE C1   SCSE   0.000000       14.0270           0
   23893 HMM0 709  SCSE C2   SCSE   0.000000       14.0270           0
   23894 HMM0 710  SCSE C1   SCSE   0.000000       14.0270           0
   23895 HMM0 710  SCSE C2   SCSE   0.000000       14.0270           0
   23896 HMM0 711  SCSE C1   SCSE   0.000000       14.0270           0
   23897 HMM0 711  SCSE C2   SCSE   0.000000       14.0270           0
   23898 HMM0 712  SCSE C1   SCSE   0.000000       14.0270           0
   23899 HMM0 712  SCSE C2   SCSE   0.000000       14.0270           0
   23900 HMM0 713  SCSE C1   SCSE   0.000000       14.0270           0
   23901 HMM0 713  SCSE C2   SCSE   0.000000       14.0270           0
   23902 HMM0 714  SCSE C1   SCSE   0.000000       14.0270           0
   23903 HMM0 714  SCSE C2   SCSE   0.000000       14.0270           0
   23904 HMM0 715  SCSE C1   SCSE   0.000000       14.0270           0
   23905 HMM0 715  SCSE C2   SCSE   0.000000       14.0270           0
   23906 HMM0 716  SCSE C1   SCSE   0.000000       14.0270           0
   23907 HMM0 716  SCSE C2   SCSE   0.000000       14.0270           0
   23908 HMM0 717  SCSE C1   SCSE   0.000000       14.0270           0
   23909 HMM0 717  SCSE C2   SCSE   0.000000       14.0270           0
   23910 HMM0 718  SCSE C1   SCSE   0.000000       14.0270           0
   23911 HMM0 718  SCSE C2   SCSE   0.000000       14.0270           0
   23912 HMM0 719  SCSE C1   SCSE   0.000000       14.0270           0
   23913 HMM0 719  SCSE C2   SCSE   0.000000       14.0270           0
   23914 HMM0 720  SCSE C1   SCSE   0.000000       14.0270           0
   23915 HMM0 720  SCSE C2   SCSE   0.000000       14.0270           0
   23916 HMM0 721  SCSE C1   SCSE   0.000000       14.0270           0
   23917 HMM0 721  SCSE C2   SCSE   0.000000       14.0270           0
   23918 HMM0 722  SCSE C1   SCSE   0.000000       14.0270           0
   23919 HMM0 722  SCSE C2   SCSE   0.000000       14.0270           0
   23920 HMM0 723  SCSE C1   SCSE   0.000000       14.0270           0
   23921 HMM0 723  SCSE C2   SCSE   0.000000       14.0270           0
   23922 HMM0 724  SCSE C1   SCSE   0.000000       14.0270           0
   23923 HMM0 724  SCSE C2   SCSE   0.000000       14.0270           0
   23924 HMM0 725  SCSE C1   SCSE   0.000000       14.0270           0
   23925 HMM0 725  SCSE C2   SCSE   0.000000       14.0270           0
   23926 HMM0 726  SCSE C1   SCSE   0.000000       14.0270           0
   23927 HMM0 726  SCSE C2   SCSE   0.000000       14.0270           0
   23928 HMM0 727  SCSE C1   SCSE   0.000000       14.0270           0
   23929 HMM0 727  SCSE C2   SCSE   0.000000       14.0270           0
   23930 HMM0 728  SCSE C1   SCSE   0.000000       14.0270           0
   23931 HMM0 728  SCSE C2   SCSE   0.000000       14.0270           0
   23932 HMM0 729  SCSE C1   SCSE   0.000000       14.0270           0
   23933 HMM0 729  SCSE C2   SCSE   0.000000       14.0270           0
   23934 HMM0 730  SCSE C1   SCSE   0.000000       14.0270           0
   23935 HMM0 730  SCSE C2   SCSE   0.000000       14.0270           0
   23936 HMM0 731  SCSE C1   SCSE   0.000000       14.0270           0
   23937 HMM0 731  SCSE C2   SCSE   0.000000       14.0270           0
   23938 HMM0 732  SCSE C1   SCSE   0.000000       14.0270           0
   23939 HMM0 732  SCSE C2   SCSE   0.000000       14.0270           0
   23940 HMM0 733  SCSE C1   SCSE   0.000000       14.0270           0
   23941 HMM0 733  SCSE C2   SCSE   0.000000       14.0270           0
   23942 HMM0 734  SCSE C1   SCSE   0.000000       14.0270           0
   23943 HMM0 734  SCSE C2   SCSE   0.000000       14.0270           0
   23944 HMM0 735  SCSE C1   SCSE   0.000000       14.0270           0
   23945 HMM0 735  SCSE C2   SCSE   0.000000       14.0270           0
   23946 HMM0 736  SCSE C1   SCSE   0.000000       14.0270           0
   23947 HMM0 736  SCSE C2   SCSE   0.000000       14.0270           0
   23948 HMM0 737  SCSE C1   SCSE   0.000000       14.0270           0
   23949 HMM0 737  SCSE C2   SCSE   0.000000       14.0270           0
   23950 HMM0 738  SCSE C1   SCSE   0.000000       14.0270           0
   23951 HMM0 738  SCSE C2   SCSE   0.000000       14.0270           0
   23952 HMM0 739  SCSE C1   SCSE   0.000000       14.0270           0
   23953 HMM0 739  SCSE C2   SCSE   0.000000       14.0270           0
   23954 HMM0 740  SCSE C1   SCSE   0.000000       14.0270           0
   23955 HMM0 740  SCSE C2   SCSE   0.000000       14.0270           0
   23956 HMM0 741  SCSE C1   SCSE   0.000000       14.0270           0
   23957 HMM0 741  SCSE C2   SCSE   0.000000       14.0270           0
   23958 HMM0 742  SCSE C1   SCSE   0.000000       14.0270           0
   23959 HMM0 742  SCSE C2   SCSE   0.000000       14.0270           0
   23960 HMM0 743  SCSE C1   SCSE   0.000000       14.0270           0
   23961 HMM0 743  SCSE C2   SCSE   0.000000       14.0270           0
   23962 HMM0 744  SCSE C1   SCSE   0.000000       14.0270           0
   23963 HMM0 744  SCSE C2   SCSE   0.000000       14.0270           0
   23964 HMM0 745  SCSE C1   SCSE   0.000000       14.0270           0
   23965 HMM0 745  SCSE C2   SCSE   0.000000       14.0270           0
   23966 HMM0 746  SCSE C1   SCSE   0.000000       14.0270           0
   23967 HMM0 746  SCSE C2   SCSE   0.000000       14.0270           0
   23968 HMM0 747  SCSE C1   SCSE   0.000000       14.0270           0
   23969 HMM0 747  SCSE C2   SCSE   0.000000       14.0270           0
   23970 HMM0 748  SCSE C1   SCSE   0.000000       14.0270           0
   23971 HMM0 748  SCSE C2   SCSE   0.000000       14.0270           0
   23972 HMM0 749  SCSE C1   SCSE   0.000000       14.0270           0
   23973 HMM0 749  SCSE C2   SCSE   0.000000       14.0270           0
   23974 HMM0 750  SCSE C1   SCSE   0.000000       14.0270           0
   23975 HMM0 750  SCSE C2   SCSE   0.000000       14.0270           0
   23976 HMM0 751  SCSE C1   SCSE   0.000000       14.0270           0
   23977 HMM0 751  SCSE C2   SCSE   0.000000       14.0270           0
   23978 HMM0 752  SCSE C1   SCSE   0.000000       14.0270           0
   23979 HMM0 752  SCSE C2   SCSE   0.000000       14.0270           0
   23980 HMM0 753  SCSE C1   SCSE   0.000000       14.0270           0
   23981 HMM0 753  SCSE C2   SCSE   0.000000       14.0270           0
   23982 HMM0 754  SCSE C1   SCSE   0.000000       14.0270           0
   23983 HMM0 754  SCSE C2   SCSE   0.000000       14.0270           0
   23984 HMM0 755  SCSE C1   SCSE   0.000000       14.0270           0
   23985 HMM0 755  SCSE C2   SCSE   0.000000       14.0270           0
   23986 HMM0 756  SCSE C1   SCSE   0.000000       14.0270           0
   23987 HMM0 756  SCSE C2   SCSE   0.000000       14.0270           0
   23988 HMM0 757  SCSE C1   SCSE   0.000000       14.0270           0
   23989 HMM0 757  SCSE C2   SCSE   0.000000       14.0270           0
   23990 HMM0 758  SCSE C1   SCSE   0.000000       14.0270           0
   23991 HMM0 758  SCSE C2   SCSE   0.000000       14.0270           0
   23992 HMM0 759  SCSE C1   SCSE   0.000000       14.0270           0
   23993 HMM0 759  SCSE C2   SCSE   0.000000       14.0270           0
   23994 HMM0 760  SCSE C1   SCSE   0.000000       14.0270           0
   23995 HMM0 760  SCSE C2   SCSE   0.000000       14.0270           0
   23996 HMM0 761  SCSE C1   SCSE   0.000000       14.0270           0
   23997 HMM0 761  SCSE C2   SCSE   0.000000       14.0270           0
   23998 HMM0 762  SCSE C1   SCSE   0.000000       14.0270           0
   23999 HMM0 762  SCSE C2   SCSE   0.000000       14.0270           0
   24000 HMM0 763  SCSE C1   SCSE   0.000000       14.0270           0
   24001 HMM0 763  SCSE C2   SCSE   0.000000       14.0270           0
   24002 HMM0 764  SCSE C1   SCSE   0.000000       14.0270           0
   24003 HMM0 764  SCSE C2   SCSE   0.000000       14.0270           0
   24004 HMM0 765  SCSE C1   SCSE   0.000000       14.0270           0
   24005 HMM0 765  SCSE C2   SCSE   0.000000       14.0270           0
   24006 HMM0 766  SCSE C1   SCSE   0.000000       14.0270           0
   24007 HMM0 766  SCSE C2   SCSE   0.000000       14.0270           0
   24008 HMM0 767  SCSE C1   SCSE   0.000000       14.0270           0
   24009 HMM0 767  SCSE C2   SCSE   0.000000       14.0270           0
   24010 HMM0 768  SCSE C1   SCSE   0.000000       14.0270           0
   24011 HMM0 768  SCSE C2   SCSE   0.000000       14.0270           0
   24012 HMM0 769  SCSE C1   SCSE   0.000000       14.0270           0
   24013 HMM0 769  SCSE C2   SCSE   0.000000       14.0270           0
   24014 HMM0 770  SCSE C1   SCSE   0.000000       14.0270           0
   24015 HMM0 770  SCSE C2   SCSE   0.000000       14.0270           0
   24016 HMM0 771  SCSE C1   SCSE   0.000000       14.0270           0
   24017 HMM0 771  SCSE C2   SCSE   0.000000       14.0270           0
   24018 HMM0 772  SCSE C1   SCSE   0.000000       14.0270           0
   24019 HMM0 772  SCSE C2   SCSE   0.000000       14.0270           0
   24020 HMM0 773  SCSE C1   SCSE   0.000000       14.0270           0
   24021 HMM0 773  SCSE C2   SCSE   0.000000       14.0270           0
   24022 HMM0 774  SCSE C1   SCSE   0.000000       14.0270           0
   24023 HMM0 774  SCSE C2   SCSE   0.000000       14.0270           0
   24024 HMM0 775  SCSE C1   SCSE   0.000000       14.0270           0
   24025 HMM0 775  SCSE C2   SCSE   0.000000       14.0270           0
   24026 HMM0 776  SCSE C1   SCSE   0.000000       14.0270           0
   24027 HMM0 776  SCSE C2   SCSE   0.000000       14.0270           0
   24028 HMM0 777  SCSE C1   SCSE   0.000000       14.0270           0
   24029 HMM0 777  SCSE C2   SCSE   0.000000       14.0270           0
   24030 HMM0 778  SCSE C1   SCSE   0.000000       14.0270           0
   24031 HMM0 778  SCSE C2   SCSE   0.000000       14.0270           0
   24032 HMM0 779  SCSE C1   SCSE   0.000000       14.0270           0
   24033 HMM0 779  SCSE C2   SCSE   0.000000       14.0270           0
   24034 HMM0 780  SCSE C1   SCSE   0.000000       14.0270           0
   24035 HMM0 780  SCSE C2   SCSE   0.000000       14.0270           0

   23278 !NBOND: bonds
       1       2       1       3       1       4       5       1
       5       7       6       5       7       8       7       9
       9      10      11       9      11      12      11      13
      14      11      14      15      14      16      17      14
      17      18      19      17      19      20      19      21
      22       9      22      24      23      22      24      25
      24      26      26      27      28      26      28      29
      28      30      28      31      32      26      32      34
      33      32      34      38      34      35      36      35
      37      35      38      40      39      38      40      43
      41      40      42      40      43      35      44      43
      45      43      46      38      46      48      47      46
      48      49      48      50      50      51      52      50
      52      53      52      54      52      55      56      50
      56      58      57      56      58      59      58      60
      60      61      62      60      62      63      62      64
      65      62      66      67      66      65      68      66
      68      69      68      70      70      75      71      70
      71      72      73      65      73      74      75      76
      75      73      77      60      77      79      78      77
      79      80      79      81      81      82      83      81
      83      84      83      85      86      83      86      87
      86      88      89      86      89      90      89      91
      92      89      92      93      92      94      95      92
      95      96      95      97      95      98      99      81
      99     101     100      99     101     102     101     103
     103     104     105     103     105     106     105     107
     108     105     108     109     108     110     111     108
     111     112     111     113     114     111     114     115
     114     116     117     114     117     118     117     119
     117     120     121     103     121     123     122     121
     123     124     123     125     125     126     127     125
     127     128     127     129     127     130     131     125
     131     133     132     131     133     134     133     135
     135     136     137     135     137     138     137     139
     137     140     141     135     141     143     142     141
     143     144     143     145     145     146     147     145
     147     148     147     149     150     147     150     151
     150     152     153     150     153     154     153     155
     156     153     156     157     156     158     159     156
     159     160     159     161     159     162     163     145
     163     165     164     163     165     166     165     167
     167     168     169     167     169     170     169     171
     172     169     172     173     172     174     175     172
     175     176     175     177     178     175     178     179
     178     180     181     178     181     182     181     183
     181     184     185     167     185     187     186     185
     187     188     187     189     189     190     191     189
     191     192     191     193     194     191     194     195
     196     194     196     197     196     198     196     199
     200     194     200     201     200     202     200     203
     204     189     204     206     205     204     206     207
     206     208     208     209     210     208     210     211
     210     212     210     213     214     208     214     216
     215     214     216     217     216     218     218     219
     220     218     220     221     220     222     223     220
     223     224     223     225     226     223     226     227
     228     226     229     218     229     231     230     229
     231     232     231     233     233     234     235     233
     235     236     235     237     238     235     238     239
     240     233     240     242     241     240     242     243
     242     244     244     245     244     246     244     247
     248     250     248     249     248     294     248     252
     250     251     252     253     252     254     252     255
     255     286     255     256     256     257     256     258
     258     259     258     260     258     261     261     262
     261     284     261     263     263     264     263     273
     263     265     265     266     265     267     265     268
     268     269     268     270     268     271     271     272
     271     273     271     297     273     278     273     274
     274     275     274     276     274     277     278     279
     278     280     278     281     281     282     281     283
     281     284     284     285     284     286     286     291
     286     287     287     288     287     289     287     290
     291     292     291     293     294     295     294     296
     294     291     297     298     297     299     297     303
     299     300     299     301     299     302     303     304
     303     305     303     306     306     307     306     308
     306     309     309     310     309     311     309     312
     312     313     312     314     312     318     314     315
     314     316     314     317     318     319     318     320
     318     321     322     324     322     323     322     368
     322     326     324     325     326     327     326     328
     326     329     329     360     329     330     330     331
     330     332     332     333     332     334     332     335
     335     336     335     358     335     337     337     338
     337     347     337     339     339     340     339     341
     339     342     342     343     342     344     342     345
     345     346     345     347     345     371     347     352
     347     348     348     349     348     350     348     351
     352     353     352     354     352     355     355     356
     355     357     355     358     358     359     358     360
     360     365     360     361     361     362     361     363
     361     364     365     366     365     367     368     369
     368     370     368     365     371     372     371     373
     371     377     373     374     373     375     373     376
     377     378     377     379     377     380     380     381
     380     382     380     383     383     384     383     385
     383     386     386     387     386     388     386     392
     388     389     388     390     388     391     392     393
     392     394     392     395     396     398     396     397
     396     442     396     400     398     399     400     401
     400     402     400     403     403     434     403     404
     404     405     404     406     406     407     406     408
     406     409     409     410     409     432     409     411
     411     412     411     421     411     413     413     414
     413     415     413     416     416     417     416     418
     416     419     419     420     419     421     419     445
     421     426     421     422     422     423     422     424
     422     425     426     427     426     428     426     429
     429     430     429     431     429     432     432     433
     432     434     434     439     434     435     435     436
     435     437     435     438     439     440     439     441
     442     443     442     444     442     439     445     446
     445     447     445     451     447     448     447     449
     447     450     451     452     451     453     451     454
     454     455     454     456     454     457     457     458
     457     459     457     460     460     461     460     462
     460     466     462     463     462     464     462     465
     466     467     466     468     466     469     470     472
     470     471     470     516     470     474     472     473
     474     475     474     476     474     477     477     508
     477     478     478     479     478     480     480     481
     480     482     480     483     483     484     483     506
     483     485     485     486     485     495     485     487
     487     488     487     489     487     490     490     491
     490     492     490     493     493     494     493     495
     493     519     495     500     495     496     496     497
     496     498     496     499     500     501     500     502
     500     503     503     504     503     505     503     506
     506     507     506     508     508     513     508     509
     509     510     509     511     509     512     513     514
     513     515     516     517     516     518     516     513
     519     520     519     521     519     525     521     522
     521     523     521     524     525     526     525     527
     525     528     528     529     528     530     528     531
     531     532     531     533     531     534     534     535
     534     536     534     540     536     537     536     538
     536     539     540     541     540     542     540     543
     544     546     544     545     544     590     544     548
     546     547     548     549     548     550     548     551
     551     582     551     552     552     553     552     554
     554     555     554     556     554     557     557     558
     557     580     557     559     559     560     559     569
     559     561     561     562     561     563     561     564
     564     565     564     566     564     567     567     568
     567     569     567     593     569     574     569     570
     570     571     570     572     570     573     574     575
     574     576     574     577     577     578     577     579
     577     580     580     581     580     582     582     587
     582     583     583     584     583     585     583     586
     587     588     587     589     590     591     590     592
     590     587     593     594     593     595     593     599
     595     596     595     597     595     598     599     600
     599     601     599     602     602     603     602     604
     602     605     605     606     605     607     605     608
     608     609     608     610     608     614     610     611
     610     612     610     613     614     615     614     616
     614     617     618     620     618     619     618     664
     618     622     620     621     622     623     622     624
     622     625     625     656     625     626     626     627
     626     628     628     629     628     630     628     631
     631     632     631     654     631     633     633     634
     633     643     633     635     635     636     635     637
     635     638     638     639     638     640     638     641
     641     642     641     643     641     667     643     648
     643     644     644     645     644     646     644     647
     648     649     648     650     648     651     651     652
     651     653     651     654     654     655     654     656
     656     661     656     657     657     658     657     659
     657     660     661     662     661     663     664     665
     664     666     664     661     667     668     667     669
     667     673     669     670     669     671     669     672
     673     674     673     675     673     676     676     677
     676     678     676     679     679     680     679     681
     679     682     682     683     682     684     682     688
     684     685     684     686     684     687     688     689
     688     690     688     691     692     694     692     693
     692     738     692     696     694     695     696     697
     696     698     696     699     699     730     699     700
     700     701     700     702     702     703     702     704
     702     705     705     706     705     728     705     707
     707     708     707     717     707     709     709     710
     709     711     709     712     712     713     712     714
     712     715     715     716     715     717     715     741
     717     722     717     718     718     719     718     720
     718     721     722     723     722     724     722     725
     725     726     725     727     725     728     728     729
     728     730     730     735     730     731     731     732
     731     733     731     734     735     736     735     737
     738     739     738     740     738     735     741     742
     741     743     741     747     743     744     743     745
     743     746     747     748     747     749     747     750
     750     751     750     752     750     753     753     754
     753     755     753     756     756     757     756     758
     756     762     758     759     758     760     758     761
     762     763     762     764     762     765     766     768
     766     767     766     812     766     770     768     769
     770     771     770     772     770     773     773     804
     773     774     774     775     774     776     776     777
     776     778     776     779     779     780     779     802
     779     781     781     782     781     791     781     783
     783     784     783     785     783     786     786     787
     786     788     786     789     789     790     789     791
     789     815     791     796     791     792     792     793
     792     794     792     795     796     797     796     798
     796     799     799     800     799     801     799     802
     802     803     802     804     804     809     804     805
     805     806     805     807     805     808     809     810
     809     811     812     813     812     814     812     809
     815     816     815     817     815     821     817     818
     817     819     817     820     821     822     821     823
     821     824     824     825     824     826     824     827
     827     828     827     829     827     830     830     831
     830     832     830     836     832     833     832     834
     832     835     836     837     836     838     836     839
     840     842     840     841     840     886     840     844
     842     843     844     845     844     846     844     847
     847     878     847     848     848     849     848     850
     850     851     850     852     850     853     853     854
     853     876     853     855     855     856     855     865
     855     857     857     858     857     859     857     860
     860     861     860     862     860     863     863     864
     863     865     863     889     865     870     865     866
     866     867     866     868     866     869     870     871
     870     872     870     873     873     874     873     875
     873     876     876     877     876     878     878     883
     878     879     879     880     879     881     879     882
     883     884     883     885     886     887     886     888
     886     883     889     890     889     891     889     895
     891     892     891     893     891     894     895     896
     895     897     895     898     898     899     898     900
     898     901     901     902     901     903     901     904
     904     905     904     906     904     910     906     907
     906     908     906     909     910     911     910     912
     910     913     914     916     914     915     914     960
     914     918     916     917     918     919     918     920
     918     921     921     952     921     922     922     923
     922     924     924     925     924     926     924     927
     927     928     927     950     927     929     929     930
     929     939     929     931     931     932     931     933
     931     934     934     935     934     936     934     937
     937     938     937     939     937     963     939     944
     939     940     940     941     940     942     940     943
     944     945     944     946     944     947     947     948
     947     949     947     950     950     951     950     952
     952     957     952     953     953     954     953     955
     953     956     957     958     957     959     960     961
     960     962     960     957     963     964     963     965
     963     969     965     966     965     967     965     968
     969     970     969     971     969     972     972     973
     972     974     972     975     975     976     975     977
     975     978     978     979     978     980     978     984
     980     981     980     982     980     983     984     985
     984     986     984     987     988     990     988     989
     988    1034     988     992     990     991     992     993
     992     994     992     995     995    1026     995     996
     996     997     996     998     998     999     998    1000
     998    1001    1001    1002    1001    1024    1001    1003
    1003    1004    1003    1013    1003    1005    1005    1006
    1005    1007    1005    1008    1008    1009    1008    1010
    1008    1011    1011    1012    1011    1013    1011    1037
    1013    1018    1013    1014    1014    1015    1014    1016
    1014    1017    1018    1019    1018    1020    1018    1021
    1021    1022    1021    1023    1021    1024    1024    1025
    1024    1026    1026    1031    1026    1027    1027    1028
    1027    1029    1027    1030    1031    1032    1031    1033
    1034    1035    1034    1036    1034    1031    1037    1038
    1037    1039    1037    1043    1039    1040    1039    1041
    1039    1042    1043    1044    1043    1045    1043    1046
    1046    1047    1046    1048    1046    1049    1049    1050
    1049    1051    1049    1052    1052    1053    1052    1054
    1052    1058    1054    1055    1054    1056    1054    1057
    1058    1059    1058    1060    1058    1061    1062    1064
    1062    1063    1062    1108    1062    1066    1064    1065
    1066    1067    1066    1068    1066    1069    1069    1100
    1069    1070    1070    1071    1070    1072    1072    1073
    1072    1074    1072    1075    1075    1076    1075    1098
    1075    1077    1077    1078    1077    1087    1077    1079
    1079    1080    1079    1081    1079    1082    1082    1083
    1082    1084    1082    1085    1085    1086    1085    1087
    1085    1111    1087    1092    1087    1088    1088    1089
    1088    1090    1088    1091    1092    1093    1092    1094
    1092    1095    1095    1096    1095    1097    1095    1098
    1098    1099    1098    1100    1100    1105    1100    1101
    1101    1102    1101    1103    1101    1104    1105    1106
    1105    1107    1108    1109    1108    1110    1108    1105
    1111    1112    1111    1113    1111    1117    1113    1114
    1113    1115    1113    1116    1117    1118    1117    1119
    1117    1120    1120    1121    1120    1122    1120    1123
    1123    1124    1123    1125    1123    1126    1126    1127
    1126    1128    1126    1132    1128    1129    1128    1130
    1128    1131    1132    1133    1132    1134    1132    1135
    1136    1138    1136    1137    1136    1182    1136    1140
    1138    1139    1140    1141    1140    1142    1140    1143
    1143    1174    1143    1144    1144    1145    1144    1146
    1146    1147    1146    1148    1146    1149    1149    1150
    1149    1172    1149    1151    1151    1152    1151    1161
    1151    1153    1153    1154    1153    1155    1153    1156
    1156    1157    1156    1158    1156    1159    1159    1160
    1159    1161    1159    1185    1161    1166    1161    1162
    1162    1163    1162    1164    1162    1165    1166    1167
    1166    1168    1166    1169    1169    1170    1169    1171
    1169    1172    1172    1173    1172    1174    1174    1179
    1174    1175    1175    1176    1175    1177    1175    1178
    1179    1180    1179    1181    1182    1183    1182    1184
    1182    1179    1185    1186    1185    1187    1185    1191
    1187    1188    1187    1189    1187    1190    1191    1192
    1191    1193    1191    1194    1194    1195    1194    1196
    1194    1197    1197    1198    1197    1199    1197    1200
    1200    1201    1200    1202    1200    1206    1202    1203
    1202    1204    1202    1205    1206    1207    1206    1208
    1206    1209    1210    1212    1210    1211    1210    1256
    1210    1214    1212    1213    1214    1215    1214    1216
    1214    1217    1217    1248    1217    1218    1218    1219
    1218    1220    1220    1221    1220    1222    1220    1223
    1223    1224    1223    1246    1223    1225    1225    1226
    1225    1235    1225    1227    1227    1228    1227    1229
    1227    1230    1230    1231    1230    1232    1230    1233
    1233    1234    1233    1235    1233    1259    1235    1240
    1235    1236    1236    1237    1236    1238    1236    1239
    1240    1241    1240    1242    1240    1243    1243    1244
    1243    1245    1243    1246    1246    1247    1246    1248
    1248    1253    1248    1249    1249    1250    1249    1251
    1249    1252    1253    1254    1253    1255    1256    1257
    1256    1258    1256    1253    1259    1260    1259    1261
    1259    1265    1261    1262    1261    1263    1261    1264
    1265    1266    1265    1267    1265    1268    1268    1269
    1268    1270    1268    1271    1271    1272    1271    1273
    1271    1274    1274    1275    1274    1276    1274    1280
    1276    1277    1276    1278    1276    1279    1280    1281
    1280    1282    1280    1283    1284    1286    1284    1285
    1284    1330    1284    1288    1286    1287    1288    1289
    1288    1290    1288    1291    1291    1322    1291    1292
    1292    1293    1292    1294    1294    1295    1294    1296
    1294    1297    1297    1298    1297    1320    1297    1299
    1299    1300    1299    1309    1299    1301    1301    1302
    1301    1303    1301    1304    1304    1305    1304    1306
    1304    1307    1307    1308    1307    1309    1307    1333
    1309    1314    1309    1310    1310    1311    1310    1312
    1310    1313    1314    1315    1314    1316    1314    1317
    1317    1318    1317    1319    1317    1320    1320    1321
    1320    1322    1322    1327    1322    1323    1323    1324
    1323    1325    1323    1326    1327    1328    1327    1329
    1330    1331    1330    1332    1330    1327    1333    1334
    1333    1335    1333    1339    1335    1336    1335    1337
    1335    1338    1339    1340    1339    1341    1339    1342
    1342    1343    1342    1344    1342    1345    1345    1346
    1345    1347    1345    1348    1348    1349    1348    1350
    1348    1354    1350    1351    1350    1352    1350    1353
    1354    1355    1354    1356    1354    1357    1358    1360
    1358    1359    1358    1404    1358    1362    1360    1361
    1362    1363    1362    1364    1362    1365    1365    1396
    1365    1366    1366    1367    1366    1368    1368    1369
    1368    1370    1368    1371    1371    1372    1371    1394
    1371    1373    1373    1374    1373    1383    1373    1375
    1375    1376    1375    1377    1375    1378    1378    1379
    1378    1380    1378    1381    1381    1382    1381    1383
    1381    1407    1383    1388    1383    1384    1384    1385
    1384    1386    1384    1387    1388    1389    1388    1390
    1388    1391    1391    1392    1391    1393    1391    1394
    1394    1395    1394    1396    1396    1401    1396    1397
    1397    1398    1397    1399    1397    1400    1401    1402
    1401    1403    1404    1405    1404    1406    1404    1401
    1407    1408    1407    1409    1407    1413    1409    1410
    1409    1411    1409    1412    1413    1414    1413    1415
    1413    1416    1416    1417    1416    1418    1416    1419
    1419    1420    1419    1421    1419    1422    1422    1423
    1422    1424    1422    1428    1424    1425    1424    1426
    1424    1427    1428    1429    1428    1430    1428    1431
    1432    1434    1432    1433    1432    1478    1432    1436
    1434    1435    1436    1437    1436    1438    1436    1439
    1439    1470    1439    1440    1440    1441    1440    1442
    1442    1443    1442    1444    1442    1445    1445    1446
    1445    1468    1445    1447    1447    1448    1447    1457
    1447    1449    1449    1450    1449    1451    1449    1452
    1452    1453    1452    1454    1452    1455    1455    1456
    1455    1457    1455    1481    1457    1462    1457    1458
    1458    1459    1458    1460    1458    1461    1462    1463
    1462    1464    1462    1465    1465    1466    1465    1467
    1465    1468    1468    1469    1468    1470    1470    1475
    1470    1471    1471    1472    1471    1473    1471    1474
    1475    1476    1475    1477    1478    1479    1478    1480
    1478    1475    1481    1482    1481    1483    1481    1487
    1483    1484    1483    1485    1483    1486    1487    1488
    1487    1489    1487    1490    1490    1491    1490    1492
    1490    1493    1493    1494    1493    1495    1493    1496
    1496    1497    1496    1498    1496    1502    1498    1499
    1498    1500    1498    1501    1502    1503    1502    1504
    1502    1505    1506    1508    1506    1507    1506    1552
    1506    1510    1508    1509    1510    1511    1510    1512
    1510    1513    1513    1544    1513    1514    1514    1515
    1514    1516    1516    1517    1516    1518    1516    1519
    1519    1520    1519    1542    1519    1521    1521    1522
    1521    1531    1521    1523    1523    1524    1523    1525
    1523    1526    1526    1527    1526    1528    1526    1529
    1529    1530    1529    1531    1529    1555    1531    1536
    1531    1532    1532    1533    1532    1534    1532    1535
    1536    1537    1536    1538    1536    1539    1539    1540
    1539    1541    1539    1542    1542    1543    1542    1544
    1544    1549    1544    1545    1545    1546    1545    1547
    1545    1548    1549    1550    1549    1551    1552    1553
    1552    1554    1552    1549    1555    1556    1555    1557
    1555    1561    1557    1558    1557    1559    1557    1560
    1561    1562    1561    1563    1561    1564    1564    1565
    1564    1566    1564    1567    1567    1568    1567    1569
    1567    1570    1570    1571    1570    1572    1570    1576
    1572    1573    1572    1574    1572    1575    1576    1577
    1576    1578    1576    1579    1580    1582    1580    1581
    1580    1626    1580    1584    1582    1583    1584    1585
    1584    1586    1584    1587    1587    1618    1587    1588
    1588    1589    1588    1590    1590    1591    1590    1592
    1590    1593    1593    1594    1593    1616    1593    1595
    1595    1596    1595    1605    1595    1597    1597    1598
    1597    1599    1597    1600    1600    1601    1600    1602
    1600    1603    1603    1604    1603    1605    1603    1629
    1605    1610    1605    1606    1606    1607    1606    1608
    1606    1609    1610    1611    1610    1612    1610    1613
    1613    1614    1613    1615    1613    1616    1616    1617
    1616    1618    1618    1623    1618    1619    1619    1620
    1619    1621    1619    1622    1623    1624    1623    1625
    1626    1627    1626    1628    1626    1623    1629    1630
    1629    1631    1629    1635    1631    1632    1631    1633
    1631    1634    1635    1636    1635    1637    1635    1638
    1638    1639    1638    1640    1638    1641    1641    1642
    1641    1643    1641    1644    1644    1645    1644    1646
    1644    1650    1646    1647    1646    1648    1646    1649
    1650    1651    1650    1652    1650    1653    1654    1656
    1654    1655    1654    1700    1654    1658    1656    1657
    1658    1659    1658    1660    1658    1661    1661    1692
    1661    1662    1662    1663    1662    1664    1664    1665
    1664    1666    1664    1667    1667    1668    1667    1690
    1667    1669    1669    1670    1669    1679    1669    1671
    1671    1672    1671    1673    1671    1674    1674    1675
    1674    1676    1674    1677    1677    1678    1677    1679
    1677    1703    1679    1684    1679    1680    1680    1681
    1680    1682    1680    1683    1684    1685    1684    1686
    1684    1687    1687    1688    1687    1689    1687    1690
    1690    1691    1690    1692    1692    1697    1692    1693
    1693    1694    1693    1695    1693    1696    1697    1698
    1697    1699    1700    1701    1700    1702    1700    1697
    1703    1704    1703    1705    1703    1709    1705    1706
    1705    1707    1705    1708    1709    1710    1709    1711
    1709    1712    1712    1713    1712    1714    1712    1715
    1715    1716    1715    1717    1715    1718    1718    1719
    1718    1720    1718    1724    1720    1721    1720    1722
    1720    1723    1724    1725    1724    1726    1724    1727
    1728    1730    1728    1729    1728    1774    1728    1732
    1730    1731    1732    1733    1732    1734    1732    1735
    1735    1766    1735    1736    1736    1737    1736    1738
    1738    1739    1738    1740    1738    1741    1741    1742
    1741    1764    1741    1743    1743    1744    1743    1753
    1743    1745    1745    1746    1745    1747    1745    1748
    1748    1749    1748    1750    1748    1751    1751    1752
    1751    1753    1751    1777    1753    1758    1753    1754
    1754    1755    1754    1756    1754    1757    1758    1759
    1758    1760    1758    1761    1761    1762    1761    1763
    1761    1764    1764    1765    1764    1766    1766    1771
    1766    1767    1767    1768    1767    1769    1767    1770
    1771    1772    1771    1773    1774    1775    1774    1776
    1774    1771    1777    1778    1777    1779    1777    1783
    1779    1780    1779    1781    1779    1782    1783    1784
    1783    1785    1783    1786    1786    1787    1786    1788
    1786    1789    1789    1790    1789    1791    1789    1792
    1792    1793    1792    1794    1792    1798    1794    1795
    1794    1796    1794    1797    1798    1799    1798    1800
    1798    1801    1802    1811    1802    1807    1802    1803
    1803    1804    1803    1805    1803    1806    1807    1808
    1807    1809    1807    1810    1811    1812    1811    1813
    1811    1814    1815    1816    1815    1817    1815    1802
    1818    1819    1818    1820    1818    1815    1822    1821
    1823    1821    1824    1821    1825    1821    1825    1818
    1826    1827    1826    1828    1826    1824    1829    1830
    1829    1845    1831    1832    1831    1826    1831    1829
    1833    1834    1833    1835    1833    1831    1835    1836
    1837    1838    1837    1833    1837    1839    1839    1840
    1841    1844    1841    1842    1841    1843    1841    1839
    1845    1847    1845    1846    1847    1848    1847    1849
    1847    1850    1850    1851    1850    1852    1850    1853
    1853    1854    1853    1855    1853    1856    1856    1857
    1856    1858    1856    1859    1859    1862    1859    1860
    1859    1861    1863    1867    1863    1871    1863    1875
    1863    1864    1864    1865    1864    1866    1864    1879
    1867    1868    1867    1869    1867    1870    1871    1872
    1871    1873    1871    1874    1875    1876    1875    1877
    1875    1878    1879    1880    1879    1881    1879    1885
    1882    1886    1882    1883    1882    1884    1885    1882
    1886    1887    1887    1888    1887    1889    1887    1890
    1890    1891    1890    1898    1890    1892    1892    1893
    1893    1895    1893    1894    1895    1896    1895    1897
    1895    1907    1898    1899    1898    1900    1898    1901
    1901    1902    1902    1904    1902    1903    1904    1905
    1904    1906    1904    1920    1907    1908    1907    1909
    1907    1910    1910    1911    1910    1912    1910    1913
    1913    1914    1913    1915    1913    1916    1916    1919
    1916    1917    1916    1918    1920    1921    1920    1922
    1920    1923    1923    1924    1923    1925    1923    1926
    1926    1927    1926    1928    1926    1929    1929    1932
    1929    1930    1929    1931    1933    1934    1933    1935
    1933    1936    1933    1937    1937    1938    1937    1942
    1939    1937    1939    1940    1941    1939    1942    1943
    1942    1944    1942    1948    1945    1949    1945    1946
    1945    1947    1948    1945    1950    1949    1950    1951
    1950    1952    1950    1953    1953    1954    1953    1961
    1953    1955    1955    1956    1956    1958    1956    1957
    1958    1959    1958    1960    1958    1970    1961    1962
    1961    1963    1961    1964    1964    1965    1965    1967
    1965    1966    1967    1968    1967    1969    1967    1983
    1970    1971    1970    1972    1970    1973    1973    1974
    1973    1975    1973    1976    1976    1977    1976    1978
    1976    1979    1979    1982    1979    1980    1979    1981
    1983    1984    1983    1985    1983    1986    1986    1987
    1986    1988    1986    1989    1989    1990    1989    1991
    1989    1992    1992    1995    1992    1993    1992    1994
    1996    2005    1996    2001    1996    1997    1997    1998
    1997    1999    1997    2000    2001    2002    2001    2003
    2001    2004    2005    2006    2005    2007    2005    2008
    2009    2010    2009    2011    2009    1996    2012    2013
    2012    2014    2012    2009    2016    2015    2017    2015
    2018    2015    2019    2015    2019    2012    2020    2021
    2020    2022    2020    2018    2023    2024    2023    2039
    2025    2026    2025    2020    2025    2023    2027    2028
    2027    2029    2027    2025    2029    2030    2031    2032
    2031    2027    2031    2033    2033    2034    2035    2038
    2035    2036    2035    2037    2035    2033    2039    2041
    2039    2040    2041    2042    2041    2043    2041    2044
    2044    2045    2044    2046    2044    2047    2047    2048
    2047    2049    2047    2050    2050    2051    2050    2052
    2050    2053    2053    2056    2053    2054    2053    2055
    2057    2061    2057    2065    2057    2069    2057    2058
    2058    2059    2058    2060    2058    2073    2061    2062
    2061    2063    2061    2064    2065    2066    2065    2067
    2065    2068    2069    2070    2069    2071    2069    2072
    2073    2074    2073    2075    2073    2079    2076    2080
    2076    2077    2076    2078    2079    2076    2080    2081
    2081    2082    2081    2083    2081    2084    2084    2085
    2084    2092    2084    2086    2086    2087    2087    2089
    2087    2088    2089    2090    2089    2091    2089    2101
    2092    2093    2092    2094    2092    2095    2095    2096
    2096    2098    2096    2097    2098    2099    2098    2100
    2098    2114    2101    2102    2101    2103    2101    2104
    2104    2105    2104    2106    2104    2107    2107    2108
    2107    2109    2107    2110    2110    2113    2110    2111
    2110    2112    2114    2115    2114    2116    2114    2117
    2117    2118    2117    2119    2117    2120    2120    2121
    2120    2122    2120    2123    2123    2126    2123    2124
    2123    2125    2127    2128    2127    2129    2127    2130
    2127    2131    2131    2132    2131    2133    2131    2134
    2134    2135    2134    2136    2134    2141    2137    2140
    2137    2138    2137    2139    2141    2137    2142    2143
    2142    2144    2142    2145    2142    2140    2145    2146
    2145    2153    2145    2147    2147    2148    2148    2150
    2148    2149    2150    2151    2150    2152    2150    2162
    2153    2154    2153    2155    2153    2156    2156    2157
    2157    2159    2157    2158    2159    2160    2159    2161
    2159    2175    2162    2163    2162    2164    2162    2165
    2165    2166    2165    2167    2165    2168    2168    2169
    2168    2170    2168    2171    2171    2174    2171    2172
    2171    2173    2175    2176    2175    2177    2175    2178
    2178    2179    2178    2180    2178    2181    2181    2182
    2181    2183    2181    2184    2184    2187    2184    2185
    2184    2186    2188    2189    2188    2190    2188    2191
    2188    2192    2192    2193    2192    2197    2194    2192
    2194    2195    2196    2194    2197    2198    2197    2199
    2197    2203    2200    2204    2200    2201    2200    2202
    2203    2200    2205    2204    2205    2206    2205    2207
    2205    2208    2208    2209    2208    2216    2208    2210
    2210    2211    2211    2213    2211    2212    2213    2214
    2213    2215    2213    2225    2216    2217    2216    2218
    2216    2219    2219    2220    2220    2222    2220    2221
    2222    2223    2222    2224    2222    2238    2225    2226
    2225    2227    2225    2228    2228    2229    2228    2230
    2228    2231    2231    2232    2231    2233    2231    2234
    2234    2237    2234    2235    2234    2236    2238    2239
    2238    2240    2238    2241    2241    2242    2241    2243
    2241    2244    2244    2245    2244    2246    2244    2247
    2247    2250    2247    2248    2247    2249    2251    2252
    2251    2253    2251    2254    2251    2255    2255    2256
    2255    2257    2255    2258    2258    2259    2258    2260
    2258    2265    2261    2264    2261    2262    2261    2263
    2265    2261    2266    2267    2266    2268    2266    2269
    2266    2264    2269    2270    2269    2277    2269    2271
    2271    2272    2272    2274    2272    2273    2274    2275
    2274    2276    2274    2286    2277    2278    2277    2279
    2277    2280    2280    2281    2281    2283    2281    2282
    2283    2284    2283    2285    2283    2299    2286    2287
    2286    2288    2286    2289    2289    2290    2289    2291
    2289    2292    2292    2293    2292    2294    2292    2295
    2295    2298    2295    2296    2295    2297    2299    2300
    2299    2301    2299    2302    2302    2303    2302    2304
    2302    2305    2305    2306    2305    2307    2305    2308
    2308    2311    2308    2309    2308    2310    2312    2313
    2312    2314    2312    2315    2312    2316    2316    2317
    2316    2321    2318    2316    2318    2319    2320    2318
    2321    2322    2321    2323    2321    2327    2324    2328
    2324    2325    2324    2326    2327    2324    2329    2328
    2329    2330    2329    2331    2329    2332    2332    2333
    2332    2340    2332    2334    2334    2335    2335    2337
    2335    2336    2337    2338    2337    2339    2337    2349
    2340    2341    2340    2342    2340    2343    2343    2344
    2344    2346    2344    2345    2346    2347    2346    2348
    2346    2362    2349    2350    2349    2351    2349    2352
    2352    2353    2352    2354    2352    2355    2355    2356
    2355    2357    2355    2358    2358    2361    2358    2359
    2358    2360    2362    2363    2362    2364    2362    2365
    2365    2366    2365    2367    2365    2368    2368    2369
    2368    2370    2368    2371    2371    2374    2371    2372
    2371    2373    2375    2379    2375    2383    2375    2387
    2375    2376    2376    2377    2376    2378    2376    2391
    2379    2380    2379    2381    2379    2382    2383    2384
    2383    2385    2383    2386    2387    2388    2387    2389
    2387    2390    2391    2392    2391    2393    2391    2397
    2394    2398    2394    2395    2394    2396    2397    2394
    2398    2399    2399    2400    2399    2401    2399    2402
    2402    2403    2402    2410    2402    2404    2404    2405
    2405    2407    2405    2406    2407    2408    2407    2409
    2407    2419    2410    2411    2410    2412    2410    2413
    2413    2414    2414    2416    2414    2415    2416    2417
    2416    2418    2416    2432    2419    2420    2419    2421
    2419    2422    2422    2423    2422    2424    2422    2425
    2425    2426    2425    2427    2425    2428    2428    2431
    2428    2429    2428    2430    2432    2433    2432    2434
    2432    2435    2435    2436    2435    2437    2435    2438
    2438    2439    2438    2440    2438    2441    2441    2444
    2441    2442    2441    2443    2445    2446    2445    2447
    2445    2448    2445    2449    2449    2450    2449    2451
    2449    2452    2452    2453    2452    2454    2452    2459
    2455    2458    2455    2456    2455    2457    2459    2455
    2460    2461    2460    2462    2460    2463    2460    2458
    2463    2464    2463    2471    2463    2465    2465    2466
    2466    2468    2466    2467    2468    2469    2468    2470
    2468    2480    2471    2472    2471    2473    2471    2474
    2474    2475    2475    2477    2475    2476    2477    2478
    2477    2479    2477    2493    2480    2481    2480    2482
    2480    2483    2483    2484    2483    2485    2483    2486
    2486    2487    2486    2488    2486    2489    2489    2492
    2489    2490    2489    2491    2493    2494    2493    2495
    2493    2496    2496    2497    2496    2498    2496    2499
    2499    2500    2499    2501    2499    2502    2502    2505
    2502    2503    2502    2504    2506    2510    2506    2514
    2506    2518    2506    2507    2507    2508    2507    2509
    2507    2522    2510    2511    2510    2512    2510    2513
    2514    2515    2514    2516    2514    2517    2518    2519
    2518    2520    2518    2521    2522    2523    2522    2524
    2522    2528    2525    2529    2525    2526    2525    2527
    2528    2525    2529    2530    2530    2531    2530    2532
    2530    2533    2533    2534    2533    2541    2533    2535
    2535    2536    2536    2538    2536    2537    2538    2539
    2538    2540    2538    2550    2541    2542    2541    2543
    2541    2544    2544    2545    2545    2547    2545    2546
    2547    2548    2547    2549    2547    2563    2550    2551
    2550    2552    2550    2553    2553    2554    2553    2555
    2553    2556    2556    2557    2556    2558    2556    2559
    2559    2562    2559    2560    2559    2561    2563    2564
    2563    2565    2563    2566    2566    2567    2566    2568
    2566    2569    2569    2570    2569    2571    2569    2572
    2572    2575    2572    2573    2572    2574    2576    2577
    2576    2578    2576    2579    2576    2580    2580    2581
    2580    2585    2582    2580    2582    2583    2584    2582
    2585    2586    2585    2587    2585    2591    2588    2592
    2588    2589    2588    2590    2591    2588    2593    2592
    2593    2594    2593    2595    2593    2596    2596    2597
    2596    2604    2596    2598    2598    2599    2599    2601
    2599    2600    2601    2602    2601    2603    2601    2613
    2604    2605    2604    2606    2604    2607    2607    2608
    2608    2610    2608    2609    2610    2611    2610    2612
    2610    2626    2613    2614    2613    2615    2613    2616
    2616    2617    2616    2618    2616    2619    2619    2620
    2619    2621    2619    2622    2622    2625    2622    2623
    2622    2624    2626    2627    2626    2628    2626    2629
    2629    2630    2629    2631    2629    2632    2632    2633
    2632    2634    2632    2635    2635    2638    2635    2636
    2635    2637    2639    2648    2639    2644    2639    2640
    2640    2641    2640    2642    2640    2643    2644    2645
    2644    2646    2644    2647    2648    2649    2648    2650
    2648    2651    2652    2653    2652    2654    2652    2639
    2655    2656    2655    2657    2655    2652    2659    2658
    2660    2658    2661    2658    2662    2658    2662    2655
    2663    2664    2663    2665    2663    2661    2666    2667
    2666    2682    2668    2669    2668    2663    2668    2666
    2670    2671    2670    2672    2670    2668    2672    2673
    2674    2675    2674    2670    2674    2676    2676    2677
    2678    2681    2678    2679    2678    2680    2678    2676
    2682    2684    2682    2683    2684    2685    2684    2686
    2684    2687    2687    2688    2687    2689    2687    2690
    2690    2691    2690    2692    2690    2693    2693    2694
    2693    2695    2693    2696    2696    2699    2696    2697
    2696    2698    2700    2704    2700    2708    2700    2712
    2700    2701    2701    2702    2701    2703    2701    2716
    2704    2705    2704    2706    2704    2707    2708    2709
    2708    2710    2708    2711    2712    2713    2712    2714
    2712    2715    2716    2717    2716    2718    2716    2722
    2719    2723    2719    2720    2719    2721    2722    2719
    2723    2724    2724    2725    2724    2726    2724    2727
    2727    2728    2727    2735    2727    2729    2729    2730
    2730    2732    2730    2731    2732    2733    2732    2734
    2732    2744    2735    2736    2735    2737    2735    2738
    2738    2739    2739    2741    2739    2740    2741    2742
    2741    2743    2741    2757    2744    2745    2744    2746
    2744    2747    2747    2748    2747    2749    2747    2750
    2750    2751    2750    2752    2750    2753    2753    2756
    2753    2754    2753    2755    2757    2758    2757    2759
    2757    2760    2760    2761    2760    2762    2760    2763
    2763    2764    2763    2765    2763    2766    2766    2769
    2766    2767    2766    2768    2770    2771    2770    2772
    2770    2773    2770    2774    2774    2775    2774    2779
    2776    2774    2776    2777    2778    2776    2779    2780
    2779    2781    2779    2785    2782    2786    2782    2783
    2782    2784    2785    2782    2787    2786    2787    2788
    2787    2789    2787    2790    2790    2791    2790    2798
    2790    2792    2792    2793    2793    2795    2793    2794
    2795    2796    2795    2797    2795    2807    2798    2799
    2798    2800    2798    2801    2801    2802    2802    2804
    2802    2803    2804    2805    2804    2806    2804    2820
    2807    2808    2807    2809    2807    2810    2810    2811
    2810    2812    2810    2813    2813    2814    2813    2815
    2813    2816    2816    2819    2816    2817    2816    2818
    2820    2821    2820    2822    2820    2823    2823    2824
    2823    2825    2823    2826    2826    2827    2826    2828
    2826    2829    2829    2832    2829    2830    2829    2831
    2833    2842    2833    2838    2833    2834    2834    2835
    2834    2836    2834    2837    2838    2839    2838    2840
    2838    2841    2842    2843    2842    2844    2842    2845
    2846    2847    2846    2848    2846    2833    2849    2850
    2849    2851    2849    2846    2853    2852    2854    2852
    2855    2852    2856    2852    2856    2849    2857    2858
    2857    2859    2857    2855    2860    2861    2860    2876
    2862    2863    2862    2857    2862    2860    2864    2865
    2864    2866    2864    2862    2866    2867    2868    2869
    2868    2864    2868    2870    2870    2871    2872    2875
    2872    2873    2872    2874    2872    2870    2876    2878
    2876    2877    2878    2879    2878    2880    2878    2881
    2881    2882    2881    2883    2881    2884    2884    2885
    2884    2886    2884    2887    2887    2888    2887    2889
    2887    2890    2890    2893    2890    2891    2890    2892
    2894    2898    2894    2902    2894    2906    2894    2895
    2895    2896    2895    2897    2895    2910    2898    2899
    2898    2900    2898    2901    2902    2903    2902    2904
    2902    2905    2906    2907    2906    2908    2906    2909
    2910    2911    2910    2912    2910    2916    2913    2917
    2913    2914    2913    2915    2916    2913    2917    2918
    2918    2919    2918    2920    2918    2921    2921    2922
    2921    2929    2921    2923    2923    2924    2924    2926
    2924    2925    2926    2927    2926    2928    2926    2938
    2929    2930    2929    2931    2929    2932    2932    2933
    2933    2935    2933    2934    2935    2936    2935    2937
    2935    2951    2938    2939    2938    2940    2938    2941
    2941    2942    2941    2943    2941    2944    2944    2945
    2944    2946    2944    2947    2947    2950    2947    2948
    2947    2949    2951    2952    2951    2953    2951    2954
    2954    2955    2954    2956    2954    2957    2957    2958
    2957    2959    2957    2960    2960    2963    2960    2961
    2960    2962    2964    2973    2964    2969    2964    2965
    2965    2966    2965    2967    2965    2968    2969    2970
    2969    2971    2969    2972    2973    2974    2973    2975
    2973    2976    2977    2978    2977    2979    2977    2964
    2980    2981    2980    2982    2980    2977    2984    2983
    2985    2983    2986    2983    2987    2983    2987    2980
    2988    2989    2988    2990    2988    2986    2991    2992
    2991    3007    2993    2994    2993    2988    2993    2991
    2995    2996    2995    2997    2995    2993    2997    2998
    2999    3000    2999    2995    2999    3001    3001    3002
    3003    3006    3003    3004    3003    3005    3003    3001
    3007    3009    3007    3008    3009    3010    3009    3011
    3009    3012    3012    3013    3012    3014    3012    3015
    3015    3016    3015    3017    3015    3018    3018    3019
    3018    3020    3018    3021    3021    3024    3021    3022
    3021    3023    3025    3026    3025    3027    3025    3028
    3025    3029    3029    3030    3029    3031    3029    3032
    3032    3033    3032    3034    3032    3039    3035    3038
    3035    3036    3035    3037    3039    3035    3040    3041
    3040    3042    3040    3043    3040    3038    3043    3044
    3043    3051    3043    3045    3045    3046    3046    3048
    3046    3047    3048    3049    3048    3050    3048    3060
    3051    3052    3051    3053    3051    3054    3054    3055
    3055    3057    3055    3056    3057    3058    3057    3059
    3057    3073    3060    3061    3060    3062    3060    3063
    3063    3064    3063    3065    3063    3066    3066    3067
    3066    3068    3066    3069    3069    3072    3069    3070
    3069    3071    3073    3074    3073    3075    3073    3076
    3076    3077    3076    3078    3076    3079    3079    3080
    3079    3081    3079    3082    3082    3085    3082    3083
    3082    3084    3086    3090    3086    3094    3086    3098
    3086    3087    3087    3088    3087    3089    3087    3102
    3090    3091    3090    3092    3090    3093    3094    3095
    3094    3096    3094    3097    3098    3099    3098    3100
    3098    3101    3102    3103    3102    3104    3102    3108
    3105    3109    3105    3106    3105    3107    3108    3105
    3109    3110    3110    3111    3110    3112    3110    3113
    3113    3114    3113    3121    3113    3115    3115    3116
    3116    3118    3116    3117    3118    3119    3118    3120
    3118    3130    3121    3122    3121    3123    3121    3124
    3124    3125    3125    3127    3125    3126    3127    3128
    3127    3129    3127    3143    3130    3131    3130    3132
    3130    3133    3133    3134    3133    3135    3133    3136
    3136    3137    3136    3138    3136    3139    3139    3142
    3139    3140    3139    3141    3143    3144    3143    3145
    3143    3146    3146    3147    3146    3148    3146    3149
    3149    3150    3149    3151    3149    3152    3152    3155
    3152    3153    3152    3154    3156    3160    3156    3164
    3156    3168    3156    3157    3157    3158    3157    3159
    3157    3172    3160    3161    3160    3162    3160    3163
    3164    3165    3164    3166    3164    3167    3168    3169
    3168    3170    3168    3171    3172    3173    3172    3174
    3172    3178    3175    3179    3175    3176    3175    3177
    3178    3175    3179    3180    3180    3181    3180    3182
    3180    3183    3183    3184    3183    3191    3183    3185
    3185    3186    3186    3188    3186    3187    3188    3189
    3188    3190    3188    3200    3191    3192    3191    3193
    3191    3194    3194    3195    3195    3197    3195    3196
    3197    3198    3197    3199    3197    3213    3200    3201
    3200    3202    3200    3203    3203    3204    3203    3205
    3203    3206    3206    3207    3206    3208    3206    3209
    3209    3212    3209    3210    3209    3211    3213    3214
    3213    3215    3213    3216    3216    3217    3216    3218
    3216    3219    3219    3220    3219    3221    3219    3222
    3222    3225    3222    3223    3222    3224    3226    3227
    3226    3228    3226    3229    3226    3230    3230    3231
    3230    3232    3230    3233    3233    3234    3233    3235
    3233    3240    3236    3239    3236    3237    3236    3238
    3240    3236    3241    3242    3241    3243    3241    3244
    3241    3239    3244    3245    3244    3252    3244    3246
    3246    3247    3247    3249    3247    3248    3249    3250
    3249    3251    3249    3261    3252    3253    3252    3254
    3252    3255    3255    3256    3256    3258    3256    3257
    3258    3259    3258    3260    3258    3274    3261    3262
    3261    3263    3261    3264    3264    3265    3264    3266
    3264    3267    3267    3268    3267    3269    3267    3270
    3270    3273    3270    3271    3270    3272    3274    3275
    3274    3276    3274    3277    3277    3278    3277    3279
    3277    3280    3280    3281    3280    3282    3280    3283
    3283    3286    3283    3284    3283    3285    3287    3291
    3287    3295    3287    3299    3287    3288    3288    3289
    3288    3290    3288    3303    3291    3292    3291    3293
    3291    3294    3295    3296    3295    3297    3295    3298
    3299    3300    3299    3301    3299    3302    3303    3304
    3303    3305    3303    3309    3306    3310    3306    3307
    3306    3308    3309    3306    3310    3311    3311    3312
    3311    3313    3311    3314    3314    3315    3314    3322
    3314    3316    3316    3317    3317    3319    3317    3318
    3319    3320    3319    3321    3319    3331    3322    3323
    3322    3324    3322    3325    3325    3326    3326    3328
    3326    3327    3328    3329    3328    3330    3328    3344
    3331    3332    3331    3333    3331    3334    3334    3335
    3334    3336    3334    3337    3337    3338    3337    3339
    3337    3340    3340    3343    3340    3341    3340    3342
    3344    3345    3344    3346    3344    3347    3347    3348
    3347    3349    3347    3350    3350    3351    3350    3352
    3350    3353    3353    3356    3353    3354    3353    3355
    3357    3358    3357    3359    3357    3360    3357    3361
    3361    3362    3361    3363    3361    3364    3364    3365
    3364    3366    3364    3371    3367    3370    3367    3368
    3367    3369    3371    3367    3372    3373    3372    3374
    3372    3375    3372    3370    3375    3376    3375    3383
    3375    3377    3377    3378    3378    3380    3378    3379
    3380    3381    3380    3382    3380    3392    3383    3384
    3383    3385    3383    3386    3386    3387    3387    3389
    3387    3388    3389    3390    3389    3391    3389    3405
    3392    3393    3392    3394    3392    3395    3395    3396
    3395    3397    3395    3398    3398    3399    3398    3400
    3398    3401    3401    3404    3401    3402    3401    3403
    3405    3406    3405    3407    3405    3408    3408    3409
    3408    3410    3408    3411    3411    3412    3411    3413
    3411    3414    3414    3417    3414    3415    3414    3416
    3418    3419    3418    3420    3418    3421    3418    3422
    3422    3423    3422    3424    3422    3425    3425    3426
    3425    3427    3425    3432    3428    3431    3428    3429
    3428    3430    3432    3428    3433    3434    3433    3435
    3433    3436    3433    3431    3436    3437    3436    3444
    3436    3438    3438    3439    3439    3441    3439    3440
    3441    3442    3441    3443    3441    3453    3444    3445
    3444    3446    3444    3447    3447    3448    3448    3450
    3448    3449    3450    3451    3450    3452    3450    3466
    3453    3454    3453    3455    3453    3456    3456    3457
    3456    3458    3456    3459    3459    3460    3459    3461
    3459    3462    3462    3465    3462    3463    3462    3464
    3466    3467    3466    3468    3466    3469    3469    3470
    3469    3471    3469    3472    3472    3473    3472    3474
    3472    3475    3475    3478    3475    3476    3475    3477
    3479    3480    3479    3481    3479    3482    3479    3483
    3483    3484    3483    3485    3483    3486    3486    3487
    3486    3488    3486    3493    3489    3492    3489    3490
    3489    3491    3493    3489    3494    3495    3494    3496
    3494    3497    3494    3492    3497    3498    3497    3505
    3497    3499    3499    3500    3500    3502    3500    3501
    3502    3503    3502    3504    3502    3514    3505    3506
    3505    3507    3505    3508    3508    3509    3509    3511
    3509    3510    3511    3512    3511    3513    3511    3527
    3514    3515    3514    3516    3514    3517    3517    3518
    3517    3519    3517    3520    3520    3521    3520    3522
    3520    3523    3523    3526    3523    3524    3523    3525
    3527    3528    3527    3529    3527    3530    3530    3531
    3530    3532    3530    3533    3533    3534    3533    3535
    3533    3536    3536    3539    3536    3537    3536    3538
    3540    3549    3540    3545    3540    3541    3541    3542
    3541    3543    3541    3544    3545    3546    3545    3547
    3545    3548    3549    3550    3549    3551    3549    3552
    3553    3554    3553    3555    3553    3540    3556    3557
    3556    3558    3556    3553    3560    3559    3561    3559
    3562    3559    3563    3559    3563    3556    3564    3565
    3564    3566    3564    3562    3567    3568    3567    3583
    3569    3570    3569    3564    3569    3567    3571    3572
    3571    3573    3571    3569    3573    3574    3575    3576
    3575    3571    3575    3577    3577    3578    3579    3582
    3579    3580    3579    3581    3579    3577    3583    3585
    3583    3584    3585    3586    3585    3587    3585    3588
    3588    3589    3588    3590    3588    3591    3591    3592
    3591    3593    3591    3594    3594    3595    3594    3596
    3594    3597    3597    3600    3597    3598    3597    3599
    3601    3610    3601    3606    3601    3602    3602    3603
    3602    3604    3602    3605    3606    3607    3606    3608
    3606    3609    3610    3611    3610    3612    3610    3613
    3614    3615    3614    3616    3614    3601    3617    3618
    3617    3619    3617    3614    3621    3620    3622    3620
    3623    3620    3624    3620    3624    3617    3625    3626
    3625    3627    3625    3623    3628    3629    3628    3644
    3630    3631    3630    3625    3630    3628    3632    3633
    3632    3634    3632    3630    3634    3635    3636    3637
    3636    3632    3636    3638    3638    3639    3640    3643
    3640    3641    3640    3642    3640    3638    3644    3646
    3644    3645    3646    3647    3646    3648    3646    3649
    3649    3650    3649    3651    3649    3652    3652    3653
    3652    3654    3652    3655    3655    3656    3655    3657
    3655    3658    3658    3661    3658    3659    3658    3660
    3662    3663    3662    3664    3662    3665    3662    3666
    3666    3667    3666    3668    3666    3669    3669    3670
    3669    3671    3669    3676    3672    3675    3672    3673
    3672    3674    3676    3672    3677    3678    3677    3679
    3677    3680    3677    3675    3680    3681    3680    3688
    3680    3682    3682    3683    3683    3685    3683    3684
    3685    3686    3685    3687    3685    3697    3688    3689
    3688    3690    3688    3691    3691    3692    3692    3694
    3692    3693    3694    3695    3694    3696    3694    3710
    3697    3698    3697    3699    3697    3700    3700    3701
    3700    3702    3700    3703    3703    3704    3703    3705
    3703    3706    3706    3709    3706    3707    3706    3708
    3710    3711    3710    3712    3710    3713    3713    3714
    3713    3715    3713    3716    3716    3717    3716    3718
    3716    3719    3719    3722    3719    3720    3719    3721
    3723    3724    3723    3725    3723    3726    3723    3727
    3727    3728    3727    3729    3727    3730    3730    3731
    3730    3732    3730    3737    3733    3736    3733    3734
    3733    3735    3737    3733    3738    3739    3738    3740
    3738    3741    3738    3736    3741    3742    3741    3749
    3741    3743    3743    3744    3744    3746    3744    3745
    3746    3747    3746    3748    3746    3758    3749    3750
    3749    3751    3749    3752    3752    3753    3753    3755
    3753    3754    3755    3756    3755    3757    3755    3771
    3758    3759    3758    3760    3758    3761    3761    3762
    3761    3763    3761    3764    3764    3765    3764    3766
    3764    3767    3767    3770    3767    3768    3767    3769
    3771    3772    3771    3773    3771    3774    3774    3775
    3774    3776    3774    3777    3777    3778    3777    3779
    3777    3780    3780    3783    3780    3781    3780    3782
    3784    3793    3784    3789    3784    3785    3785    3786
    3785    3787    3785    3788    3789    3790    3789    3791
    3789    3792    3793    3794    3793    3795    3793    3796
    3797    3798    3797    3799    3797    3784    3800    3801
    3800    3802    3800    3797    3804    3803    3805    3803
    3806    3803    3807    3803    3807    3800    3808    3809
    3808    3810    3808    3806    3811    3812    3811    3827
    3813    3814    3813    3808    3813    3811    3815    3816
    3815    3817    3815    3813    3817    3818    3819    3820
    3819    3815    3819    3821    3821    3822    3823    3826
    3823    3824    3823    3825    3823    3821    3827    3829
    3827    3828    3829    3830    3829    3831    3829    3832
    3832    3833    3832    3834    3832    3835    3835    3836
    3835    3837    3835    3838    3838    3839    3838    3840
    3838    3841    3841    3844    3841    3842    3841    3843
    3845    3846    3845    3847    3845    3848    3845    3849
    3849    3850    3849    3854    3851    3849    3851    3852
    3853    3851    3854    3855    3854    3856    3854    3860
    3857    3861    3857    3858    3857    3859    3860    3857
    3862    3861    3862    3863    3862    3864    3862    3865
    3865    3866    3865    3873    3865    3867    3867    3868
    3868    3870    3868    3869    3870    3871    3870    3872
    3870    3882    3873    3874    3873    3875    3873    3876
    3876    3877    3877    3879    3877    3878    3879    3880
    3879    3881    3879    3895    3882    3883    3882    3884
    3882    3885    3885    3886    3885    3887    3885    3888
    3888    3889    3888    3890    3888    3891    3891    3894
    3891    3892    3891    3893    3895    3896    3895    3897
    3895    3898    3898    3899    3898    3900    3898    3901
    3901    3902    3901    3903    3901    3904    3904    3907
    3904    3905    3904    3906    3908    3909    3908    3910
    3908    3911    3908    3912    3912    3913    3912    3914
    3912    3915    3915    3916    3915    3917    3915    3922
    3918    3921    3918    3919    3918    3920    3922    3918
    3923    3924    3923    3925    3923    3926    3923    3921
    3926    3927    3926    3934    3926    3928    3928    3929
    3929    3931    3929    3930    3931    3932    3931    3933
    3931    3943    3934    3935    3934    3936    3934    3937
    3937    3938    3938    3940    3938    3939    3940    3941
    3940    3942    3940    3956    3943    3944    3943    3945
    3943    3946    3946    3947    3946    3948    3946    3949
    3949    3950    3949    3951    3949    3952    3952    3955
    3952    3953    3952    3954    3956    3957    3956    3958
    3956    3959    3959    3960    3959    3961    3959    3962
    3962    3963    3962    3964    3962    3965    3965    3968
    3965    3966    3965    3967    3969    3973    3969    3977
    3969    3981    3969    3970    3970    3971    3970    3972
    3970    3985    3973    3974    3973    3975    3973    3976
    3977    3978    3977    3979    3977    3980    3981    3982
    3981    3983    3981    3984    3985    3986    3985    3987
    3985    3991    3988    3992    3988    3989    3988    3990
    3991    3988    3992    3993    3993    3994    3993    3995
    3993    3996    3996    3997    3996    4004    3996    3998
    3998    3999    3999    4001    3999    4000    4001    4002
    4001    4003    4001    4013    4004    4005    4004    4006
    4004    4007    4007    4008    4008    4010    4008    4009
    4010    4011    4010    4012    4010    4026    4013    4014
    4013    4015    4013    4016    4016    4017    4016    4018
    4016    4019    4019    4020    4019    4021    4019    4022
    4022    4025    4022    4023    4022    4024    4026    4027
    4026    4028    4026    4029    4029    4030    4029    4031
    4029    4032    4032    4033    4032    4034    4032    4035
    4035    4038    4035    4036    4035    4037    4039    4040
    4039    4041    4039    4042    4039    4043    4043    4044
    4043    4045    4043    4046    4046    4047    4046    4048
    4046    4053    4049    4052    4049    4050    4049    4051
    4053    4049    4054    4055    4054    4056    4054    4057
    4054    4052    4057    4058    4057    4065    4057    4059
    4059    4060    4060    4062    4060    4061    4062    4063
    4062    4064    4062    4074    4065    4066    4065    4067
    4065    4068    4068    4069    4069    4071    4069    4070
    4071    4072    4071    4073    4071    4087    4074    4075
    4074    4076    4074    4077    4077    4078    4077    4079
    4077    4080    4080    4081    4080    4082    4080    4083
    4083    4086    4083    4084    4083    4085    4087    4088
    4087    4089    4087    4090    4090    4091    4090    4092
    4090    4093    4093    4094    4093    4095    4093    4096
    4096    4099    4096    4097    4096    4098    4100    4104
    4100    4108    4100    4112    4100    4101    4101    4102
    4101    4103    4101    4116    4104    4105    4104    4106
    4104    4107    4108    4109    4108    4110    4108    4111
    4112    4113    4112    4114    4112    4115    4116    4117
    4116    4118    4116    4122    4119    4123    4119    4120
    4119    4121    4122    4119    4123    4124    4124    4125
    4124    4126    4124    4127    4127    4128    4127    4135
    4127    4129    4129    4130    4130    4132    4130    4131
    4132    4133    4132    4134    4132    4144    4135    4136
    4135    4137    4135    4138    4138    4139    4139    4141
    4139    4140    4141    4142    4141    4143    4141    4157
    4144    4145    4144    4146    4144    4147    4147    4148
    4147    4149    4147    4150    4150    4151    4150    4152
    4150    4153    4153    4156    4153    4154    4153    4155
    4157    4158    4157    4159    4157    4160    4160    4161
    4160    4162    4160    4163    4163    4164    4163    4165
    4163    4166    4166    4169    4166    4167    4166    4168
    4170    4174    4170    4178    4170    4182    4170    4171
    4171    4172    4171    4173    4171    4186    4174    4175
    4174    4176    4174    4177    4178    4179    4178    4180
    4178    4181    4182    4183    4182    4184    4182    4185
    4186    4187    4186    4188    4186    4192    4189    4193
    4189    4190    4189    4191    4192    4189    4193    4194
    4194    4195    4194    4196    4194    4197    4197    4198
    4197    4205    4197    4199    4199    4200    4200    4202
    4200    4201    4202    4203    4202    4204    4202    4214
    4205    4206    4205    4207    4205    4208    4208    4209
    4209    4211    4209    4210    4211    4212    4211    4213
    4211    4227    4214    4215    4214    4216    4214    4217
    4217    4218    4217    4219    4217    4220    4220    4221
    4220    4222    4220    4223    4223    4226    4223    4224
    4223    4225    4227    4228    4227    4229    4227    4230
    4230    4231    4230    4232    4230    4233    4233    4234
    4233    4235    4233    4236    4236    4239    4236    4237
    4236    4238    4240    4249    4240    4245    4240    4241
    4241    4242    4241    4243    4241    4244    4245    4246
    4245    4247    4245    4248    4249    4250    4249    4251
    4249    4252    4253    4254    4253    4255    4253    4240
    4256    4257    4256    4258    4256    4253    4260    4259
    4261    4259    4262    4259    4263    4259    4263    4256
    4264    4265    4264    4266    4264    4262    4267    4268
    4267    4283    4269    4270    4269    4264    4269    4267
    4271    4272    4271    4273    4271    4269    4273    4274
    4275    4276    4275    4271    4275    4277    4277    4278
    4279    4282    4279    4280    4279    4281    4279    4277
    4283    4285    4283    4284    4285    4286    4285    4287
    4285    4288    4288    4289    4288    4290    4288    4291
    4291    4292    4291    4293    4291    4294    4294    4295
    4294    4296    4294    4297    4297    4300    4297    4298
    4297    4299    4301    4303    4301    4302    4301    4347
    4301    4305    4303    4304    4305    4306    4305    4307
    4305    4308    4308    4339    4308    4309    4309    4310
    4309    4311    4311    4312    4311    4313    4311    4314
    4314    4315    4314    4337    4314    4316    4316    4317
    4316    4326    4316    4318    4318    4319    4318    4320
    4318    4321    4321    4322    4321    4323    4321    4324
    4324    4325    4324    4326    4324    4350    4326    4331
    4326    4327    4327    4328    4327    4329    4327    4330
    4331    4332    4331    4333    4331    4334    4334    4335
    4334    4336    4334    4337    4337    4338    4337    4339
    4339    4344    4339    4340    4340    4341    4340    4342
    4340    4343    4344    4345    4344    4346    4347    4348
    4347    4349    4347    4344    4350    4351    4350    4352
    4350    4356    4352    4353    4352    4354    4352    4355
    4356    4357    4356    4358    4356    4359    4359    4360
    4359    4361    4359    4362    4362    4363    4362    4364
    4362    4365    4365    4366    4365    4367    4365    4371
    4367    4368    4367    4369    4367    4370    4371    4372
    4371    4373    4371    4374    4375    4377    4375    4376
    4375    4421    4375    4379    4377    4378    4379    4380
    4379    4381    4379    4382    4382    4413    4382    4383
    4383    4384    4383    4385    4385    4386    4385    4387
    4385    4388    4388    4389    4388    4411    4388    4390
    4390    4391    4390    4400    4390    4392    4392    4393
    4392    4394    4392    4395    4395    4396    4395    4397
    4395    4398    4398    4399    4398    4400    4398    4424
    4400    4405    4400    4401    4401    4402    4401    4403
    4401    4404    4405    4406    4405    4407    4405    4408
    4408    4409    4408    4410    4408    4411    4411    4412
    4411    4413    4413    4418    4413    4414    4414    4415
    4414    4416    4414    4417    4418    4419    4418    4420
    4421    4422    4421    4423    4421    4418    4424    4425
    4424    4426    4424    4430    4426    4427    4426    4428
    4426    4429    4430    4431    4430    4432    4430    4433
    4433    4434    4433    4435    4433    4436    4436    4437
    4436    4438    4436    4439    4439    4440    4439    4441
    4439    4445    4441    4442    4441    4443    4441    4444
    4445    4446    4445    4447    4445    4448    4449    4451
    4449    4450    4449    4495    4449    4453    4451    4452
    4453    4454    4453    4455    4453    4456    4456    4487
    4456    4457    4457    4458    4457    4459    4459    4460
    4459    4461    4459    4462    4462    4463    4462    4485
    4462    4464    4464    4465    4464    4474    4464    4466
    4466    4467    4466    4468    4466    4469    4469    4470
    4469    4471    4469    4472    4472    4473    4472    4474
    4472    4498    4474    4479    4474    4475    4475    4476
    4475    4477    4475    4478    4479    4480    4479    4481
    4479    4482    4482    4483    4482    4484    4482    4485
    4485    4486    4485    4487    4487    4492    4487    4488
    4488    4489    4488    4490    4488    4491    4492    4493
    4492    4494    4495    4496    4495    4497    4495    4492
    4498    4499    4498    4500    4498    4504    4500    4501
    4500    4502    4500    4503    4504    4505    4504    4506
    4504    4507    4507    4508    4507    4509    4507    4510
    4510    4511    4510    4512    4510    4513    4513    4514
    4513    4515    4513    4519    4515    4516    4515    4517
    4515    4518    4519    4520    4519    4521    4519    4522
    4523    4525    4523    4524    4523    4569    4523    4527
    4525    4526    4527    4528    4527    4529    4527    4530
    4530    4561    4530    4531    4531    4532    4531    4533
    4533    4534    4533    4535    4533    4536    4536    4537
    4536    4559    4536    4538    4538    4539    4538    4548
    4538    4540    4540    4541    4540    4542    4540    4543
    4543    4544    4543    4545    4543    4546    4546    4547
    4546    4548    4546    4572    4548    4553    4548    4549
    4549    4550    4549    4551    4549    4552    4553    4554
    4553    4555    4553    4556    4556    4557    4556    4558
    4556    4559    4559    4560    4559    4561    4561    4566
    4561    4562    4562    4563    4562    4564    4562    4565
    4566    4567    4566    4568    4569    4570    4569    4571
    4569    4566    4572    4573    4572    4574    4572    4578
    4574    4575    4574    4576    4574    4577    4578    4579
    4578    4580    4578    4581    4581    4582    4581    4583
    4581    4584    4584    4585    4584    4586    4584    4587
    4587    4588    4587    4589    4587    4593    4589    4590
    4589    4591    4589    4592    4593    4594    4593    4595
    4593    4596    4597    4599    4597    4598    4597    4643
    4597    4601    4599    4600    4601    4602    4601    4603
    4601    4604    4604    4635    4604    4605    4605    4606
    4605    4607    4607    4608    4607    4609    4607    4610
    4610    4611    4610    4633    4610    4612    4612    4613
    4612    4622    4612    4614    4614    4615    4614    4616
    4614    4617    4617    4618    4617    4619    4617    4620
    4620    4621    4620    4622    4620    4646    4622    4627
    4622    4623    4623    4624    4623    4625    4623    4626
    4627    4628    4627    4629    4627    4630    4630    4631
    4630    4632    4630    4633    4633    4634    4633    4635
    4635    4640    4635    4636    4636    4637    4636    4638
    4636    4639    4640    4641    4640    4642    4643    4644
    4643    4645    4643    4640    4646    4647    4646    4648
    4646    4652    4648    4649    4648    4650    4648    4651
    4652    4653    4652    4654    4652    4655    4655    4656
    4655    4657    4655    4658    4658    4659    4658    4660
    4658    4661    4661    4662    4661    4663    4661    4667
    4663    4664    4663    4665    4663    4666    4667    4668
    4667    4669    4667    4670    4671    4673    4671    4672
    4671    4717    4671    4675    4673    4674    4675    4676
    4675    4677    4675    4678    4678    4709    4678    4679
    4679    4680    4679    4681    4681    4682    4681    4683
    4681    4684    4684    4685    4684    4707    4684    4686
    4686    4687    4686    4696    4686    4688    4688    4689
    4688    4690    4688    4691    4691    4692    4691    4693
    4691    4694    4694    4695    4694    4696    4694    4720
    4696    4701    4696    4697    4697    4698    4697    4699
    4697    4700    4701    4702    4701    4703    4701    4704
    4704    4705    4704    4706    4704    4707    4707    4708
    4707    4709    4709    4714    4709    4710    4710    4711
    4710    4712    4710    4713    4714    4715    4714    4716
    4717    4718    4717    4719    4717    4714    4720    4721
    4720    4722    4720    4726    4722    4723    4722    4724
    4722    4725    4726    4727    4726    4728    4726    4729
    4729    4730    4729    4731    4729    4732    4732    4733
    4732    4734    4732    4735    4735    4736    4735    4737
    4735    4741    4737    4738    4737    4739    4737    4740
    4741    4742    4741    4743    4741    4744    4745    4747
    4745    4746    4745    4791    4745    4749    4747    4748
    4749    4750    4749    4751    4749    4752    4752    4783
    4752    4753    4753    4754    4753    4755    4755    4756
    4755    4757    4755    4758    4758    4759    4758    4781
    4758    4760    4760    4761    4760    4770    4760    4762
    4762    4763    4762    4764    4762    4765    4765    4766
    4765    4767    4765    4768    4768    4769    4768    4770
    4768    4794    4770    4775    4770    4771    4771    4772
    4771    4773    4771    4774    4775    4776    4775    4777
    4775    4778    4778    4779    4778    4780    4778    4781
    4781    4782    4781    4783    4783    4788    4783    4784
    4784    4785    4784    4786    4784    4787    4788    4789
    4788    4790    4791    4792    4791    4793    4791    4788
    4794    4795    4794    4796    4794    4800    4796    4797
    4796    4798    4796    4799    4800    4801    4800    4802
    4800    4803    4803    4804    4803    4805    4803    4806
    4806    4807    4806    4808    4806    4809    4809    4810
    4809    4811    4809    4815    4811    4812    4811    4813
    4811    4814    4815    4816    4815    4817    4815    4818
    4819    4821    4819    4820    4819    4865    4819    4823
    4821    4822    4823    4824    4823    4825    4823    4826
    4826    4857    4826    4827    4827    4828    4827    4829
    4829    4830    4829    4831    4829    4832    4832    4833
    4832    4855    4832    4834    4834    4835    4834    4844
    4834    4836    4836    4837    4836    4838    4836    4839
    4839    4840    4839    4841    4839    4842    4842    4843
    4842    4844    4842    4868    4844    4849    4844    4845
    4845    4846    4845    4847    4845    4848    4849    4850
    4849    4851    4849    4852    4852    4853    4852    4854
    4852    4855    4855    4856    4855    4857    4857    4862
    4857    4858    4858    4859    4858    4860    4858    4861
    4862    4863    4862    4864    4865    4866    4865    4867
    4865    4862    4868    4869    4868    4870    4868    4874
    4870    4871    4870    4872    4870    4873    4874    4875
    4874    4876    4874    4877    4877    4878    4877    4879
    4877    4880    4880    4881    4880    4882    4880    4883
    4883    4884    4883    4885    4883    4889    4885    4886
    4885    4887    4885    4888    4889    4890    4889    4891
    4889    4892    4893    4895    4893    4894    4893    4939
    4893    4897    4895    4896    4897    4898    4897    4899
    4897    4900    4900    4931    4900    4901    4901    4902
    4901    4903    4903    4904    4903    4905    4903    4906
    4906    4907    4906    4929    4906    4908    4908    4909
    4908    4918    4908    4910    4910    4911    4910    4912
    4910    4913    4913    4914    4913    4915    4913    4916
    4916    4917    4916    4918    4916    4942    4918    4923
    4918    4919    4919    4920    4919    4921    4919    4922
    4923    4924    4923    4925    4923    4926    4926    4927
    4926    4928    4926    4929    4929    4930    4929    4931
    4931    4936    4931    4932    4932    4933    4932    4934
    4932    4935    4936    4937    4936    4938    4939    4940
    4939    4941    4939    4936    4942    4943    4942    4944
    4942    4948    4944    4945    4944    4946    4944    4947
    4948    4949    4948    4950    4948    4951    4951    4952
    4951    4953    4951    4954    4954    4955    4954    4956
    4954    4957    4957    4958    4957    4959    4957    4963
    4959    4960    4959    4961    4959    4962    4963    4964
    4963    4965    4963    4966    4967    4969    4967    4968
    4967    5013    4967    4971    4969    4970    4971    4972
    4971    4973    4971    4974    4974    5005    4974    4975
    4975    4976    4975    4977    4977    4978    4977    4979
    4977    4980    4980    4981    4980    5003    4980    4982
    4982    4983    4982    4992    4982    4984    4984    4985
    4984    4986    4984    4987    4987    4988    4987    4989
    4987    4990    4990    4991    4990    4992    4990    5016
    4992    4997    4992    4993    4993    4994    4993    4995
    4993    4996    4997    4998    4997    4999    4997    5000
    5000    5001    5000    5002    5000    5003    5003    5004
    5003    5005    5005    5010    5005    5006    5006    5007
    5006    5008    5006    5009    5010    5011    5010    5012
    5013    5014    5013    5015    5013    5010    5016    5017
    5016    5018    5016    5022    5018    5019    5018    5020
    5018    5021    5022    5023    5022    5024    5022    5025
    5025    5026    5025    5027    5025    5028    5028    5029
    5028    5030    5028    5031    5031    5032    5031    5033
    5031    5037    5033    5034    5033    5035    5033    5036
    5037    5038    5037    5039    5037    5040    5041    5043
    5041    5042    5041    5087    5041    5045    5043    5044
    5045    5046    5045    5047    5045    5048    5048    5079
    5048    5049    5049    5050    5049    5051    5051    5052
    5051    5053    5051    5054    5054    5055    5054    5077
    5054    5056    5056    5057    5056    5066    5056    5058
    5058    5059    5058    5060    5058    5061    5061    5062
    5061    5063    5061    5064    5064    5065    5064    5066
    5064    5090    5066    5071    5066    5067    5067    5068
    5067    5069    5067    5070    5071    5072    5071    5073
    5071    5074    5074    5075    5074    5076    5074    5077
    5077    5078    5077    5079    5079    5084    5079    5080
    5080    5081    5080    5082    5080    5083    5084    5085
    5084    5086    5087    5088    5087    5089    5087    5084
    5090    5091    5090    5092    5090    5096    5092    5093
    5092    5094    5092    5095    5096    5097    5096    5098
    5096    5099    5099    5100    5099    5101    5099    5102
    5102    5103    5102    5104    5102    5105    5105    5106
    5105    5107    5105    5111    5107    5108    5107    5109
    5107    5110    5111    5112    5111    5113    5111    5114
    5115    5117    5115    5116    5115    5161    5115    5119
    5117    5118    5119    5120    5119    5121    5119    5122
    5122    5153    5122    5123    5123    5124    5123    5125
    5125    5126    5125    5127    5125    5128    5128    5129
    5128    5151    5128    5130    5130    5131    5130    5140
    5130    5132    5132    5133    5132    5134    5132    5135
    5135    5136    5135    5137    5135    5138    5138    5139
    5138    5140    5138    5164    5140    5145    5140    5141
    5141    5142    5141    5143    5141    5144    5145    5146
    5145    5147    5145    5148    5148    5149    5148    5150
    5148    5151    5151    5152    5151    5153    5153    5158
    5153    5154    5154    5155    5154    5156    5154    5157
    5158    5159    5158    5160    5161    5162    5161    5163
    5161    5158    5164    5165    5164    5166    5164    5170
    5166    5167    5166    5168    5166    5169    5170    5171
    5170    5172    5170    5173    5173    5174    5173    5175
    5173    5176    5176    5177    5176    5178    5176    5179
    5179    5180    5179    5181    5179    5185    5181    5182
    5181    5183    5181    5184    5185    5186    5185    5187
    5185    5188    5189    5191    5189    5190    5189    5235
    5189    5193    5191    5192    5193    5194    5193    5195
    5193    5196    5196    5227    5196    5197    5197    5198
    5197    5199    5199    5200    5199    5201    5199    5202
    5202    5203    5202    5225    5202    5204    5204    5205
    5204    5214    5204    5206    5206    5207    5206    5208
    5206    5209    5209    5210    5209    5211    5209    5212
    5212    5213    5212    5214    5212    5238    5214    5219
    5214    5215    5215    5216    5215    5217    5215    5218
    5219    5220    5219    5221    5219    5222    5222    5223
    5222    5224    5222    5225    5225    5226    5225    5227
    5227    5232    5227    5228    5228    5229    5228    5230
    5228    5231    5232    5233    5232    5234    5235    5236
    5235    5237    5235    5232    5238    5239    5238    5240
    5238    5244    5240    5241    5240    5242    5240    5243
    5244    5245    5244    5246    5244    5247    5247    5248
    5247    5249    5247    5250    5250    5251    5250    5252
    5250    5253    5253    5254    5253    5255    5253    5259
    5255    5256    5255    5257    5255    5258    5259    5260
    5259    5261    5259    5262    5263    5265    5263    5264
    5263    5309    5263    5267    5265    5266    5267    5268
    5267    5269    5267    5270    5270    5301    5270    5271
    5271    5272    5271    5273    5273    5274    5273    5275
    5273    5276    5276    5277    5276    5299    5276    5278
    5278    5279    5278    5288    5278    5280    5280    5281
    5280    5282    5280    5283    5283    5284    5283    5285
    5283    5286    5286    5287    5286    5288    5286    5312
    5288    5293    5288    5289    5289    5290    5289    5291
    5289    5292    5293    5294    5293    5295    5293    5296
    5296    5297    5296    5298    5296    5299    5299    5300
    5299    5301    5301    5306    5301    5302    5302    5303
    5302    5304    5302    5305    5306    5307    5306    5308
    5309    5310    5309    5311    5309    5306    5312    5313
    5312    5314    5312    5318    5314    5315    5314    5316
    5314    5317    5318    5319    5318    5320    5318    5321
    5321    5322    5321    5323    5321    5324    5324    5325
    5324    5326    5324    5327    5327    5328    5327    5329
    5327    5333    5329    5330    5329    5331    5329    5332
    5333    5334    5333    5335    5333    5336    5337    5339
    5337    5338    5337    5383    5337    5341    5339    5340
    5341    5342    5341    5343    5341    5344    5344    5375
    5344    5345    5345    5346    5345    5347    5347    5348
    5347    5349    5347    5350    5350    5351    5350    5373
    5350    5352    5352    5353    5352    5362    5352    5354
    5354    5355    5354    5356    5354    5357    5357    5358
    5357    5359    5357    5360    5360    5361    5360    5362
    5360    5386    5362    5367    5362    5363    5363    5364
    5363    5365    5363    5366    5367    5368    5367    5369
    5367    5370    5370    5371    5370    5372    5370    5373
    5373    5374    5373    5375    5375    5380    5375    5376
    5376    5377    5376    5378    5376    5379    5380    5381
    5380    5382    5383    5384    5383    5385    5383    5380
    5386    5387    5386    5388    5386    5392    5388    5389
    5388    5390    5388    5391    5392    5393    5392    5394
    5392    5395    5395    5396    5395    5397    5395    5398
    5398    5399    5398    5400    5398    5401    5401    5402
    5401    5403    5401    5407    5403    5404    5403    5405
    5403    5406    5407    5408    5407    5409    5407    5410
    5411    5413    5411    5412    5411    5457    5411    5415
    5413    5414    5415    5416    5415    5417    5415    5418
    5418    5449    5418    5419    5419    5420    5419    5421
    5421    5422    5421    5423    5421    5424    5424    5425
    5424    5447    5424    5426    5426    5427    5426    5436
    5426    5428    5428    5429    5428    5430    5428    5431
    5431    5432    5431    5433    5431    5434    5434    5435
    5434    5436    5434    5460    5436    5441    5436    5437
    5437    5438    5437    5439    5437    5440    5441    5442
    5441    5443    5441    5444    5444    5445    5444    5446
    5444    5447    5447    5448    5447    5449    5449    5454
    5449    5450    5450    5451    5450    5452    5450    5453
    5454    5455    5454    5456    5457    5458    5457    5459
    5457    5454    5460    5461    5460    5462    5460    5466
    5462    5463    5462    5464    5462    5465    5466    5467
    5466    5468    5466    5469    5469    5470    5469    5471
    5469    5472    5472    5473    5472    5474    5472    5475
    5475    5476    5475    5477    5475    5481    5477    5478
    5477    5479    5477    5480    5481    5482    5481    5483
    5481    5484    5485    5487    5485    5486    5485    5531
    5485    5489    5487    5488    5489    5490    5489    5491
    5489    5492    5492    5523    5492    5493    5493    5494
    5493    5495    5495    5496    5495    5497    5495    5498
    5498    5499    5498    5521    5498    5500    5500    5501
    5500    5510    5500    5502    5502    5503    5502    5504
    5502    5505    5505    5506    5505    5507    5505    5508
    5508    5509    5508    5510    5508    5534    5510    5515
    5510    5511    5511    5512    5511    5513    5511    5514
    5515    5516    5515    5517    5515    5518    5518    5519
    5518    5520    5518    5521    5521    5522    5521    5523
    5523    5528    5523    5524    5524    5525    5524    5526
    5524    5527    5528    5529    5528    5530    5531    5532
    5531    5533    5531    5528    5534    5535    5534    5536
    5534    5540    5536    5537    5536    5538    5536    5539
    5540    5541    5540    5542    5540    5543    5543    5544
    5543    5545    5543    5546    5546    5547    5546    5548
    5546    5549    5549    5550    5549    5551    5549    5555
    5551    5552    5551    5553    5551    5554    5555    5556
    5555    5557    5555    5558    5559    5561    5559    5560
    5559    5605    5559    5563    5561    5562    5563    5564
    5563    5565    5563    5566    5566    5597    5566    5567
    5567    5568    5567    5569    5569    5570    5569    5571
    5569    5572    5572    5573    5572    5595    5572    5574
    5574    5575    5574    5584    5574    5576    5576    5577
    5576    5578    5576    5579    5579    5580    5579    5581
    5579    5582    5582    5583    5582    5584    5582    5608
    5584    5589    5584    5585    5585    5586    5585    5587
    5585    5588    5589    5590    5589    5591    5589    5592
    5592    5593    5592    5594    5592    5595    5595    5596
    5595    5597    5597    5602    5597    5598    5598    5599
    5598    5600    5598    5601    5602    5603    5602    5604
    5605    5606    5605    5607    5605    5602    5608    5609
    5608    5610    5608    5614    5610    5611    5610    5612
    5610    5613    5614    5615    5614    5616    5614    5617
    5617    5618    5617    5619    5617    5620    5620    5621
    5620    5622    5620    5623    5623    5624    5623    5625
    5623    5629    5625    5626    5625    5627    5625    5628
    5629    5630    5629    5631    5629    5632    5633    5635
    5633    5634    5633    5679    5633    5637    5635    5636
    5637    5638    5637    5639    5637    5640    5640    5671
    5640    5641    5641    5642    5641    5643    5643    5644
    5643    5645    5643    5646    5646    5647    5646    5669
    5646    5648    5648    5649    5648    5658    5648    5650
    5650    5651    5650    5652    5650    5653    5653    5654
    5653    5655    5653    5656    5656    5657    5656    5658
    5656    5682    5658    5663    5658    5659    5659    5660
    5659    5661    5659    5662    5663    5664    5663    5665
    5663    5666    5666    5667    5666    5668    5666    5669
    5669    5670    5669    5671    5671    5676    5671    5672
    5672    5673    5672    5674    5672    5675    5676    5677
    5676    5678    5679    5680    5679    5681    5679    5676
    5682    5683    5682    5684    5682    5688    5684    5685
    5684    5686    5684    5687    5688    5689    5688    5690
    5688    5691    5691    5692    5691    5693    5691    5694
    5694    5695    5694    5696    5694    5697    5697    5698
    5697    5699    5697    5703    5699    5700    5699    5701
    5699    5702    5703    5704    5703    5705    5703    5706
    5707    5709    5707    5708    5707    5753    5707    5711
    5709    5710    5711    5712    5711    5713    5711    5714
    5714    5745    5714    5715    5715    5716    5715    5717
    5717    5718    5717    5719    5717    5720    5720    5721
    5720    5743    5720    5722    5722    5723    5722    5732
    5722    5724    5724    5725    5724    5726    5724    5727
    5727    5728    5727    5729    5727    5730    5730    5731
    5730    5732    5730    5756    5732    5737    5732    5733
    5733    5734    5733    5735    5733    5736    5737    5738
    5737    5739    5737    5740    5740    5741    5740    5742
    5740    5743    5743    5744    5743    5745    5745    5750
    5745    5746    5746    5747    5746    5748    5746    5749
    5750    5751    5750    5752    5753    5754    5753    5755
    5753    5750    5756    5757    5756    5758    5756    5762
    5758    5759    5758    5760    5758    5761    5762    5763
    5762    5764    5762    5765    5765    5766    5765    5767
    5765    5768    5768    5769    5768    5770    5768    5771
    5771    5772    5771    5773    5771    5777    5773    5774
    5773    5775    5773    5776    5777    5778    5777    5779
    5777    5780    5781    5783    5781    5782    5781    5827
    5781    5785    5783    5784    5785    5786    5785    5787
    5785    5788    5788    5819    5788    5789    5789    5790
    5789    5791    5791    5792    5791    5793    5791    5794
    5794    5795    5794    5817    5794    5796    5796    5797
    5796    5806    5796    5798    5798    5799    5798    5800
    5798    5801    5801    5802    5801    5803    5801    5804
    5804    5805    5804    5806    5804    5830    5806    5811
    5806    5807    5807    5808    5807    5809    5807    5810
    5811    5812    5811    5813    5811    5814    5814    5815
    5814    5816    5814    5817    5817    5818    5817    5819
    5819    5824    5819    5820    5820    5821    5820    5822
    5820    5823    5824    5825    5824    5826    5827    5828
    5827    5829    5827    5824    5830    5831    5830    5832
    5830    5836    5832    5833    5832    5834    5832    5835
    5836    5837    5836    5838    5836    5839    5839    5840
    5839    5841    5839    5842    5842    5843    5842    5844
    5842    5845    5845    5846    5845    5847    5845    5851
    5847    5848    5847    5849    5847    5850    5851    5852
    5851    5853    5851    5854    5855    5856    5855    5857
    5855    5858    5855    5859    5859    5860    5859    5864
    5861    5859    5861    5862    5863    5861    5864    5865
    5864    5866    5864    5870    5867    5871    5867    5868
    5867    5869    5870    5867    5872    5871    5872    5873
    5872    5874    5872    5875    5875    5876    5875    5883
    5875    5877    5877    5878    5878    5880    5878    5879
    5880    5881    5880    5882    5880    5892    5883    5884
    5883    5885    5883    5886    5886    5887    5887    5889
    5887    5888    5889    5890    5889    5891    5889    5905
    5892    5893    5892    5894    5892    5895    5895    5896
    5895    5897    5895    5898    5898    5899    5898    5900
    5898    5901    5901    5904    5901    5902    5901    5903
    5905    5906    5905    5907    5905    5908    5908    5909
    5908    5910    5908    5911    5911    5912    5911    5913
    5911    5914    5914    5917    5914    5915    5914    5916
    5918    5927    5918    5923    5918    5919    5919    5920
    5919    5921    5919    5922    5923    5924    5923    5925
    5923    5926    5927    5928    5927    5929    5927    5930
    5931    5932    5931    5933    5931    5918    5934    5935
    5934    5936    5934    5931    5938    5937    5939    5937
    5940    5937    5941    5937    5941    5934    5942    5943
    5942    5944    5942    5940    5945    5946    5945    5961
    5947    5948    5947    5942    5947    5945    5949    5950
    5949    5951    5949    5947    5951    5952    5953    5954
    5953    5949    5953    5955    5955    5956    5957    5960
    5957    5958    5957    5959    5957    5955    5961    5963
    5961    5962    5963    5964    5963    5965    5963    5966
    5966    5967    5966    5968    5966    5969    5969    5970
    5969    5971    5969    5972    5972    5973    5972    5974
    5972    5975    5975    5978    5975    5976    5975    5977
    5979    5980    5979    5981    5979    5982    5979    5983
    5983    5984    5983    5988    5985    5983    5985    5986
    5987    5985    5988    5989    5988    5990    5988    5994
    5991    5995    5991    5992    5991    5993    5994    5991
    5996    5995    5996    5997    5996    5998    5996    5999
    5999    6000    5999    6007    5999    6001    6001    6002
    6002    6004    6002    6003    6004    6005    6004    6006
    6004    6016    6007    6008    6007    6009    6007    6010
    6010    6011    6011    6013    6011    6012    6013    6014
    6013    6015    6013    6029    6016    6017    6016    6018
    6016    6019    6019    6020    6019    6021    6019    6022
    6022    6023    6022    6024    6022    6025    6025    6028
    6025    6026    6025    6027    6029    6030    6029    6031
    6029    6032    6032    6033    6032    6034    6032    6035
    6035    6036    6035    6037    6035    6038    6038    6041
    6038    6039    6038    6040    6042    6043    6042    6044
    6042    6045    6042    6046    6046    6047    6046    6051
    6048    6046    6048    6049    6050    6048    6051    6052
    6051    6053    6051    6057    6054    6058    6054    6055
    6054    6056    6057    6054    6059    6058    6059    6060
    6059    6061    6059    6062    6062    6063    6062    6070
    6062    6064    6064    6065    6065    6067    6065    6066
    6067    6068    6067    6069    6067    6079    6070    6071
    6070    6072    6070    6073    6073    6074    6074    6076
    6074    6075    6076    6077    6076    6078    6076    6092
    6079    6080    6079    6081    6079    6082    6082    6083
    6082    6084    6082    6085    6085    6086    6085    6087
    6085    6088    6088    6091    6088    6089    6088    6090
    6092    6093    6092    6094    6092    6095    6095    6096
    6095    6097    6095    6098    6098    6099    6098    6100
    6098    6101    6101    6104    6101    6102    6101    6103
    6105    6109    6105    6113    6105    6117    6105    6106
    6106    6107    6106    6108    6106    6121    6109    6110
    6109    6111    6109    6112    6113    6114    6113    6115
    6113    6116    6117    6118    6117    6119    6117    6120
    6121    6122    6121    6123    6121    6127    6124    6128
    6124    6125    6124    6126    6127    6124    6128    6129
    6129    6130    6129    6131    6129    6132    6132    6133
    6132    6140    6132    6134    6134    6135    6135    6137
    6135    6136    6137    6138    6137    6139    6137    6149
    6140    6141    6140    6142    6140    6143    6143    6144
    6144    6146    6144    6145    6146    6147    6146    6148
    6146    6162    6149    6150    6149    6151    6149    6152
    6152    6153    6152    6154    6152    6155    6155    6156
    6155    6157    6155    6158    6158    6161    6158    6159
    6158    6160    6162    6163    6162    6164    6162    6165
    6165    6166    6165    6167    6165    6168    6168    6169
    6168    6170    6168    6171    6171    6174    6171    6172
    6171    6173    6175    6184    6175    6180    6175    6176
    6176    6177    6176    6178    6176    6179    6180    6181
    6180    6182    6180    6183    6184    6185    6184    6186
    6184    6187    6188    6189    6188    6190    6188    6175
    6191    6192    6191    6193    6191    6188    6195    6194
    6196    6194    6197    6194    6198    6194    6198    6191
    6199    6200    6199    6201    6199    6197    6202    6203
    6202    6218    6204    6205    6204    6199    6204    6202
    6206    6207    6206    6208    6206    6204    6208    6209
    6210    6211    6210    6206    6210    6212    6212    6213
    6214    6217    6214    6215    6214    6216    6214    6212
    6218    6220    6218    6219    6220    6221    6220    6222
    6220    6223    6223    6224    6223    6225    6223    6226
    6226    6227    6226    6228    6226    6229    6229    6230
    6229    6231    6229    6232    6232    6235    6232    6233
    6232    6234    6236    6240    6236    6244    6236    6248
    6236    6237    6237    6238    6237    6239    6237    6252
    6240    6241    6240    6242    6240    6243    6244    6245
    6244    6246    6244    6247    6248    6249    6248    6250
    6248    6251    6252    6253    6252    6254    6252    6258
    6255    6259    6255    6256    6255    6257    6258    6255
    6259    6260    6260    6261    6260    6262    6260    6263
    6263    6264    6263    6271    6263    6265    6265    6266
    6266    6268    6266    6267    6268    6269    6268    6270
    6268    6280    6271    6272    6271    6273    6271    6274
    6274    6275    6275    6277    6275    6276    6277    6278
    6277    6279    6277    6293    6280    6281    6280    6282
    6280    6283    6283    6284    6283    6285    6283    6286
    6286    6287    6286    6288    6286    6289    6289    6292
    6289    6290    6289    6291    6293    6294    6293    6295
    6293    6296    6296    6297    6296    6298    6296    6299
    6299    6300    6299    6301    6299    6302    6302    6305
    6302    6303    6302    6304    6306    6315    6306    6311
    6306    6307    6307    6308    6307    6309    6307    6310
    6311    6312    6311    6313    6311    6314    6315    6316
    6315    6317    6315    6318    6319    6320    6319    6321
    6319    6306    6322    6323    6322    6324    6322    6319
    6326    6325    6327    6325    6328    6325    6329    6325
    6329    6322    6330    6331    6330    6332    6330    6328
    6333    6334    6333    6349    6335    6336    6335    6330
    6335    6333    6337    6338    6337    6339    6337    6335
    6339    6340    6341    6342    6341    6337    6341    6343
    6343    6344    6345    6348    6345    6346    6345    6347
    6345    6343    6349    6351    6349    6350    6351    6352
    6351    6353    6351    6354    6354    6355    6354    6356
    6354    6357    6357    6358    6357    6359    6357    6360
    6360    6361    6360    6362    6360    6363    6363    6366
    6363    6364    6363    6365    6367    6368    6367    6369
    6367    6370    6367    6371    6371    6372    6371    6373
    6371    6374    6374    6375    6374    6376    6374    6381
    6377    6380    6377    6378    6377    6379    6381    6377
    6382    6383    6382    6384    6382    6385    6382    6380
    6385    6386    6385    6393    6385    6387    6387    6388
    6388    6390    6388    6389    6390    6391    6390    6392
    6390    6402    6393    6394    6393    6395    6393    6396
    6396    6397    6397    6399    6397    6398    6399    6400
    6399    6401    6399    6415    6402    6403    6402    6404
    6402    6405    6405    6406    6405    6407    6405    6408
    6408    6409    6408    6410    6408    6411    6411    6414
    6411    6412    6411    6413    6415    6416    6415    6417
    6415    6418    6418    6419    6418    6420    6418    6421
    6421    6422    6421    6423    6421    6424    6424    6427
    6424    6425    6424    6426    6428    6429    6428    6430
    6428    6431    6428    6432    6432    6433    6432    6437
    6434    6432    6434    6435    6436    6434    6437    6438
    6437    6439    6437    6443    6440    6444    6440    6441
    6440    6442    6443    6440    6445    6444    6445    6446
    6445    6447    6445    6448    6448    6449    6448    6456
    6448    6450    6450    6451    6451    6453    6451    6452
    6453    6454    6453    6455    6453    6465    6456    6457
    6456    6458    6456    6459    6459    6460    6460    6462
    6460    6461    6462    6463    6462    6464    6462    6478
    6465    6466    6465    6467    6465    6468    6468    6469
    6468    6470    6468    6471    6471    6472    6471    6473
    6471    6474    6474    6477    6474    6475    6474    6476
    6478    6479    6478    6480    6478    6481    6481    6482
    6481    6483    6481    6484    6484    6485    6484    6486
    6484    6487    6487    6490    6487    6488    6487    6489
    6491    6495    6491    6499    6491    6503    6491    6492
    6492    6493    6492    6494    6492    6507    6495    6496
    6495    6497    6495    6498    6499    6500    6499    6501
    6499    6502    6503    6504    6503    6505    6503    6506
    6507    6508    6507    6509    6507    6513    6510    6514
    6510    6511    6510    6512    6513    6510    6514    6515
    6515    6516    6515    6517    6515    6518    6518    6519
    6518    6526    6518    6520    6520    6521    6521    6523
    6521    6522    6523    6524    6523    6525    6523    6535
    6526    6527    6526    6528    6526    6529    6529    6530
    6530    6532    6530    6531    6532    6533    6532    6534
    6532    6548    6535    6536    6535    6537    6535    6538
    6538    6539    6538    6540    6538    6541    6541    6542
    6541    6543    6541    6544    6544    6547    6544    6545
    6544    6546    6548    6549    6548    6550    6548    6551
    6551    6552    6551    6553    6551    6554    6554    6555
    6554    6556    6554    6557    6557    6560    6557    6558
    6557    6559    6561    6562    6561    6563    6561    6564
    6561    6565    6565    6566    6565    6567    6565    6568
    6568    6569    6568    6570    6568    6575    6571    6574
    6571    6572    6571    6573    6575    6571    6576    6577
    6576    6578    6576    6579    6576    6574    6579    6580
    6579    6587    6579    6581    6581    6582    6582    6584
    6582    6583    6584    6585    6584    6586    6584    6596
    6587    6588    6587    6589    6587    6590    6590    6591
    6591    6593    6591    6592    6593    6594    6593    6595
    6593    6609    6596    6597    6596    6598    6596    6599
    6599    6600    6599    6601    6599    6602    6602    6603
    6602    6604    6602    6605    6605    6608    6605    6606
    6605    6607    6609    6610    6609    6611    6609    6612
    6612    6613    6612    6614    6612    6615    6615    6616
    6615    6617    6615    6618    6618    6621    6618    6619
    6618    6620    6622    6626    6622    6630    6622    6634
    6622    6623    6623    6624    6623    6625    6623    6638
    6626    6627    6626    6628    6626    6629    6630    6631
    6630    6632    6630    6633    6634    6635    6634    6636
    6634    6637    6638    6639    6638    6640    6638    6644
    6641    6645    6641    6642    6641    6643    6644    6641
    6645    6646    6646    6647    6646    6648    6646    6649
    6649    6650    6649    6657    6649    6651    6651    6652
    6652    6654    6652    6653    6654    6655    6654    6656
    6654    6666    6657    6658    6657    6659    6657    6660
    6660    6661    6661    6663    6661    6662    6663    6664
    6663    6665    6663    6679    6666    6667    6666    6668
    6666    6669    6669    6670    6669    6671    6669    6672
    6672    6673    6672    6674    6672    6675    6675    6678
    6675    6676    6675    6677    6679    6680    6679    6681
    6679    6682    6682    6683    6682    6684    6682    6685
    6685    6686    6685    6687    6685    6688    6688    6691
    6688    6689    6688    6690    6692    6701    6692    6697
    6692    6693    6693    6694    6693    6695    6693    6696
    6697    6698    6697    6699    6697    6700    6701    6702
    6701    6703    6701    6704    6705    6706    6705    6707
    6705    6692    6708    6709    6708    6710    6708    6705
    6712    6711    6713    6711    6714    6711    6715    6711
    6715    6708    6716    6717    6716    6718    6716    6714
    6719    6720    6719    6735    6721    6722    6721    6716
    6721    6719    6723    6724    6723    6725    6723    6721
    6725    6726    6727    6728    6727    6723    6727    6729
    6729    6730    6731    6734    6731    6732    6731    6733
    6731    6729    6735    6737    6735    6736    6737    6738
    6737    6739    6737    6740    6740    6741    6740    6742
    6740    6743    6743    6744    6743    6745    6743    6746
    6746    6747    6746    6748    6746    6749    6749    6752
    6749    6750    6749    6751    6753    6757    6753    6761
    6753    6765    6753    6754    6754    6755    6754    6756
    6754    6769    6757    6758    6757    6759    6757    6760
    6761    6762    6761    6763    6761    6764    6765    6766
    6765    6767    6765    6768    6769    6770    6769    6771
    6769    6775    6772    6776    6772    6773    6772    6774
    6775    6772    6776    6777    6777    6778    6777    6779
    6777    6780    6780    6781    6780    6788    6780    6782
    6782    6783    6783    6785    6783    6784    6785    6786
    6785    6787    6785    6797    6788    6789    6788    6790
    6788    6791    6791    6792    6792    6794    6792    6793
    6794    6795    6794    6796    6794    6810    6797    6798
    6797    6799    6797    6800    6800    6801    6800    6802
    6800    6803    6803    6804    6803    6805    6803    6806
    6806    6809    6806    6807    6806    6808    6810    6811
    6810    6812    6810    6813    6813    6814    6813    6815
    6813    6816    6816    6817    6816    6818    6816    6819
    6819    6822    6819    6820    6819    6821    6823    6824
    6823    6825    6823    6826    6823    6827    6827    6828
    6827    6829    6827    6830    6830    6831    6830    6832
    6830    6837    6833    6836    6833    6834    6833    6835
    6837    6833    6838    6839    6838    6840    6838    6841
    6838    6836    6841    6842    6841    6849    6841    6843
    6843    6844    6844    6846    6844    6845    6846    6847
    6846    6848    6846    6858    6849    6850    6849    6851
    6849    6852    6852    6853    6853    6855    6853    6854
    6855    6856    6855    6857    6855    6871    6858    6859
    6858    6860    6858    6861    6861    6862    6861    6863
    6861    6864    6864    6865    6864    6866    6864    6867
    6867    6870    6867    6868    6867    6869    6871    6872
    6871    6873    6871    6874    6874    6875    6874    6876
    6874    6877    6877    6878    6877    6879    6877    6880
    6880    6883    6880    6881    6880    6882    6884    6885
    6884    6886    6884    6887    6884    6888    6888    6889
    6888    6890    6888    6891    6891    6892    6891    6893
    6891    6898    6894    6897    6894    6895    6894    6896
    6898    6894    6899    6900    6899    6901    6899    6902
    6899    6897    6902    6903    6902    6910    6902    6904
    6904    6905    6905    6907    6905    6906    6907    6908
    6907    6909    6907    6919    6910    6911    6910    6912
    6910    6913    6913    6914    6914    6916    6914    6915
    6916    6917    6916    6918    6916    6932    6919    6920
    6919    6921    6919    6922    6922    6923    6922    6924
    6922    6925    6925    6926    6925    6927    6925    6928
    6928    6931    6928    6929    6928    6930    6932    6933
    6932    6934    6932    6935    6935    6936    6935    6937
    6935    6938    6938    6939    6938    6940    6938    6941
    6941    6944    6941    6942    6941    6943    6945    6946
    6945    6947    6945    6948    6945    6949    6949    6950
    6949    6951    6949    6952    6952    6953    6952    6954
    6952    6959    6955    6958    6955    6956    6955    6957
    6959    6955    6960    6961    6960    6962    6960    6963
    6960    6958    6963    6964    6963    6971    6963    6965
    6965    6966    6966    6968    6966    6967    6968    6969
    6968    6970    6968    6980    6971    6972    6971    6973
    6971    6974    6974    6975    6975    6977    6975    6976
    6977    6978    6977    6979    6977    6993    6980    6981
    6980    6982    6980    6983    6983    6984    6983    6985
    6983    6986    6986    6987    6986    6988    6986    6989
    6989    6992    6989    6990    6989    6991    6993    6994
    6993    6995    6993    6996    6996    6997    6996    6998
    6996    6999    6999    7000    6999    7001    6999    7002
    7002    7005    7002    7003    7002    7004    7006    7007
    7006    7008    7006    7009    7006    7010    7010    7011
    7010    7012    7010    7013    7013    7014    7013    7015
    7013    7020    7016    7019    7016    7017    7016    7018
    7020    7016    7021    7022    7021    7023    7021    7024
    7021    7019    7024    7025    7024    7032    7024    7026
    7026    7027    7027    7029    7027    7028    7029    7030
    7029    7031    7029    7041    7032    7033    7032    7034
    7032    7035    7035    7036    7036    7038    7036    7037
    7038    7039    7038    7040    7038    7054    7041    7042
    7041    7043    7041    7044    7044    7045    7044    7046
    7044    7047    7047    7048    7047    7049    7047    7050
    7050    7053    7050    7051    7050    7052    7054    7055
    7054    7056    7054    7057    7057    7058    7057    7059
    7057    7060    7060    7061    7060    7062    7060    7063
    7063    7066    7063    7064    7063    7065    7067    7076
    7067    7072    7067    7068    7068    7069    7068    7070
    7068    7071    7072    7073    7072    7074    7072    7075
    7076    7077    7076    7078    7076    7079    7080    7081
    7080    7082    7080    7067    7083    7084    7083    7085
    7083    7080    7087    7086    7088    7086    7089    7086
    7090    7086    7090    7083    7091    7092    7091    7093
    7091    7089    7094    7095    7094    7110    7096    7097
    7096    7091    7096    7094    7098    7099    7098    7100
    7098    7096    7100    7101    7102    7103    7102    7098
    7102    7104    7104    7105    7106    7109    7106    7107
    7106    7108    7106    7104    7110    7112    7110    7111
    7112    7113    7112    7114    7112    7115    7115    7116
    7115    7117    7115    7118    7118    7119    7118    7120
    7118    7121    7121    7122    7121    7123    7121    7124
    7124    7127    7124    7125    7124    7126    7128    7132
    7128    7136    7128    7140    7128    7129    7129    7130
    7129    7131    7129    7144    7132    7133    7132    7134
    7132    7135    7136    7137    7136    7138    7136    7139
    7140    7141    7140    7142    7140    7143    7144    7145
    7144    7146    7144    7150    7147    7151    7147    7148
    7147    7149    7150    7147    7151    7152    7152    7153
    7152    7154    7152    7155    7155    7156    7155    7163
    7155    7157    7157    7158    7158    7160    7158    7159
    7160    7161    7160    7162    7160    7172    7163    7164
    7163    7165    7163    7166    7166    7167    7167    7169
    7167    7168    7169    7170    7169    7171    7169    7185
    7172    7173    7172    7174    7172    7175    7175    7176
    7175    7177    7175    7178    7178    7179    7178    7180
    7178    7181    7181    7184    7181    7182    7181    7183
    7185    7186    7185    7187    7185    7188    7188    7189
    7188    7190    7188    7191    7191    7192    7191    7193
    7191    7194    7194    7197    7194    7195    7194    7196
    7198    7199    7198    7200    7198    7201    7198    7202
    7202    7203    7202    7204    7202    7205    7205    7206
    7205    7207    7205    7212    7208    7211    7208    7209
    7208    7210    7212    7208    7213    7214    7213    7215
    7213    7216    7213    7211    7216    7217    7216    7224
    7216    7218    7218    7219    7219    7221    7219    7220
    7221    7222    7221    7223    7221    7233    7224    7225
    7224    7226    7224    7227    7227    7228    7228    7230
    7228    7229    7230    7231    7230    7232    7230    7246
    7233    7234    7233    7235    7233    7236    7236    7237
    7236    7238    7236    7239    7239    7240    7239    7241
    7239    7242    7242    7245    7242    7243    7242    7244
    7246    7247    7246    7248    7246    7249    7249    7250
    7249    7251    7249    7252    7252    7253    7252    7254
    7252    7255    7255    7258    7255    7256    7255    7257
    7259    7263    7259    7267    7259    7271    7259    7260
    7260    7261    7260    7262    7260    7275    7263    7264
    7263    7265    7263    7266    7267    7268    7267    7269
    7267    7270    7271    7272    7271    7273    7271    7274
    7275    7276    7275    7277    7275    7281    7278    7282
    7278    7279    7278    7280    7281    7278    7282    7283
    7283    7284    7283    7285    7283    7286    7286    7287
    7286    7294    7286    7288    7288    7289    7289    7291
    7289    7290    7291    7292    7291    7293    7291    7303
    7294    7295    7294    7296    7294    7297    7297    7298
    7298    7300    7298    7299    7300    7301    7300    7302
    7300    7316    7303    7304    7303    7305    7303    7306
    7306    7307    7306    7308    7306    7309    7309    7310
    7309    7311    7309    7312    7312    7315    7312    7313
    7312    7314    7316    7317    7316    7318    7316    7319
    7319    7320    7319    7321    7319    7322    7322    7323
    7322    7324    7322    7325    7325    7328    7325    7326
    7325    7327    7329    7330    7329    7331    7329    7332
    7329    7333    7333    7334    7333    7335    7333    7336
    7336    7337    7336    7338    7336    7343    7339    7342
    7339    7340    7339    7341    7343    7339    7344    7345
    7344    7346    7344    7347    7344    7342    7347    7348
    7347    7355    7347    7349    7349    7350    7350    7352
    7350    7351    7352    7353    7352    7354    7352    7364
    7355    7356    7355    7357    7355    7358    7358    7359
    7359    7361    7359    7360    7361    7362    7361    7363
    7361    7377    7364    7365    7364    7366    7364    7367
    7367    7368    7367    7369    7367    7370    7370    7371
    7370    7372    7370    7373    7373    7376    7373    7374
    7373    7375    7377    7378    7377    7379    7377    7380
    7380    7381    7380    7382    7380    7383    7383    7384
    7383    7385    7383    7386    7386    7389    7386    7387
    7386    7388    7390    7391    7390    7392    7390    7393
    7390    7394    7394    7395    7394    7396    7394    7397
    7397    7398    7397    7399    7397    7404    7400    7403
    7400    7401    7400    7402    7404    7400    7405    7406
    7405    7407    7405    7408    7405    7403    7408    7409
    7408    7416    7408    7410    7410    7411    7411    7413
    7411    7412    7413    7414    7413    7415    7413    7425
    7416    7417    7416    7418    7416    7419    7419    7420
    7420    7422    7420    7421    7422    7423    7422    7424
    7422    7438    7425    7426    7425    7427    7425    7428
    7428    7429    7428    7430    7428    7431    7431    7432
    7431    7433    7431    7434    7434    7437    7434    7435
    7434    7436    7438    7439    7438    7440    7438    7441
    7441    7442    7441    7443    7441    7444    7444    7445
    7444    7446    7444    7447    7447    7450    7447    7448
    7447    7449    7451    7460    7451    7456    7451    7452
    7452    7453    7452    7454    7452    7455    7456    7457
    7456    7458    7456    7459    7460    7461    7460    7462
    7460    7463    7464    7465    7464    7466    7464    7451
    7467    7468    7467    7469    7467    7464    7471    7470
    7472    7470    7473    7470    7474    7470    7474    7467
    7475    7476    7475    7477    7475    7473    7478    7479
    7478    7494    7480    7481    7480    7475    7480    7478
    7482    7483    7482    7484    7482    7480    7484    7485
    7486    7487    7486    7482    7486    7488    7488    7489
    7490    7493    7490    7491    7490    7492    7490    7488
    7494    7496    7494    7495    7496    7497    7496    7498
    7496    7499    7499    7500    7499    7501    7499    7502
    7502    7503    7502    7504    7502    7505    7505    7506
    7505    7507    7505    7508    7508    7511    7508    7509
    7508    7510    7512    7516    7512    7520    7512    7524
    7512    7513    7513    7514    7513    7515    7513    7528
    7516    7517    7516    7518    7516    7519    7520    7521
    7520    7522    7520    7523    7524    7525    7524    7526
    7524    7527    7528    7529    7528    7530    7528    7534
    7531    7535    7531    7532    7531    7533    7534    7531
    7535    7536    7536    7537    7536    7538    7536    7539
    7539    7540    7539    7547    7539    7541    7541    7542
    7542    7544    7542    7543    7544    7545    7544    7546
    7544    7556    7547    7548    7547    7549    7547    7550
    7550    7551    7551    7553    7551    7552    7553    7554
    7553    7555    7553    7569    7556    7557    7556    7558
    7556    7559    7559    7560    7559    7561    7559    7562
    7562    7563    7562    7564    7562    7565    7565    7568
    7565    7566    7565    7567    7569    7570    7569    7571
    7569    7572    7572    7573    7572    7574    7572    7575
    7575    7576    7575    7577    7575    7578    7578    7581
    7578    7579    7578    7580    7582    7583    7582    7584
    7582    7585    7582    7586    7586    7587    7586    7588
    7586    7589    7589    7590    7589    7591    7589    7596
    7592    7595    7592    7593    7592    7594    7596    7592
    7597    7598    7597    7599    7597    7600    7597    7595
    7600    7601    7600    7608    7600    7602    7602    7603
    7603    7605    7603    7604    7605    7606    7605    7607
    7605    7617    7608    7609    7608    7610    7608    7611
    7611    7612    7612    7614    7612    7613    7614    7615
    7614    7616    7614    7630    7617    7618    7617    7619
    7617    7620    7620    7621    7620    7622    7620    7623
    7623    7624    7623    7625    7623    7626    7626    7629
    7626    7627    7626    7628    7630    7631    7630    7632
    7630    7633    7633    7634    7633    7635    7633    7636
    7636    7637    7636    7638    7636    7639    7639    7642
    7639    7640    7639    7641    7643    7647    7643    7651
    7643    7655    7643    7644    7644    7645    7644    7646
    7644    7659    7647    7648    7647    7649    7647    7650
    7651    7652    7651    7653    7651    7654    7655    7656
    7655    7657    7655    7658    7659    7660    7659    7661
    7659    7665    7662    7666    7662    7663    7662    7664
    7665    7662    7666    7667    7667    7668    7667    7669
    7667    7670    7670    7671    7670    7678    7670    7672
    7672    7673    7673    7675    7673    7674    7675    7676
    7675    7677    7675    7687    7678    7679    7678    7680
    7678    7681    7681    7682    7682    7684    7682    7683
    7684    7685    7684    7686    7684    7700    7687    7688
    7687    7689    7687    7690    7690    7691    7690    7692
    7690    7693    7693    7694    7693    7695    7693    7696
    7696    7699    7696    7697    7696    7698    7700    7701
    7700    7702    7700    7703    7703    7704    7703    7705
    7703    7706    7706    7707    7706    7708    7706    7709
    7709    7712    7709    7710    7709    7711    7713    7722
    7713    7718    7713    7714    7714    7715    7714    7716
    7714    7717    7718    7719    7718    7720    7718    7721
    7722    7723    7722    7724    7722    7725    7726    7727
    7726    7728    7726    7713    7729    7730    7729    7731
    7729    7726    7733    7732    7734    7732    7735    7732
    7736    7732    7736    7729    7737    7738    7737    7739
    7737    7735    7740    7741    7740    7756    7742    7743
    7742    7737    7742    7740    7744    7745    7744    7746
    7744    7742    7746    7747    7748    7749    7748    7744
    7748    7750    7750    7751    7752    7755    7752    7753
    7752    7754    7752    7750    7756    7758    7756    7757
    7758    7759    7758    7760    7758    7761    7761    7762
    7761    7763    7761    7764    7764    7765    7764    7766
    7764    7767    7767    7768    7767    7769    7767    7770
    7770    7773    7770    7771    7770    7772    7774    7778
    7774    7782    7774    7786    7774    7775    7775    7776
    7775    7777    7775    7790    7778    7779    7778    7780
    7778    7781    7782    7783    7782    7784    7782    7785
    7786    7787    7786    7788    7786    7789    7790    7791
    7790    7792    7790    7796    7793    7797    7793    7794
    7793    7795    7796    7793    7797    7798    7798    7799
    7798    7800    7798    7801    7801    7802    7801    7809
    7801    7803    7803    7804    7804    7806    7804    7805
    7806    7807    7806    7808    7806    7818    7809    7810
    7809    7811    7809    7812    7812    7813    7813    7815
    7813    7814    7815    7816    7815    7817    7815    7831
    7818    7819    7818    7820    7818    7821    7821    7822
    7821    7823    7821    7824    7824    7825    7824    7826
    7824    7827    7827    7830    7827    7828    7827    7829
    7831    7832    7831    7833    7831    7834    7834    7835
    7834    7836    7834    7837    7837    7838    7837    7839
    7837    7840    7840    7843    7840    7841    7840    7842
    7844    7845    7844    7846    7844    7847    7844    7848
    7848    7849    7848    7853    7850    7848    7850    7851
    7852    7850    7853    7854    7853    7855    7853    7859
    7856    7860    7856    7857    7856    7858    7859    7856
    7861    7860    7861    7862    7861    7863    7861    7864
    7864    7865    7864    7872    7864    7866    7866    7867
    7867    7869    7867    7868    7869    7870    7869    7871
    7869    7881    7872    7873    7872    7874    7872    7875
    7875    7876    7876    7878    7876    7877    7878    7879
    7878    7880    7878    7894    7881    7882    7881    7883
    7881    7884    7884    7885    7884    7886    7884    7887
    7887    7888    7887    7889    7887    7890    7890    7893
    7890    7891    7890    7892    7894    7895    7894    7896
    7894    7897    7897    7898    7897    7899    7897    7900
    7900    7901    7900    7902    7900    7903    7903    7906
    7903    7904    7903    7905    7907    7908    7907    7909
    7908    7909    7910    7911    7910    7912    7911    7912
    7913    7914    7913    7915    7914    7915    7916    7917
    7916    7918    7917    7918    7919    7920    7919    7921
    7920    7921    7922    7923    7922    7924    7923    7924
    7925    7926    7925    7927    7926    7927    7928    7929
    7928    7930    7929    7930    7931    7932    7931    7933
    7932    7933    7934    7935    7934    7936    7935    7936
    7937    7938    7937    7939    7938    7939    7940    7941
    7940    7942    7941    7942    7943    7944    7943    7945
    7944    7945    7946    7947    7946    7948    7947    7948
    7949    7950    7949    7951    7950    7951    7952    7953
    7952    7954    7953    7954    7955    7956    7955    7957
    7956    7957    7958    7959    7958    7960    7959    7960
    7961    7962    7961    7963    7962    7963    7964    7965
    7964    7966    7965    7966    7967    7968    7967    7969
    7968    7969    7970    7971    7970    7972    7971    7972
    7973    7974    7973    7975    7974    7975    7976    7977
    7976    7978    7977    7978    7979    7980    7979    7981
    7980    7981    7982    7983    7982    7984    7983    7984
    7985    7986    7985    7987    7986    7987    7988    7989
    7988    7990    7989    7990    7991    7992    7991    7993
    7992    7993    7994    7995    7994    7996    7995    7996
    7997    7998    7997    7999    7998    7999    8000    8001
    8000    8002    8001    8002    8003    8004    8003    8005
    8004    8005    8006    8007    8006    8008    8007    8008
    8009    8010    8009    8011    8010    8011    8012    8013
    8012    8014    8013    8014    8015    8016    8015    8017
    8016    8017    8018    8019    8018    8020    8019    8020
    8021    8022    8021    8023    8022    8023    8024    8025
    8024    8026    8025    8026    8027    8028    8027    8029
    8028    8029    8030    8031    8030    8032    8031    8032
    8033    8034    8033    8035    8034    8035    8036    8037
    8036    8038    8037    8038    8039    8040    8039    8041
    8040    8041    8042    8043    8042    8044    8043    8044
    8045    8046    8045    8047    8046    8047    8048    8049
    8048    8050    8049    8050    8051    8052    8051    8053
    8052    8053    8054    8055    8054    8056    8055    8056
    8057    8058    8057    8059    8058    8059    8060    8061
    8060    8062    8061    8062    8063    8064    8063    8065
    8064    8065    8066    8067    8066    8068    8067    8068
    8069    8070    8069    8071    8070    8071    8072    8073
    8072    8074    8073    8074    8075    8076    8075    8077
    8076    8077    8078    8079    8078    8080    8079    8080
    8081    8082    8081    8083    8082    8083    8084    8085
    8084    8086    8085    8086    8087    8088    8087    8089
    8088    8089    8090    8091    8090    8092    8091    8092
    8093    8094    8093    8095    8094    8095    8096    8097
    8096    8098    8097    8098    8099    8100    8099    8101
    8100    8101    8102    8103    8102    8104    8103    8104
    8105    8106    8105    8107    8106    8107    8108    8109
    8108    8110    8109    8110    8111    8112    8111    8113
    8112    8113    8114    8115    8114    8116    8115    8116
    8117    8118    8117    8119    8118    8119    8120    8121
    8120    8122    8121    8122    8123    8124    8123    8125
    8124    8125    8126    8127    8126    8128    8127    8128
    8129    8130    8129    8131    8130    8131    8132    8133
    8132    8134    8133    8134    8135    8136    8135    8137
    8136    8137    8138    8139    8138    8140    8139    8140
    8141    8142    8141    8143    8142    8143    8144    8145
    8144    8146    8145    8146    8147    8148    8147    8149
    8148    8149    8150    8151    8150    8152    8151    8152
    8153    8154    8153    8155    8154    8155    8156    8157
    8156    8158    8157    8158    8159    8160    8159    8161
    8160    8161    8162    8163    8162    8164    8163    8164
    8165    8166    8165    8167    8166    8167    8168    8169
    8168    8170    8169    8170    8171    8172    8171    8173
    8172    8173    8174    8175    8174    8176    8175    8176
    8177    8178    8177    8179    8178    8179    8180    8181
    8180    8182    8181    8182    8183    8184    8183    8185
    8184    8185    8186    8187    8186    8188    8187    8188
    8189    8190    8189    8191    8190    8191    8192    8193
    8192    8194    8193    8194    8195    8196    8195    8197
    8196    8197    8198    8199    8198    8200    8199    8200
    8201    8202    8201    8203    8202    8203    8204    8205
    8204    8206    8205    8206    8207    8208    8207    8209
    8208    8209    8210    8211    8210    8212    8211    8212
    8213    8214    8213    8215    8214    8215    8216    8217
    8216    8218    8217    8218    8219    8220    8219    8221
    8220    8221    8222    8223    8222    8224    8223    8224
    8225    8226    8225    8227    8226    8227    8228    8229
    8228    8230    8229    8230    8231    8232    8231    8233
    8232    8233    8234    8235    8234    8236    8235    8236
    8237    8238    8237    8239    8238    8239    8240    8241
    8240    8242    8241    8242    8243    8244    8243    8245
    8244    8245    8246    8247    8246    8248    8247    8248
    8249    8250    8249    8251    8250    8251    8252    8253
    8252    8254    8253    8254    8255    8256    8255    8257
    8256    8257    8258    8259    8258    8260    8259    8260
    8261    8262    8261    8263    8262    8263    8264    8265
    8264    8266    8265    8266    8267    8268    8267    8269
    8268    8269    8270    8271    8270    8272    8271    8272
    8273    8274    8273    8275    8274    8275    8276    8277
    8276    8278    8277    8278    8279    8280    8279    8281
    8280    8281    8282    8283    8282    8284    8283    8284
    8285    8286    8285    8287    8286    8287    8288    8289
    8288    8290    8289    8290    8291    8292    8291    8293
    8292    8293    8294    8295    8294    8296    8295    8296
    8297    8298    8297    8299    8298    8299    8300    8301
    8300    8302    8301    8302    8303    8304    8303    8305
    8304    8305    8306    8307    8306    8308    8307    8308
    8309    8310    8309    8311    8310    8311    8312    8313
    8312    8314    8313    8314    8315    8316    8315    8317
    8316    8317    8318    8319    8318    8320    8319    8320
    8321    8322    8321    8323    8322    8323    8324    8325
    8324    8326    8325    8326    8327    8328    8327    8329
    8328    8329    8330    8331    8330    8332    8331    8332
    8333    8334    8333    8335    8334    8335    8336    8337
    8336    8338    8337    8338    8339    8340    8339    8341
    8340    8341    8342    8343    8342    8344    8343    8344
    8345    8346    8345    8347    8346    8347    8348    8349
    8348    8350    8349    8350    8351    8352    8351    8353
    8352    8353    8354    8355    8354    8356    8355    8356
    8357    8358    8357    8359    8358    8359    8360    8361
    8360    8362    8361    8362    8363    8364    8363    8365
    8364    8365    8366    8367    8366    8368    8367    8368
    8369    8370    8369    8371    8370    8371    8372    8373
    8372    8374    8373    8374    8375    8376    8375    8377
    8376    8377    8378    8379    8378    8380    8379    8380
    8381    8382    8381    8383    8382    8383    8384    8385
    8384    8386    8385    8386    8387    8388    8387    8389
    8388    8389    8390    8391    8390    8392    8391    8392
    8393    8394    8393    8395    8394    8395    8396    8397
    8396    8398    8397    8398    8399    8400    8399    8401
    8400    8401    8402    8403    8402    8404    8403    8404
    8405    8406    8405    8407    8406    8407    8408    8409
    8408    8410    8409    8410    8411    8412    8411    8413
    8412    8413    8414    8415    8414    8416    8415    8416
    8417    8418    8417    8419    8418    8419    8420    8421
    8420    8422    8421    8422    8423    8424    8423    8425
    8424    8425    8426    8427    8426    8428    8427    8428
    8429    8430    8429    8431    8430    8431    8432    8433
    8432    8434    8433    8434    8435    8436    8435    8437
    8436    8437    8438    8439    8438    8440    8439    8440
    8441    8442    8441    8443    8442    8443    8444    8445
    8444    8446    8445    8446    8447    8448    8447    8449
    8448    8449    8450    8451    8450    8452    8451    8452
    8453    8454    8453    8455    8454    8455    8456    8457
    8456    8458    8457    8458    8459    8460    8459    8461
    8460    8461    8462    8463    8462    8464    8463    8464
    8465    8466    8465    8467    8466    8467    8468    8469
    8468    8470    8469    8470    8471    8472    8471    8473
    8472    8473    8474    8475    8474    8476    8475    8476
    8477    8478    8477    8479    8478    8479    8480    8481
    8480    8482    8481    8482    8483    8484    8483    8485
    8484    8485    8486    8487    8486    8488    8487    8488
    8489    8490    8489    8491    8490    8491    8492    8493
    8492    8494    8493    8494    8495    8496    8495    8497
    8496    8497    8498    8499    8498    8500    8499    8500
    8501    8502    8501    8503    8502    8503    8504    8505
    8504    8506    8505    8506    8507    8508    8507    8509
    8508    8509    8510    8511    8510    8512    8511    8512
    8513    8514    8513    8515    8514    8515    8516    8517
    8516    8518    8517    8518    8519    8520    8519    8521
    8520    8521    8522    8523    8522    8524    8523    8524
    8525    8526    8525    8527    8526    8527    8528    8529
    8528    8530    8529    8530    8531    8532    8531    8533
    8532    8533    8534    8535    8534    8536    8535    8536
    8537    8538    8537    8539    8538    8539    8540    8541
    8540    8542    8541    8542    8543    8544    8543    8545
    8544    8545    8546    8547    8546    8548    8547    8548
    8549    8550    8549    8551    8550    8551    8552    8553
    8552    8554    8553    8554    8555    8556    8555    8557
    8556    8557    8558    8559    8558    8560    8559    8560
    8561    8562    8561    8563    8562    8563    8564    8565
    8564    8566    8565    8566    8567    8568    8567    8569
    8568    8569    8570    8571    8570    8572    8571    8572
    8573    8574    8573    8575    8574    8575    8576    8577
    8576    8578    8577    8578    8579    8580    8579    8581
    8580    8581    8582    8583    8582    8584    8583    8584
    8585    8586    8585    8587    8586    8587    8588    8589
    8588    8590    8589    8590    8591    8592    8591    8593
    8592    8593    8594    8595    8594    8596    8595    8596
    8597    8598    8597    8599    8598    8599    8600    8601
    8600    8602    8601    8602    8603    8604    8603    8605
    8604    8605    8606    8607    8606    8608    8607    8608
    8609    8610    8609    8611    8610    8611    8612    8613
    8612    8614    8613    8614    8615    8616    8615    8617
    8616    8617    8618    8619    8618    8620    8619    8620
    8621    8622    8621    8623    8622    8623    8624    8625
    8624    8626    8625    8626    8627    8628    8627    8629
    8628    8629    8630    8631    8630    8632    8631    8632
    8633    8634    8633    8635    8634    8635    8636    8637
    8636    8638    8637    8638    8639    8640    8639    8641
    8640    8641    8642    8643    8642    8644    8643    8644
    8645    8646    8645    8647    8646    8647    8648    8649
    8648    8650    8649    8650    8651    8652    8651    8653
    8652    8653    8654    8655    8654    8656    8655    8656
    8657    8658    8657    8659    8658    8659    8660    8661
    8660    8662    8661    8662    8663    8664    8663    8665
    8664    8665    8666    8667    8666    8668    8667    8668
    8669    8670    8669    8671    8670    8671    8672    8673
    8672    8674    8673    8674    8675    8676    8675    8677
    8676    8677    8678    8679    8678    8680    8679    8680
    8681    8682    8681    8683    8682    8683    8684    8685
    8684    8686    8685    8686    8687    8688    8687    8689
    8688    8689    8690    8691    8690    8692    8691    8692
    8693    8694    8693    8695    8694    8695    8696    8697
    8696    8698    8697    8698    8699    8700    8699    8701
    8700    8701    8702    8703    8702    8704    8703    8704
    8705    8706    8705    8707    8706    8707    8708    8709
    8708    8710    8709    8710    8711    8712    8711    8713
    8712    8713    8714    8715    8714    8716    8715    8716
    8717    8718    8717    8719    8718    8719    8720    8721
    8720    8722    8721    8722    8723    8724    8723    8725
    8724    8725    8726    8727    8726    8728    8727    8728
    8729    8730    8729    8731    8730    8731    8732    8733
    8732    8734    8733    8734    8735    8736    8735    8737
    8736    8737    8738    8739    8738    8740    8739    8740
    8741    8742    8741    8743    8742    8743    8744    8745
    8744    8746    8745    8746    8747    8748    8747    8749
    8748    8749    8750    8751    8750    8752    8751    8752
    8753    8754    8753    8755    8754    8755    8756    8757
    8756    8758    8757    8758    8759    8760    8759    8761
    8760    8761    8762    8763    8762    8764    8763    8764
    8765    8766    8765    8767    8766    8767    8768    8769
    8768    8770    8769    8770    8771    8772    8771    8773
    8772    8773    8774    8775    8774    8776    8775    8776
    8777    8778    8777    8779    8778    8779    8780    8781
    8780    8782    8781    8782    8783    8784    8783    8785
    8784    8785    8786    8787    8786    8788    8787    8788
    8789    8790    8789    8791    8790    8791    8792    8793
    8792    8794    8793    8794    8795    8796    8795    8797
    8796    8797    8798    8799    8798    8800    8799    8800
    8801    8802    8801    8803    8802    8803    8804    8805
    8804    8806    8805    8806    8807    8808    8807    8809
    8808    8809    8810    8811    8810    8812    8811    8812
    8813    8814    8813    8815    8814    8815    8816    8817
    8816    8818    8817    8818    8819    8820    8819    8821
    8820    8821    8822    8823    8822    8824    8823    8824
    8825    8826    8825    8827    8826    8827    8828    8829
    8828    8830    8829    8830    8831    8832    8831    8833
    8832    8833    8834    8835    8834    8836    8835    8836
    8837    8838    8837    8839    8838    8839    8840    8841
    8840    8842    8841    8842    8843    8844    8843    8845
    8844    8845    8846    8847    8846    8848    8847    8848
    8849    8850    8849    8851    8850    8851    8852    8853
    8852    8854    8853    8854    8855    8856    8855    8857
    8856    8857    8858    8859    8858    8860    8859    8860
    8861    8862    8861    8863    8862    8863    8864    8865
    8864    8866    8865    8866    8867    8868    8867    8869
    8868    8869    8870    8871    8870    8872    8871    8872
    8873    8874    8873    8875    8874    8875    8876    8877
    8876    8878    8877    8878    8879    8880    8879    8881
    8880    8881    8882    8883    8882    8884    8883    8884
    8885    8886    8885    8887    8886    8887    8888    8889
    8888    8890    8889    8890    8891    8892    8891    8893
    8892    8893    8894    8895    8894    8896    8895    8896
    8897    8898    8897    8899    8898    8899    8900    8901
    8900    8902    8901    8902    8903    8904    8903    8905
    8904    8905    8906    8907    8906    8908    8907    8908
    8909    8910    8909    8911    8910    8911    8912    8913
    8912    8914    8913    8914    8915    8916    8915    8917
    8916    8917    8918    8919    8918    8920    8919    8920
    8921    8922    8921    8923    8922    8923    8924    8925
    8924    8926    8925    8926    8927    8928    8927    8929
    8928    8929    8930    8931    8930    8932    8931    8932
    8933    8934    8933    8935    8934    8935    8936    8937
    8936    8938    8937    8938    8939    8940    8939    8941
    8940    8941    8942    8943    8942    8944    8943    8944
    8945    8946    8945    8947    8946    8947    8948    8949
    8948    8950    8949    8950    8951    8952    8951    8953
    8952    8953    8954    8955    8954    8956    8955    8956
    8957    8958    8957    8959    8958    8959    8960    8961
    8960    8962    8961    8962    8963    8964    8963    8965
    8964    8965    8966    8967    8966    8968    8967    8968
    8969    8970    8969    8971    8970    8971    8972    8973
    8972    8974    8973    8974    8975    8976    8975    8977
    8976    8977    8978    8979    8978    8980    8979    8980
    8981    8982    8981    8983    8982    8983    8984    8985
    8984    8986    8985    8986    8987    8988    8987    8989
    8988    8989    8990    8991    8990    8992    8991    8992
    8993    8994    8993    8995    8994    8995    8996    8997
    8996    8998    8997    8998    8999    9000    8999    9001
    9000    9001    9002    9003    9002    9004    9003    9004
    9005    9006    9005    9007    9006    9007    9008    9009
    9008    9010    9009    9010    9011    9012    9011    9013
    9012    9013    9014    9015    9014    9016    9015    9016
    9017    9018    9017    9019    9018    9019    9020    9021
    9020    9022    9021    9022    9023    9024    9023    9025
    9024    9025    9026    9027    9026    9028    9027    9028
    9029    9030    9029    9031    9030    9031    9032    9033
    9032    9034    9033    9034    9035    9036    9035    9037
    9036    9037    9038    9039    9038    9040    9039    9040
    9041    9042    9041    9043    9042    9043    9044    9045
    9044    9046    9045    9046    9047    9048    9047    9049
    9048    9049    9050    9051    9050    9052    9051    9052
    9053    9054    9053    9055    9054    9055    9056    9057
    9056    9058    9057    9058    9059    9060    9059    9061
    9060    9061    9062    9063    9062    9064    9063    9064
    9065    9066    9065    9067    9066    9067    9068    9069
    9068    9070    9069    9070    9071    9072    9071    9073
    9072    9073    9074    9075    9074    9076    9075    9076
    9077    9078    9077    9079    9078    9079    9080    9081
    9080    9082    9081    9082    9083    9084    9083    9085
    9084    9085    9086    9087    9086    9088    9087    9088
    9089    9090    9089    9091    9090    9091    9092    9093
    9092    9094    9093    9094    9095    9096    9095    9097
    9096    9097    9098    9099    9098    9100    9099    9100
    9101    9102    9101    9103    9102    9103    9104    9105
    9104    9106    9105    9106    9107    9108    9107    9109
    9108    9109    9110    9111    9110    9112    9111    9112
    9113    9114    9113    9115    9114    9115    9116    9117
    9116    9118    9117    9118    9119    9120    9119    9121
    9120    9121    9122    9123    9122    9124    9123    9124
    9125    9126    9125    9127    9126    9127    9128    9129
    9128    9130    9129    9130    9131    9132    9131    9133
    9132    9133    9134    9135    9134    9136    9135    9136
    9137    9138    9137    9139    9138    9139    9140    9141
    9140    9142    9141    9142    9143    9144    9143    9145
    9144    9145    9146    9147    9146    9148    9147    9148
    9149    9150    9149    9151    9150    9151    9152    9153
    9152    9154    9153    9154    9155    9156    9155    9157
    9156    9157    9158    9159    9158    9160    9159    9160
    9161    9162    9161    9163    9162    9163    9164    9165
    9164    9166    9165    9166    9167    9168    9167    9169
    9168    9169    9170    9171    9170    9172    9171    9172
    9173    9174    9173    9175    9174    9175    9176    9177
    9176    9178    9177    9178    9179    9180    9179    9181
    9180    9181    9182    9183    9182    9184    9183    9184
    9185    9186    9185    9187    9186    9187    9188    9189
    9188    9190    9189    9190    9191    9192    9191    9193
    9192    9193    9194    9195    9194    9196    9195    9196
    9197    9198    9197    9199    9198    9199    9200    9201
    9200    9202    9201    9202    9203    9204    9203    9205
    9204    9205    9206    9207    9206    9208    9207    9208
    9209    9210    9209    9211    9210    9211    9212    9213
    9212    9214    9213    9214    9215    9216    9215    9217
    9216    9217    9218    9219    9218    9220    9219    9220
    9221    9222    9221    9223    9222    9223    9224    9225
    9224    9226    9225    9226    9227    9228    9227    9229
    9228    9229    9230    9231    9230    9232    9231    9232
    9233    9234    9233    9235    9234    9235    9236    9237
    9236    9238    9237    9238    9239    9240    9239    9241
    9240    9241    9242    9243    9242    9244    9243    9244
    9245    9246    9245    9247    9246    9247    9248    9249
    9248    9250    9249    9250    9251    9252    9251    9253
    9252    9253    9254    9255    9254    9256    9255    9256
    9257    9258    9257    9259    9258    9259    9260    9261
    9260    9262    9261    9262    9263    9264    9263    9265
    9264    9265    9266    9267    9266    9268    9267    9268
    9269    9270    9269    9271    9270    9271    9272    9273
    9272    9274    9273    9274    9275    9276    9275    9277
    9276    9277    9278    9279    9278    9280    9279    9280
    9281    9282    9281    9283    9282    9283    9284    9285
    9284    9286    9285    9286    9287    9288    9287    9289
    9288    9289    9290    9291    9290    9292    9291    9292
    9293    9294    9293    9295    9294    9295    9296    9297
    9296    9298    9297    9298    9299    9300    9299    9301
    9300    9301    9302    9303    9302    9304    9303    9304
    9305    9306    9305    9307    9306    9307    9308    9309
    9308    9310    9309    9310    9311    9312    9311    9313
    9312    9313    9314    9315    9314    9316    9315    9316
    9317    9318    9317    9319    9318    9319    9320    9321
    9320    9322    9321    9322    9323    9324    9323    9325
    9324    9325    9326    9327    9326    9328    9327    9328
    9329    9330    9329    9331    9330    9331    9332    9333
    9332    9334    9333    9334    9335    9336    9335    9337
    9336    9337    9338    9339    9338    9340    9339    9340
    9341    9342    9341    9343    9342    9343    9344    9345
    9344    9346    9345    9346    9347    9348    9347    9349
    9348    9349    9350    9351    9350    9352    9351    9352
    9353    9354    9353    9355    9354    9355    9356    9357
    9356    9358    9357    9358    9359    9360    9359    9361
    9360    9361    9362    9363    9362    9364    9363    9364
    9365    9366    9365    9367    9366    9367    9368    9369
    9368    9370    9369    9370    9371    9372    9371    9373
    9372    9373    9374    9375    9374    9376    9375    9376
    9377    9378    9377    9379    9378    9379    9380    9381
    9380    9382    9381    9382    9383    9384    9383    9385
    9384    9385    9386    9387    9386    9388    9387    9388
    9389    9390    9389    9391    9390    9391    9392    9393
    9392    9394    9393    9394    9395    9396    9395    9397
    9396    9397    9398    9399    9398    9400    9399    9400
    9401    9402    9401    9403    9402    9403    9404    9405
    9404    9406    9405    9406    9407    9408    9407    9409
    9408    9409    9410    9411    9410    9412    9411    9412
    9413    9414    9413    9415    9414    9415    9416    9417
    9416    9418    9417    9418    9419    9420    9419    9421
    9420    9421    9422    9423    9422    9424    9423    9424
    9425    9426    9425    9427    9426    9427    9428    9429
    9428    9430    9429    9430    9431    9432    9431    9433
    9432    9433    9434    9435    9434    9436    9435    9436
    9437    9438    9437    9439    9438    9439    9440    9441
    9440    9442    9441    9442    9443    9444    9443    9445
    9444    9445    9446    9447    9446    9448    9447    9448
    9449    9450    9449    9451    9450    9451    9452    9453
    9452    9454    9453    9454    9455    9456    9455    9457
    9456    9457    9458    9459    9458    9460    9459    9460
    9461    9462    9461    9463    9462    9463    9464    9465
    9464    9466    9465    9466    9467    9468    9467    9469
    9468    9469    9470    9471    9470    9472    9471    9472
    9473    9474    9473    9475    9474    9475    9476    9477
    9476    9478    9477    9478    9479    9480    9479    9481
    9480    9481    9482    9483    9482    9484    9483    9484
    9485    9486    9485    9487    9486    9487    9488    9489
    9488    9490    9489    9490    9491    9492    9491    9493
    9492    9493    9494    9495    9494    9496    9495    9496
    9497    9498    9497    9499    9498    9499    9500    9501
    9500    9502    9501    9502    9503    9504    9503    9505
    9504    9505    9506    9507    9506    9508    9507    9508
    9509    9510    9509    9511    9510    9511    9512    9513
    9512    9514    9513    9514    9515    9516    9515    9517
    9516    9517    9518    9519    9518    9520    9519    9520
    9521    9522    9521    9523    9522    9523    9524    9525
    9524    9526    9525    9526    9527    9528    9527    9529
    9528    9529    9530    9531    9530    9532    9531    9532
    9533    9534    9533    9535    9534    9535    9536    9537
    9536    9538    9537    9538    9539    9540    9539    9541
    9540    9541    9542    9543    9542    9544    9543    9544
    9545    9546    9545    9547    9546    9547    9548    9549
    9548    9550    9549    9550    9551    9552    9551    9553
    9552    9553    9554    9555    9554    9556    9555    9556
    9557    9558    9557    9559    9558    9559    9560    9561
    9560    9562    9561    9562    9563    9564    9563    9565
    9564    9565    9566    9567    9566    9568    9567    9568
    9569    9570    9569    9571    9570    9571    9572    9573
    9572    9574    9573    9574    9575    9576    9575    9577
    9576    9577    9578    9579    9578    9580    9579    9580
    9581    9582    9581    9583    9582    9583    9584    9585
    9584    9586    9585    9586    9587    9588    9587    9589
    9588    9589    9590    9591    9590    9592    9591    9592
    9593    9594    9593    9595    9594    9595    9596    9597
    9596    9598    9597    9598    9599    9600    9599    9601
    9600    9601    9602    9603    9602    9604    9603    9604
    9605    9606    9605    9607    9606    9607    9608    9609
    9608    9610    9609    9610    9611    9612    9611    9613
    9612    9613    9614    9615    9614    9616    9615    9616
    9617    9618    9617    9619    9618    9619    9620    9621
    9620    9622    9621    9622    9623    9624    9623    9625
    9624    9625    9626    9627    9626    9628    9627    9628
    9629    9630    9629    9631    9630    9631    9632    9633
    9632    9634    9633    9634    9635    9636    9635    9637
    9636    9637    9638    9639    9638    9640    9639    9640
    9641    9642    9641    9643    9642    9643    9644    9645
    9644    9646    9645    9646    9647    9648    9647    9649
    9648    9649    9650    9651    9650    9652    9651    9652
    9653    9654    9653    9655    9654    9655    9656    9657
    9656    9658    9657    9658    9659    9660    9659    9661
    9660    9661    9662    9663    9662    9664    9663    9664
    9665    9666    9665    9667    9666    9667    9668    9669
    9668    9670    9669    9670    9671    9672    9671    9673
    9672    9673    9674    9675    9674    9676    9675    9676
    9677    9678    9677    9679    9678    9679    9680    9681
    9680    9682    9681    9682    9683    9684    9683    9685
    9684    9685    9686    9687    9686    9688    9687    9688
    9689    9690    9689    9691    9690    9691    9692    9693
    9692    9694    9693    9694    9695    9696    9695    9697
    9696    9697    9698    9699    9698    9700    9699    9700
    9701    9702    9701    9703    9702    9703    9704    9705
    9704    9706    9705    9706    9707    9708    9707    9709
    9708    9709    9710    9711    9710    9712    9711    9712
    9713    9714    9713    9715    9714    9715    9716    9717
    9716    9718    9717    9718    9719    9720    9719    9721
    9720    9721    9722    9723    9722    9724    9723    9724
    9725    9726    9725    9727    9726    9727    9728    9729
    9728    9730    9729    9730    9731    9732    9731    9733
    9732    9733    9734    9735    9734    9736    9735    9736
    9737    9738    9737    9739    9738    9739    9740    9741
    9740    9742    9741    9742    9743    9744    9743    9745
    9744    9745    9746    9747    9746    9748    9747    9748
    9749    9750    9749    9751    9750    9751    9752    9753
    9752    9754    9753    9754    9755    9756    9755    9757
    9756    9757    9758    9759    9758    9760    9759    9760
    9761    9762    9761    9763    9762    9763    9764    9765
    9764    9766    9765    9766    9767    9768    9767    9769
    9768    9769    9770    9771    9770    9772    9771    9772
    9773    9774    9773    9775    9774    9775    9776    9777
    9776    9778    9777    9778    9779    9780    9779    9781
    9780    9781    9782    9783    9782    9784    9783    9784
    9785    9786    9785    9787    9786    9787    9788    9789
    9788    9790    9789    9790    9791    9792    9791    9793
    9792    9793    9794    9795    9794    9796    9795    9796
    9797    9798    9797    9799    9798    9799    9800    9801
    9800    9802    9801    9802    9803    9804    9803    9805
    9804    9805    9806    9807    9806    9808    9807    9808
    9809    9810    9809    9811    9810    9811    9812    9813
    9812    9814    9813    9814    9815    9816    9815    9817
    9816    9817    9818    9819    9818    9820    9819    9820
    9821    9822    9821    9823    9822    9823    9824    9825
    9824    9826    9825    9826    9827    9828    9827    9829
    9828    9829    9830    9831    9830    9832    9831    9832
    9833    9834    9833    9835    9834    9835    9836    9837
    9836    9838    9837    9838    9839    9840    9839    9841
    9840    9841    9842    9843    9842    9844    9843    9844
    9845    9846    9845    9847    9846    9847    9848    9849
    9848    9850    9849    9850    9851    9852    9851    9853
    9852    9853    9854    9855    9854    9856    9855    9856
    9857    9858    9857    9859    9858    9859    9860    9861
    9860    9862    9861    9862    9863    9864    9863    9865
    9864    9865    9866    9867    9866    9868    9867    9868
    9869    9870    9869    9871    9870    9871    9872    9873
    9872    9874    9873    9874    9875    9876    9875    9877
    9876    9877    9878    9879    9878    9880    9879    9880
    9881    9882    9881    9883    9882    9883    9884    9885
    9884    9886    9885    9886    9887    9888    9887    9889
    9888    9889    9890    9891    9890    9892    9891    9892
    9893    9894    9893    9895    9894    9895    9896    9897
    9896    9898    9897    9898    9899    9900    9899    9901
    9900    9901    9902    9903    9902    9904    9903    9904
    9905    9906    9905    9907    9906    9907    9908    9909
    9908    9910    9909    9910    9911    9912    9911    9913
    9912    9913    9914    9915    9914    9916    9915    9916
    9917    9918    9917    9919    9918    9919    9920    9921
    9920    9922    9921    9922    9923    9924    9923    9925
    9924    9925    9926    9927    9926    9928    9927    9928
    9929    9930    9929    9931    9930    9931    9932    9933
    9932    9934    9933    9934    9935    9936    9935    9937
    9936    9937    9938    9939    9938    9940    9939    9940
    9941    9942    9941    9943    9942    9943    9944    9945
    9944    9946    9945    9946    9947    9948    9947    9949
    9948    9949    9950    9951    9950    9952    9951    9952
    9953    9954    9953    9955    9954    9955    9956    9957
    9956    9958    9957    9958    9959    9960    9959    9961
    9960    9961    9962    9963    9962    9964    9963    9964
    9965    9966    9965    9967    9966    9967    9968    9969
    9968    9970    9969    9970    9971    9972    9971    9973
    9972    9973    9974    9975    9974    9976    9975    9976
    9977    9978    9977    9979    9978    9979    9980    9981
    9980    9982    9981    9982    9983    9984    9983    9985
    9984    9985    9986    9987    9986    9988    9987    9988
    9989    9990    9989    9991    9990    9991    9992    9993
    9992    9994    9993    9994    9995    9996    9995    9997
    9996    9997    9998    9999    9998   10000    9999   10000
   10001   10002   10001   10003   10002   10003   10004   10005
   10004   10006   10005   10006   10007   10008   10007   10009
   10008   10009   10010   10011   10010   10012   10011   10012
   10013   10014   10013   10015   10014   10015   10016   10017
   10016   10018   10017   10018   10019   10020   10019   10021
   10020   10021   10022   10023   10022   10024   10023   10024
   10025   10026   10025   10027   10026   10027   10028   10029
   10028   10030   10029   10030   10031   10032   10031   10033
   10032   10033   10034   10035   10034   10036   10035   10036
   10037   10038   10037   10039   10038   10039   10040   10041
   10040   10042   10041   10042   10043   10044   10043   10045
   10044   10045   10046   10047   10046   10048   10047   10048
   10049   10050   10049   10051   10050   10051   10052   10053
   10052   10054   10053   10054   10055   10056   10055   10057
   10056   10057   10058   10059   10058   10060   10059   10060
   10061   10062   10061   10063   10062   10063   10064   10065
   10064   10066   10065   10066   10067   10068   10067   10069
   10068   10069   10070   10071   10070   10072   10071   10072
   10073   10074   10073   10075   10074   10075   10076   10077
   10076   10078   10077   10078   10079   10080   10079   10081
   10080   10081   10082   10083   10082   10084   10083   10084
   10085   10086   10085   10087   10086   10087   10088   10089
   10088   10090   10089   10090   10091   10092   10091   10093
   10092   10093   10094   10095   10094   10096   10095   10096
   10097   10098   10097   10099   10098   10099   10100   10101
   10100   10102   10101   10102   10103   10104   10103   10105
   10104   10105   10106   10107   10106   10108   10107   10108
   10109   10110   10109   10111   10110   10111   10112   10113
   10112   10114   10113   10114   10115   10116   10115   10117
   10116   10117   10118   10119   10118   10120   10119   10120
   10121   10122   10121   10123   10122   10123   10124   10125
   10124   10126   10125   10126   10127   10128   10127   10129
   10128   10129   10130   10131   10130   10132   10131   10132
   10133   10134   10133   10135   10134   10135   10136   10137
   10136   10138   10137   10138   10139   10140   10139   10141
   10140   10141   10142   10143   10142   10144   10143   10144
   10145   10146   10145   10147   10146   10147   10148   10149
   10148   10150   10149   10150   10151   10152   10151   10153
   10152   10153   10154   10155   10154   10156   10155   10156
   10157   10158   10157   10159   10158   10159   10160   10161
   10160   10162   10161   10162   10163   10164   10163   10165
   10164   10165   10166   10167   10166   10168   10167   10168
   10169   10170   10169   10171   10170   10171   10172   10173
   10172   10174   10173   10174   10175   10176   10175   10177
   10176   10177   10178   10179   10178   10180   10179   10180
   10181   10182   10181   10183   10182   10183   10184   10185
   10184   10186   10185   10186   10187   10188   10187   10189
   10188   10189   10190   10191   10190   10192   10191   10192
   10193   10194   10193   10195   10194   10195   10196   10197
   10196   10198   10197   10198   10199   10200   10199   10201
   10200   10201   10202   10203   10202   10204   10203   10204
   10205   10206   10205   10207   10206   10207   10208   10209
   10208   10210   10209   10210   10211   10212   10211   10213
   10212   10213   10214   10215   10214   10216   10215   10216
   10217   10218   10217   10219   10218   10219   10220   10221
   10220   10222   10221   10222   10223   10224   10223   10225
   10224   10225   10226   10227   10226   10228   10227   10228
   10229   10230   10229   10231   10230   10231   10232   10233
   10232   10234   10233   10234   10235   10236   10235   10237
   10236   10237   10238   10239   10238   10240   10239   10240
   10241   10242   10241   10243   10242   10243   10244   10245
   10244   10246   10245   10246   10247   10248   10247   10249
   10248   10249   10250   10251   10250   10252   10251   10252
   10253   10254   10253   10255   10254   10255   10256   10257
   10256   10258   10257   10258   10259   10260   10259   10261
   10260   10261   10262   10263   10262   10264   10263   10264
   10265   10266   10265   10267   10266   10267   10268   10269
   10268   10270   10269   10270   10271   10272   10271   10273
   10272   10273   10274   10275   10274   10276   10275   10276
   10277   10278   10277   10279   10278   10279   10280   10281
   10280   10282   10281   10282   10283   10284   10283   10285
   10284   10285   10286   10287   10286   10288   10287   10288
   10289   10290   10289   10291   10290   10291   10292   10293
   10292   10294   10293   10294   10295   10296   10295   10297
   10296   10297   10298   10299   10298   10300   10299   10300
   10301   10302   10301   10303   10302   10303   10304   10305
   10304   10306   10305   10306   10307   10308   10307   10309
   10308   10309   10310   10311   10310   10312   10311   10312
   10313   10314   10313   10315   10314   10315   10316   10317
   10316   10318   10317   10318   10319   10320   10319   10321
   10320   10321   10322   10323   10322   10324   10323   10324
   10325   10326   10325   10327   10326   10327   10328   10329
   10328   10330   10329   10330   10331   10332   10331   10333
   10332   10333   10334   10335   10334   10336   10335   10336
   10337   10338   10337   10339   10338   10339   10340   10341
   10340   10342   10341   10342   10343   10344   10343   10345
   10344   10345   10346   10347   10346   10348   10347   10348
   10349   10350   10349   10351   10350   10351   10352   10353
   10352   10354   10353   10354   10355   10356   10355   10357
   10356   10357   10358   10359   10358   10360   10359   10360
   10361   10362   10361   10363   10362   10363   10364   10365
   10364   10366   10365   10366   10367   10368   10367   10369
   10368   10369   10370   10371   10370   10372   10371   10372
   10373   10374   10373   10375   10374   10375   10376   10377
   10376   10378   10377   10378   10379   10380   10379   10381
   10380   10381   10382   10383   10382   10384   10383   10384
   10385   10386   10385   10387   10386   10387   10388   10389
   10388   10390   10389   10390   10391   10392   10391   10393
   10392   10393   10394   10395   10394   10396   10395   10396
   10397   10398   10397   10399   10398   10399   10400   10401
   10400   10402   10401   10402   10403   10404   10403   10405
   10404   10405   10406   10407   10406   10408   10407   10408
   10409   10410   10409   10411   10410   10411   10412   10413
   10412   10414   10413   10414   10415   10416   10415   10417
   10416   10417   10418   10419   10418   10420   10419   10420
   10421   10422   10421   10423   10422   10423   10424   10425
   10424   10426   10425   10426   10427   10428   10427   10429
   10428   10429   10430   10431   10430   10432   10431   10432
   10433   10434   10433   10435   10434   10435   10436   10437
   10436   10438   10437   10438   10439   10440   10439   10441
   10440   10441   10442   10443   10442   10444   10443   10444
   10445   10446   10445   10447   10446   10447   10448   10449
   10448   10450   10449   10450   10451   10452   10451   10453
   10452   10453   10454   10455   10454   10456   10455   10456
   10457   10458   10457   10459   10458   10459   10460   10461
   10460   10462   10461   10462   10463   10464   10463   10465
   10464   10465   10466   10467   10466   10468   10467   10468
   10469   10470   10469   10471   10470   10471   10472   10473
   10472   10474   10473   10474   10475   10476   10475   10477
   10476   10477   10478   10479   10478   10480   10479   10480
   10481   10482   10481   10483   10482   10483   10484   10485
   10484   10486   10485   10486   10487   10488   10487   10489
   10488   10489   10490   10491   10490   10492   10491   10492
   10493   10494   10493   10495   10494   10495   10496   10497
   10496   10498   10497   10498   10499   10500   10499   10501
   10500   10501   10502   10503   10502   10504   10503   10504
   10505   10506   10505   10507   10506   10507   10508   10509
   10508   10510   10509   10510   10511   10512   10511   10513
   10512   10513   10514   10515   10514   10516   10515   10516
   10517   10518   10517   10519   10518   10519   10520   10521
   10520   10522   10521   10522   10523   10524   10523   10525
   10524   10525   10526   10527   10526   10528   10527   10528
   10529   10530   10529   10531   10530   10531   10532   10533
   10532   10534   10533   10534   10535   10536   10535   10537
   10536   10537   10538   10539   10538   10540   10539   10540
   10541   10542   10541   10543   10542   10543   10544   10545
   10544   10546   10545   10546   10547   10548   10547   10549
   10548   10549   10550   10551   10550   10552   10551   10552
   10553   10554   10553   10555   10554   10555   10556   10557
   10556   10558   10557   10558   10559   10560   10559   10561
   10560   10561   10562   10563   10562   10564   10563   10564
   10565   10566   10565   10567   10566   10567   10568   10569
   10568   10570   10569   10570   10571   10572   10571   10573
   10572   10573   10574   10575   10574   10576   10575   10576
   10577   10578   10577   10579   10578   10579   10580   10581
   10580   10582   10581   10582   10583   10584   10583   10585
   10584   10585   10586   10587   10586   10588   10587   10588
   10589   10590   10589   10591   10590   10591   10592   10593
   10592   10594   10593   10594   10595   10596   10595   10597
   10596   10597   10598   10599   10598   10600   10599   10600
   10601   10602   10601   10603   10602   10603   10604   10605
   10604   10606   10605   10606   10607   10608   10607   10609
   10608   10609   10610   10611   10610   10612   10611   10612
   10613   10614   10613   10615   10614   10615   10616   10617
   10616   10618   10617   10618   10619   10620   10619   10621
   10620   10621   10622   10623   10622   10624   10623   10624
   10625   10626   10625   10627   10626   10627   10628   10629
   10628   10630   10629   10630   10631   10632   10631   10633
   10632   10633   10634   10635   10634   10636   10635   10636
   10637   10638   10637   10639   10638   10639   10640   10641
   10640   10642   10641   10642   10643   10644   10643   10645
   10644   10645   10646   10647   10646   10648   10647   10648
   10649   10650   10649   10651   10650   10651   10652   10653
   10652   10654   10653   10654   10655   10656   10655   10657
   10656   10657   10658   10659   10658   10660   10659   10660
   10661   10662   10661   10663   10662   10663   10664   10665
   10664   10666   10665   10666   10667   10668   10667   10669
   10668   10669   10670   10671   10670   10672   10671   10672
   10673   10674   10673   10675   10674   10675   10676   10677
   10676   10678   10677   10678   10679   10680   10679   10681
   10680   10681   10682   10683   10682   10684   10683   10684
   10685   10686   10685   10687   10686   10687   10688   10689
   10688   10690   10689   10690   10691   10692   10691   10693
   10692   10693   10694   10695   10694   10696   10695   10696
   10697   10698   10697   10699   10698   10699   10700   10701
   10700   10702   10701   10702   10703   10704   10703   10705
   10704   10705   10706   10707   10706   10708   10707   10708
   10709   10710   10709   10711   10710   10711   10712   10713
   10712   10714   10713   10714   10715   10716   10715   10717
   10716   10717   10718   10719   10718   10720   10719   10720
   10721   10722   10721   10723   10722   10723   10724   10725
   10724   10726   10725   10726   10727   10728   10727   10729
   10728   10729   10730   10731   10730   10732   10731   10732
   10733   10734   10733   10735   10734   10735   10736   10737
   10736   10738   10737   10738   10739   10740   10739   10741
   10740   10741   10742   10743   10742   10744   10743   10744
   10745   10746   10745   10747   10746   10747   10748   10749
   10748   10750   10749   10750   10751   10752   10751   10753
   10752   10753   10754   10755   10754   10756   10755   10756
   10757   10758   10757   10759   10758   10759   10760   10761
   10760   10762   10761   10762   10763   10764   10763   10765
   10764   10765   10766   10767   10766   10768   10767   10768
   10769   10770   10769   10771   10770   10771   10772   10773
   10772   10774   10773   10774   10775   10776   10775   10777
   10776   10777   10778   10779   10778   10780   10779   10780
   10781   10782   10781   10783   10782   10783   10784   10785
   10784   10786   10785   10786   10787   10788   10787   10789
   10788   10789   10790   10791   10790   10792   10791   10792
   10793   10794   10793   10795   10794   10795   10796   10797
   10796   10798   10797   10798   10799   10800   10799   10801
   10800   10801   10802   10803   10802   10804   10803   10804
   10805   10806   10805   10807   10806   10807   10808   10809
   10808   10810   10809   10810   10811   10812   10811   10813
   10812   10813   10814   10815   10814   10816   10815   10816
   10817   10818   10817   10819   10818   10819   10820   10821
   10820   10822   10821   10822   10823   10824   10823   10825
   10824   10825   10826   10827   10826   10828   10827   10828
   10829   10830   10829   10831   10830   10831   10832   10833
   10832   10834   10833   10834   10835   10836   10835   10837
   10836   10837   10838   10839   10838   10840   10839   10840
   10841   10842   10841   10843   10842   10843   10844   10845
   10844   10846   10845   10846   10847   10848   10847   10849
   10848   10849   10850   10851   10850   10852   10851   10852
   10853   10854   10853   10855   10854   10855   10856   10857
   10856   10858   10857   10858   10859   10860   10859   10861
   10860   10861   10862   10863   10862   10864   10863   10864
   10865   10866   10865   10867   10866   10867   10868   10869
   10868   10870   10869   10870   10871   10872   10871   10873
   10872   10873   10874   10875   10874   10876   10875   10876
   10877   10878   10877   10879   10878   10879   10880   10881
   10880   10882   10881   10882   10883   10884   10883   10885
   10884   10885   10886   10887   10886   10888   10887   10888
   10889   10890   10889   10891   10890   10891   10892   10893
   10892   10894   10893   10894   10895   10896   10895   10897
   10896   10897   10898   10899   10898   10900   10899   10900
   10901   10902   10901   10903   10902   10903   10904   10905
   10904   10906   10905   10906   10907   10908   10907   10909
   10908   10909   10910   10911   10910   10912   10911   10912
   10913   10914   10913   10915   10914   10915   10916   10917
   10916   10918   10917   10918   10919   10920   10919   10921
   10920   10921   10922   10923   10922   10924   10923   10924
   10925   10926   10925   10927   10926   10927   10928   10929
   10928   10930   10929   10930   10931   10932   10931   10933
   10932   10933   10934   10935   10934   10936   10935   10936
   10937   10938   10937   10939   10938   10939   10940   10941
   10940   10942   10941   10942   10943   10944   10943   10945
   10944   10945   10946   10947   10946   10948   10947   10948
   10949   10950   10949   10951   10950   10951   10952   10953
   10952   10954   10953   10954   10955   10956   10955   10957
   10956   10957   10958   10959   10958   10960   10959   10960
   10961   10962   10961   10963   10962   10963   10964   10965
   10964   10966   10965   10966   10967   10968   10967   10969
   10968   10969   10970   10971   10970   10972   10971   10972
   10973   10974   10973   10975   10974   10975   10976   10977
   10976   10978   10977   10978   10979   10980   10979   10981
   10980   10981   10982   10983   10982   10984   10983   10984
   10985   10986   10985   10987   10986   10987   10988   10989
   10988   10990   10989   10990   10991   10992   10991   10993
   10992   10993   10994   10995   10994   10996   10995   10996
   10997   10998   10997   10999   10998   10999   11000   11001
   11000   11002   11001   11002   11003   11004   11003   11005
   11004   11005   11006   11007   11006   11008   11007   11008
   11009   11010   11009   11011   11010   11011   11012   11013
   11012   11014   11013   11014   11015   11016   11015   11017
   11016   11017   11018   11019   11018   11020   11019   11020
   11021   11022   11021   11023   11022   11023   11024   11025
   11024   11026   11025   11026   11027   11028   11027   11029
   11028   11029   11030   11031   11030   11032   11031   11032
   11033   11034   11033   11035   11034   11035   11036   11037
   11036   11038   11037   11038   11039   11040   11039   11041
   11040   11041   11042   11043   11042   11044   11043   11044
   11045   11046   11045   11047   11046   11047   11048   11049
   11048   11050   11049   11050   11051   11052   11051   11053
   11052   11053   11054   11055   11054   11056   11055   11056
   11057   11058   11057   11059   11058   11059   11060   11061
   11060   11062   11061   11062   11063   11064   11063   11065
   11064   11065   11066   11067   11066   11068   11067   11068
   11069   11070   11069   11071   11070   11071   11072   11073
   11072   11074   11073   11074   11075   11076   11075   11077
   11076   11077   11078   11079   11078   11080   11079   11080
   11081   11082   11081   11083   11082   11083   11084   11085
   11084   11086   11085   11086   11087   11088   11087   11089
   11088   11089   11090   11091   11090   11092   11091   11092
   11093   11094   11093   11095   11094   11095   11096   11097
   11096   11098   11097   11098   11099   11100   11099   11101
   11100   11101   11102   11103   11102   11104   11103   11104
   11105   11106   11105   11107   11106   11107   11108   11109
   11108   11110   11109   11110   11111   11112   11111   11113
   11112   11113   11114   11115   11114   11116   11115   11116
   11117   11118   11117   11119   11118   11119   11120   11121
   11120   11122   11121   11122   11123   11124   11123   11125
   11124   11125   11126   11127   11126   11128   11127   11128
   11129   11130   11129   11131   11130   11131   11132   11133
   11132   11134   11133   11134   11135   11136   11135   11137
   11136   11137   11138   11139   11138   11140   11139   11140
   11141   11142   11141   11143   11142   11143   11144   11145
   11144   11146   11145   11146   11147   11148   11147   11149
   11148   11149   11150   11151   11150   11152   11151   11152
   11153   11154   11153   11155   11154   11155   11156   11157
   11156   11158   11157   11158   11159   11160   11159   11161
   11160   11161   11162   11163   11162   11164   11163   11164
   11165   11166   11165   11167   11166   11167   11168   11169
   11168   11170   11169   11170   11171   11172   11171   11173
   11172   11173   11174   11175   11174   11176   11175   11176
   11177   11178   11177   11179   11178   11179   11180   11181
   11180   11182   11181   11182   11183   11184   11183   11185
   11184   11185   11186   11187   11186   11188   11187   11188
   11189   11190   11189   11191   11190   11191   11192   11193
   11192   11194   11193   11194   11195   11196   11195   11197
   11196   11197   11198   11199   11198   11200   11199   11200
   11201   11202   11201   11203   11202   11203   11204   11205
   11204   11206   11205   11206   11207   11208   11207   11209
   11208   11209   11210   11211   11210   11212   11211   11212
   11213   11214   11213   11215   11214   11215   11216   11217
   11216   11218   11217   11218   11219   11220   11219   11221
   11220   11221   11222   11223   11222   11224   11223   11224
   11225   11226   11225   11227   11226   11227   11228   11229
   11228   11230   11229   11230   11231   11232   11231   11233
   11232   11233   11234   11235   11234   11236   11235   11236
   11237   11238   11237   11239   11238   11239   11240   11241
   11240   11242   11241   11242   11243   11244   11243   11245
   11244   11245   11246   11247   11246   11248   11247   11248
   11249   11250   11249   11251   11250   11251   11252   11253
   11252   11254   11253   11254   11255   11256   11255   11257
   11256   11257   11258   11259   11258   11260   11259   11260
   11261   11262   11261   11263   11262   11263   11264   11265
   11264   11266   11265   11266   11267   11268   11267   11269
   11268   11269   11270   11271   11270   11272   11271   11272
   11273   11274   11273   11275   11274   11275   11276   11277
   11276   11278   11277   11278   11279   11280   11279   11281
   11280   11281   11282   11283   11282   11284   11283   11284
   11285   11286   11285   11287   11286   11287   11288   11289
   11288   11290   11289   11290   11291   11292   11291   11293
   11292   11293   11294   11295   11294   11296   11295   11296
   11297   11298   11297   11299   11298   11299   11300   11301
   11300   11302   11301   11302   11303   11304   11303   11305
   11304   11305   11306   11307   11306   11308   11307   11308
   11309   11310   11309   11311   11310   11311   11312   11313
   11312   11314   11313   11314   11315   11316   11315   11317
   11316   11317   11318   11319   11318   11320   11319   11320
   11321   11322   11321   11323   11322   11323   11324   11325
   11324   11326   11325   11326   11327   11328   11327   11329
   11328   11329   11330   11331   11330   11332   11331   11332
   11333   11334   11333   11335   11334   11335   11336   11337
   11336   11338   11337   11338   11339   11340   11339   11341
   11340   11341   11342   11343   11342   11344   11343   11344
   11345   11346   11345   11347   11346   11347   11348   11349
   11348   11350   11349   11350   11351   11352   11351   11353
   11352   11353   11354   11355   11354   11356   11355   11356
   11357   11358   11357   11359   11358   11359   11360   11361
   11360   11362   11361   11362   11363   11364   11363   11365
   11364   11365   11366   11367   11366   11368   11367   11368
   11369   11370   11369   11371   11370   11371   11372   11373
   11372   11374   11373   11374   11375   11376   11375   11377
   11376   11377   11378   11379   11378   11380   11379   11380
   11381   11382   11381   11383   11382   11383   11384   11385
   11384   11386   11385   11386   11387   11388   11387   11389
   11388   11389   11390   11391   11390   11392   11391   11392
   11393   11394   11393   11395   11394   11395   11396   11397
   11396   11398   11397   11398   11399   11400   11399   11401
   11400   11401   11402   11403   11402   11404   11403   11404
   11405   11406   11405   11407   11406   11407   11408   11409
   11408   11410   11409   11410   11411   11412   11411   11413
   11412   11413   11414   11415   11414   11416   11415   11416
   11417   11418   11417   11419   11418   11419   11420   11421
   11420   11422   11421   11422   11423   11424   11423   11425
   11424   11425   11426   11427   11426   11428   11427   11428
   11429   11430   11429   11431   11430   11431   11432   11433
   11432   11434   11433   11434   11435   11436   11435   11437
   11436   11437   11438   11439   11438   11440   11439   11440
   11441   11442   11441   11443   11442   11443   11444   11445
   11444   11446   11445   11446   11447   11448   11447   11449
   11448   11449   11450   11451   11450   11452   11451   11452
   11453   11454   11453   11455   11454   11455   11456   11457
   11456   11458   11457   11458   11459   11460   11459   11461
   11460   11461   11462   11463   11462   11464   11463   11464
   11465   11466   11465   11467   11466   11467   11468   11469
   11468   11470   11469   11470   11471   11472   11471   11473
   11472   11473   11474   11475   11474   11476   11475   11476
   11477   11478   11477   11479   11478   11479   11480   11481
   11480   11482   11481   11482   11483   11484   11483   11485
   11484   11485   11486   11487   11486   11488   11487   11488
   11489   11490   11489   11491   11490   11491   11492   11493
   11492   11494   11493   11494   11495   11496   11495   11497
   11496   11497   11498   11499   11498   11500   11499   11500
   11501   11502   11501   11503   11502   11503   11504   11505
   11504   11506   11505   11506   11507   11508   11507   11509
   11508   11509   11510   11511   11510   11512   11511   11512
   11513   11514   11513   11515   11514   11515   11516   11517
   11516   11518   11517   11518   11519   11520   11519   11521
   11520   11521   11522   11523   11522   11524   11523   11524
   11525   11526   11525   11527   11526   11527   11528   11529
   11528   11530   11529   11530   11531   11532   11531   11533
   11532   11533   11534   11535   11534   11536   11535   11536
   11537   11538   11537   11539   11538   11539   11540   11541
   11540   11542   11541   11542   11543   11544   11543   11545
   11544   11545   11546   11547   11546   11548   11547   11548
   11549   11550   11549   11551   11550   11551   11552   11553
   11552   11554   11553   11554   11555   11556   11555   11557
   11556   11557   11558   11559   11558   11560   11559   11560
   11561   11562   11561   11563   11562   11563   11564   11565
   11564   11566   11565   11566   11567   11568   11567   11569
   11568   11569   11570   11571   11570   11572   11571   11572
   11573   11574   11573   11575   11574   11575   11576   11577
   11576   11578   11577   11578   11579   11580   11579   11581
   11580   11581   11582   11583   11582   11584   11583   11584
   11585   11586   11585   11587   11586   11587   11588   11589
   11588   11590   11589   11590   11591   11592   11591   11593
   11592   11593   11594   11595   11594   11596   11595   11596
   11597   11598   11597   11599   11598   11599   11600   11601
   11600   11602   11601   11602   11603   11604   11603   11605
   11604   11605   11606   11607   11606   11608   11607   11608
   11609   11610   11609   11611   11610   11611   11612   11613
   11612   11614   11613   11614   11615   11616   11615   11617
   11616   11617   11618   11619   11618   11620   11619   11620
   11621   11622   11621   11623   11622   11623   11624   11625
   11624   11626   11625   11626   11627   11628   11627   11629
   11628   11629   11630   11631   11630   11632   11631   11632
   11633   11634   11633   11635   11634   11635   11636   11637
   11636   11638   11637   11638   11639   11640   11639   11641
   11640   11641   11642   11643   11642   11644   11643   11644
   11645   11646   11645   11647   11646   11647   11648   11649
   11648   11650   11649   11650   11651   11652   11651   11653
   11652   11653   11654   11655   11654   11656   11655   11656
   11657   11658   11657   11659   11658   11659   11660   11661
   11660   11662   11661   11662   11663   11664   11663   11665
   11664   11665   11666   11667   11666   11668   11667   11668
   11669   11670   11669   11671   11670   11671   11672   11673
   11672   11674   11673   11674   11675   11676   11675   11677
   11676   11677   11678   11679   11678   11680   11679   11680
   11681   11682   11681   11683   11682   11683   11684   11685
   11684   11686   11685   11686   11687   11688   11687   11689
   11688   11689   11690   11691   11690   11692   11691   11692
   11693   11694   11693   11695   11694   11695   11696   11697
   11696   11698   11697   11698   11699   11700   11699   11701
   11700   11701   11702   11703   11702   11704   11703   11704
   11705   11706   11705   11707   11706   11707   11708   11709
   11708   11710   11709   11710   11711   11712   11711   11713
   11712   11713   11714   11715   11714   11716   11715   11716
   11717   11718   11717   11719   11718   11719   11720   11721
   11720   11722   11721   11722   11723   11724   11723   11725
   11724   11725   11726   11727   11726   11728   11727   11728
   11729   11730   11729   11731   11730   11731   11732   11733
   11732   11734   11733   11734   11735   11736   11735   11737
   11736   11737   11738   11739   11738   11740   11739   11740
   11741   11742   11741   11743   11742   11743   11744   11745
   11744   11746   11745   11746   11747   11748   11747   11749
   11748   11749   11750   11751   11750   11752   11751   11752
   11753   11754   11753   11755   11754   11755   11756   11757
   11756   11758   11757   11758   11759   11760   11759   11761
   11760   11761   11762   11763   11762   11764   11763   11764
   11765   11766   11765   11767   11766   11767   11768   11769
   11768   11770   11769   11770   11771   11772   11771   11773
   11772   11773   11774   11775   11774   11776   11775   11776
   11777   11778   11777   11779   11778   11779   11780   11781
   11780   11782   11781   11782   11783   11784   11783   11785
   11784   11785   11786   11787   11786   11788   11787   11788
   11789   11790   11789   11791   11790   11791   11792   11793
   11792   11794   11793   11794   11795   11796   11795   11797
   11796   11797   11798   11799   11798   11800   11799   11800
   11801   11802   11801   11803   11802   11803   11804   11805
   11804   11806   11805   11806   11807   11808   11807   11809
   11808   11809   11810   11811   11810   11812   11811   11812
   11813   11814   11813   11815   11814   11815   11816   11817
   11816   11818   11817   11818   11819   11820   11819   11821
   11820   11821   11822   11823   11822   11824   11823   11824
   11825   11826   11825   11827   11826   11827   11828   11829
   11828   11830   11829   11830   11831   11832   11831   11833
   11832   11833   11834   11835   11834   11836   11835   11836
   11837   11838   11837   11839   11838   11839   11840   11841
   11840   11842   11841   11842   11843   11844   11843   11845
   11844   11845   11846   11847   11846   11848   11847   11848
   11849   11850   11849   11851   11850   11851   11852   11853
   11852   11854   11853   11854   11855   11856   11855   11857
   11856   11857   11858   11859   11858   11860   11859   11860
   11861   11862   11861   11863   11862   11863   11864   11865
   11864   11866   11865   11866   11867   11868   11867   11869
   11868   11869   11870   11871   11870   11872   11871   11872
   11873   11874   11873   11875   11874   11875   11876   11877
   11876   11878   11877   11878   11879   11880   11879   11881
   11880   11881   11882   11883   11882   11884   11883   11884
   11885   11886   11885   11887   11886   11887   11888   11889
   11888   11890   11889   11890   11891   11892   11891   11893
   11892   11893   11894   11895   11894   11896   11895   11896
   11897   11898   11897   11899   11898   11899   11900   11901
   11900   11902   11901   11902   11903   11904   11903   11905
   11904   11905   11906   11907   11906   11908   11907   11908
   11909   11910   11909   11911   11910   11911   11912   11913
   11912   11914   11913   11914   11915   11916   11915   11917
   11916   11917   11918   11919   11918   11920   11919   11920
   11921   11922   11921   11923   11922   11923   11924   11925
   11924   11926   11925   11926   11927   11928   11927   11929
   11928   11929   11930   11931   11930   11932   11931   11932
   11933   11934   11933   11935   11934   11935   11936   11937
   11936   11938   11937   11938   11939   11940   11939   11941
   11940   11941   11942   11943   11942   11944   11943   11944
   11945   11946   11945   11947   11946   11947   11948   11949
   11948   11950   11949   11950   11951   11952   11951   11953
   11952   11953   11954   11955   11954   11956   11955   11956
   11957   11958   11957   11959   11958   11959   11960   11961
   11960   11962   11961   11962   11963   11964   11963   11965
   11964   11965   11966   11967   11966   11968   11967   11968
   11969   11970   11969   11971   11970   11971   11972   11973
   11972   11974   11973   11974   11975   11976   11975   11977
   11976   11977   11978   11979   11978   11980   11979   11980
   11981   11982   11981   11983   11982   11983   11984   11985
   11984   11986   11985   11986   11987   11988   11987   11989
   11988   11989   11990   11991   11990   11992   11991   11992
   11993   11994   11993   11995   11994   11995   11996   11997
   11996   11998   11997   11998   11999   12000   11999   12001
   12000   12001   12002   12003   12002   12004   12003   12004
   12005   12006   12005   12007   12006   12007   12008   12009
   12008   12010   12009   12010   12011   12012   12011   12013
   12012   12013   12014   12015   12014   12016   12015   12016
   12017   12018   12017   12019   12018   12019   12020   12021
   12020   12022   12021   12022   12023   12024   12023   12025
   12024   12025   12026   12027   12026   12028   12027   12028
   12029   12030   12029   12031   12030   12031   12032   12033
   12032   12034   12033   12034   12035   12036   12035   12037
   12036   12037   12038   12039   12038   12040   12039   12040
   12041   12042   12041   12043   12042   12043   12044   12045
   12044   12046   12045   12046   12047   12048   12047   12049
   12048   12049   12050   12051   12050   12052   12051   12052
   12053   12054   12053   12055   12054   12055   12056   12057
   12056   12058   12057   12058   12059   12060   12059   12061
   12060   12061   12062   12063   12062   12064   12063   12064
   12065   12066   12065   12067   12066   12067   12068   12069
   12068   12070   12069   12070   12071   12072   12071   12073
   12072   12073   12074   12075   12074   12076   12075   12076
   12077   12078   12077   12079   12078   12079   12080   12081
   12080   12082   12081   12082   12083   12084   12083   12085
   12084   12085   12086   12087   12086   12088   12087   12088
   12089   12090   12089   12091   12090   12091   12092   12093
   12092   12094   12093   12094   12095   12096   12095   12097
   12096   12097   12098   12099   12098   12100   12099   12100
   12101   12102   12101   12103   12102   12103   12104   12105
   12104   12106   12105   12106   12107   12108   12107   12109
   12108   12109   12110   12111   12110   12112   12111   12112
   12113   12114   12113   12115   12114   12115   12116   12117
   12116   12118   12117   12118   12119   12120   12119   12121
   12120   12121   12122   12123   12122   12124   12123   12124
   12125   12126   12125   12127   12126   12127   12128   12129
   12128   12130   12129   12130   12131   12132   12131   12133
   12132   12133   12134   12135   12134   12136   12135   12136
   12137   12138   12137   12139   12138   12139   12140   12141
   12140   12142   12141   12142   12143   12144   12143   12145
   12144   12145   12146   12147   12146   12148   12147   12148
   12149   12150   12149   12151   12150   12151   12152   12153
   12152   12154   12153   12154   12155   12156   12155   12157
   12156   12157   12158   12159   12158   12160   12159   12160
   12161   12162   12161   12163   12162   12163   12164   12165
   12164   12166   12165   12166   12167   12168   12167   12169
   12168   12169   12170   12171   12170   12172   12171   12172
   12173   12174   12173   12175   12174   12175   12176   12177
   12176   12178   12177   12178   12179   12180   12179   12181
   12180   12181   12182   12183   12182   12184   12183   12184
   12185   12186   12185   12187   12186   12187   12188   12189
   12188   12190   12189   12190   12191   12192   12191   12193
   12192   12193   12194   12195   12194   12196   12195   12196
   12197   12198   12197   12199   12198   12199   12200   12201
   12200   12202   12201   12202   12203   12204   12203   12205
   12204   12205   12206   12207   12206   12208   12207   12208
   12209   12210   12209   12211   12210   12211   12212   12213
   12212   12214   12213   12214   12215   12216   12215   12217
   12216   12217   12218   12219   12218   12220   12219   12220
   12221   12222   12221   12223   12222   12223   12224   12225
   12224   12226   12225   12226   12227   12228   12227   12229
   12228   12229   12230   12231   12230   12232   12231   12232
   12233   12234   12233   12235   12234   12235   12236   12237
   12236   12238   12237   12238   12239   12240   12239   12241
   12240   12241   12242   12243   12242   12244   12243   12244
   12245   12246   12245   12247   12246   12247   12248   12249
   12248   12250   12249   12250   12251   12252   12251   12253
   12252   12253   12254   12255   12254   12256   12255   12256
   12257   12258   12257   12259   12258   12259   12260   12261
   12260   12262   12261   12262   12263   12264   12263   12265
   12264   12265   12266   12267   12266   12268   12267   12268
   12269   12270   12269   12271   12270   12271   12272   12273
   12272   12274   12273   12274   12275   12276   12275   12277
   12276   12277   12278   12279   12278   12280   12279   12280
   12281   12282   12281   12283   12282   12283   12284   12285
   12284   12286   12285   12286   12287   12288   12287   12289
   12288   12289   12290   12291   12290   12292   12291   12292
   12293   12294   12293   12295   12294   12295   12296   12297
   12296   12298   12297   12298   12299   12300   12299   12301
   12300   12301   12302   12303   12302   12304   12303   12304
   12305   12306   12305   12307   12306   12307   12308   12309
   12308   12310   12309   12310   12311   12312   12311   12313
   12312   12313   12314   12315   12314   12316   12315   12316
   12317   12318   12317   12319   12318   12319   12320   12321
   12320   12322   12321   12322   12323   12324   12323   12325
   12324   12325   12326   12327   12326   12328   12327   12328
   12329   12330   12329   12331   12330   12331   12332   12333
   12332   12334   12333   12334   12335   12336   12335   12337
   12336   12337   12338   12339   12338   12340   12339   12340
   12341   12342   12341   12343   12342   12343   12344   12345
   12344   12346   12345   12346   12347   12348   12347   12349
   12348   12349   12350   12351   12350   12352   12351   12352
   12353   12354   12353   12355   12354   12355   12356   12357
   12356   12358   12357   12358   12359   12360   12359   12361
   12360   12361   12362   12363   12362   12364   12363   12364
   12365   12366   12365   12367   12366   12367   12368   12369
   12368   12370   12369   12370   12371   12372   12371   12373
   12372   12373   12374   12375   12374   12376   12375   12376
   12377   12378   12377   12379   12378   12379   12380   12381
   12380   12382   12381   12382   12383   12384   12383   12385
   12384   12385   12386   12387   12386   12388   12387   12388
   12389   12390   12389   12391   12390   12391   12392   12393
   12392   12394   12393   12394   12395   12396   12395   12397
   12396   12397   12398   12399   12398   12400   12399   12400
   12401   12402   12401   12403   12402   12403   12404   12405
   12404   12406   12405   12406   12407   12408   12407   12409
   12408   12409   12410   12411   12410   12412   12411   12412
   12413   12414   12413   12415   12414   12415   12416   12417
   12416   12418   12417   12418   12419   12420   12419   12421
   12420   12421   12422   12423   12422   12424   12423   12424
   12425   12426   12425   12427   12426   12427   12428   12429
   12428   12430   12429   12430   12431   12432   12431   12433
   12432   12433   12434   12435   12434   12436   12435   12436
   12437   12438   12437   12439   12438   12439   12440   12441
   12440   12442   12441   12442   12443   12444   12443   12445
   12444   12445   12446   12447   12446   12448   12447   12448
   12449   12450   12449   12451   12450   12451   12452   12453
   12452   12454   12453   12454   12455   12456   12455   12457
   12456   12457   12458   12459   12458   12460   12459   12460
   12461   12462   12461   12463   12462   12463   12464   12465
   12464   12466   12465   12466   12467   12468   12467   12469
   12468   12469   12470   12471   12470   12472   12471   12472
   12473   12474   12473   12475   12474   12475   12476   12477
   12476   12478   12477   12478   12479   12480   12479   12481
   12480   12481   12482   12483   12482   12484   12483   12484
   12485   12486   12485   12487   12486   12487   12488   12489
   12488   12490   12489   12490   12491   12492   12491   12493
   12492   12493   12494   12495   12494   12496   12495   12496
   12497   12498   12497   12499   12498   12499   12500   12501
   12500   12502   12501   12502   12503   12504   12503   12505
   12504   12505   12506   12507   12506   12508   12507   12508
   12509   12510   12509   12511   12510   12511   12512   12513
   12512   12514   12513   12514   12515   12516   12515   12517
   12516   12517   12518   12519   12518   12520   12519   12520
   12521   12522   12521   12523   12522   12523   12524   12525
   12524   12526   12525   12526   12527   12528   12527   12529
   12528   12529   12530   12531   12530   12532   12531   12532
   12533   12534   12533   12535   12534   12535   12536   12537
   12536   12538   12537   12538   12539   12540   12539   12541
   12540   12541   12542   12543   12542   12544   12543   12544
   12545   12546   12545   12547   12546   12547   12548   12549
   12548   12550   12549   12550   12551   12552   12551   12553
   12552   12553   12554   12555   12554   12556   12555   12556
   12557   12558   12557   12559   12558   12559   12560   12561
   12560   12562   12561   12562   12563   12564   12563   12565
   12564   12565   12566   12567   12566   12568   12567   12568
   12569   12570   12569   12571   12570   12571   12572   12573
   12572   12574   12573   12574   12575   12576   12575   12577
   12576   12577   12578   12579   12578   12580   12579   12580
   12581   12582   12581   12583   12582   12583   12584   12585
   12584   12586   12585   12586   12587   12588   12587   12589
   12588   12589   12590   12591   12590   12592   12591   12592
   12593   12594   12593   12595   12594   12595   12596   12597
   12596   12598   12597   12598   12599   12600   12599   12601
   12600   12601   12602   12603   12602   12604   12603   12604
   12605   12606   12605   12607   12606   12607   12608   12609
   12608   12610   12609   12610   12611   12612   12611   12613
   12612   12613   12614   12615   12614   12616   12615   12616
   12617   12618   12617   12619   12618   12619   12620   12621
   12620   12622   12621   12622   12623   12624   12623   12625
   12624   12625   12626   12627   12626   12628   12627   12628
   12629   12630   12629   12631   12630   12631   12632   12633
   12632   12634   12633   12634   12635   12636   12635   12637
   12636   12637   12638   12639   12638   12640   12639   12640
   12641   12642   12641   12643   12642   12643   12644   12645
   12644   12646   12645   12646   12647   12648   12647   12649
   12648   12649   12650   12651   12650   12652   12651   12652
   12653   12654   12653   12655   12654   12655   12656   12657
   12656   12658   12657   12658   12659   12660   12659   12661
   12660   12661   12662   12663   12662   12664   12663   12664
   12665   12666   12665   12667   12666   12667   12668   12669
   12668   12670   12669   12670   12671   12672   12671   12673
   12672   12673   12674   12675   12674   12676   12675   12676
   12677   12678   12677   12679   12678   12679   12680   12681
   12680   12682   12681   12682   12683   12684   12683   12685
   12684   12685   12686   12687   12686   12688   12687   12688
   12689   12690   12689   12691   12690   12691   12692   12693
   12692   12694   12693   12694   12695   12696   12695   12697
   12696   12697   12698   12699   12698   12700   12699   12700
   12701   12702   12701   12703   12702   12703   12704   12705
   12704   12706   12705   12706   12707   12708   12707   12709
   12708   12709   12710   12711   12710   12712   12711   12712
   12713   12714   12713   12715   12714   12715   12716   12717
   12716   12718   12717   12718   12719   12720   12719   12721
   12720   12721   12722   12723   12722   12724   12723   12724
   12725   12726   12725   12727   12726   12727   12728   12729
   12728   12730   12729   12730   12731   12732   12731   12733
   12732   12733   12734   12735   12734   12736   12735   12736
   12737   12738   12737   12739   12738   12739   12740   12741
   12740   12742   12741   12742   12743   12744   12743   12745
   12744   12745   12746   12747   12746   12748   12747   12748
   12749   12750   12749   12751   12750   12751   12752   12753
   12752   12754   12753   12754   12755   12756   12755   12757
   12756   12757   12758   12759   12758   12760   12759   12760
   12761   12762   12761   12763   12762   12763   12764   12765
   12764   12766   12765   12766   12767   12768   12767   12769
   12768   12769   12770   12771   12770   12772   12771   12772
   12773   12774   12773   12775   12774   12775   12776   12777
   12776   12778   12777   12778   12779   12780   12779   12781
   12780   12781   12782   12783   12782   12784   12783   12784
   12785   12786   12785   12787   12786   12787   12788   12789
   12788   12790   12789   12790   12791   12792   12791   12793
   12792   12793   12794   12795   12794   12796   12795   12796
   12797   12798   12797   12799   12798   12799   12800   12801
   12800   12802   12801   12802   12803   12804   12803   12805
   12804   12805   12806   12807   12806   12808   12807   12808
   12809   12810   12809   12811   12810   12811   12812   12813
   12812   12814   12813   12814   12815   12816   12815   12817
   12816   12817   12818   12819   12818   12820   12819   12820
   12821   12822   12821   12823   12822   12823   12824   12825
   12824   12826   12825   12826   12827   12828   12827   12829
   12828   12829   12830   12831   12830   12832   12831   12832
   12833   12834   12833   12835   12834   12835   12836   12837
   12836   12838   12837   12838   12839   12840   12839   12841
   12840   12841   12842   12843   12842   12844   12843   12844
   12845   12846   12845   12847   12846   12847   12848   12849
   12848   12850   12849   12850   12851   12852   12851   12853
   12852   12853   12854   12855   12854   12856   12855   12856
   12857   12858   12857   12859   12858   12859   12860   12861
   12860   12862   12861   12862   12863   12864   12863   12865
   12864   12865   12866   12867   12866   12868   12867   12868
   12869   12870   12869   12871   12870   12871   12872   12873
   12872   12874   12873   12874   12875   12876   12875   12877
   12876   12877   12878   12879   12878   12880   12879   12880
   12881   12882   12881   12883   12882   12883   12884   12885
   12884   12886   12885   12886   12887   12888   12887   12889
   12888   12889   12890   12891   12890   12892   12891   12892
   12893   12894   12893   12895   12894   12895   12896   12897
   12896   12898   12897   12898   12899   12900   12899   12901
   12900   12901   12902   12903   12902   12904   12903   12904
   12905   12906   12905   12907   12906   12907   12908   12909
   12908   12910   12909   12910   12911   12912   12911   12913
   12912   12913   12914   12915   12914   12916   12915   12916
   12917   12918   12917   12919   12918   12919   12920   12921
   12920   12922   12921   12922   12923   12924   12923   12925
   12924   12925   12926   12927   12926   12928   12927   12928
   12929   12930   12929   12931   12930   12931   12932   12933
   12932   12934   12933   12934   12935   12936   12935   12937
   12936   12937   12938   12939   12938   12940   12939   12940
   12941   12942   12941   12943   12942   12943   12944   12945
   12944   12946   12945   12946   12947   12948   12947   12949
   12948   12949   12950   12951   12950   12952   12951   12952
   12953   12954   12953   12955   12954   12955   12956   12957
   12956   12958   12957   12958   12959   12960   12959   12961
   12960   12961   12962   12963   12962   12964   12963   12964
   12965   12966   12965   12967   12966   12967   12968   12969
   12968   12970   12969   12970   12971   12972   12971   12973
   12972   12973   12974   12975   12974   12976   12975   12976
   12977   12978   12977   12979   12978   12979   12980   12981
   12980   12982   12981   12982   12983   12984   12983   12985
   12984   12985   12986   12987   12986   12988   12987   12988
   12989   12990   12989   12991   12990   12991   12992   12993
   12992   12994   12993   12994   12995   12996   12995   12997
   12996   12997   12998   12999   12998   13000   12999   13000
   13001   13002   13001   13003   13002   13003   13004   13005
   13004   13006   13005   13006   13007   13008   13007   13009
   13008   13009   13010   13011   13010   13012   13011   13012
   13013   13014   13013   13015   13014   13015   13016   13017
   13016   13018   13017   13018   13019   13020   13019   13021
   13020   13021   13022   13023   13022   13024   13023   13024
   13025   13026   13025   13027   13026   13027   13028   13029
   13028   13030   13029   13030   13031   13032   13031   13033
   13032   13033   13034   13035   13034   13036   13035   13036
   13037   13038   13037   13039   13038   13039   13040   13041
   13040   13042   13041   13042   13043   13044   13043   13045
   13044   13045   13046   13047   13046   13048   13047   13048
   13049   13050   13049   13051   13050   13051   13052   13053
   13052   13054   13053   13054   13055   13056   13055   13057
   13056   13057   13058   13059   13058   13060   13059   13060
   13061   13062   13061   13063   13062   13063   13064   13065
   13064   13066   13065   13066   13067   13068   13067   13069
   13068   13069   13070   13071   13070   13072   13071   13072
   13073   13074   13073   13075   13074   13075   13076   13077
   13076   13078   13077   13078   13079   13080   13079   13081
   13080   13081   13082   13083   13082   13084   13083   13084
   13085   13086   13085   13087   13086   13087   13088   13089
   13088   13090   13089   13090   13091   13092   13091   13093
   13092   13093   13094   13095   13094   13096   13095   13096
   13097   13098   13097   13099   13098   13099   13100   13101
   13100   13102   13101   13102   13103   13104   13103   13105
   13104   13105   13106   13107   13106   13108   13107   13108
   13109   13110   13109   13111   13110   13111   13112   13113
   13112   13114   13113   13114   13115   13116   13115   13117
   13116   13117   13118   13119   13118   13120   13119   13120
   13121   13122   13121   13123   13122   13123   13124   13125
   13124   13126   13125   13126   13127   13128   13127   13129
   13128   13129   13130   13131   13130   13132   13131   13132
   13133   13134   13133   13135   13134   13135   13136   13137
   13136   13138   13137   13138   13139   13140   13139   13141
   13140   13141   13142   13143   13142   13144   13143   13144
   13145   13146   13145   13147   13146   13147   13148   13149
   13148   13150   13149   13150   13151   13152   13151   13153
   13152   13153   13154   13155   13154   13156   13155   13156
   13157   13158   13157   13159   13158   13159   13160   13161
   13160   13162   13161   13162   13163   13164   13163   13165
   13164   13165   13166   13167   13166   13168   13167   13168
   13169   13170   13169   13171   13170   13171   13172   13173
   13172   13174   13173   13174   13175   13176   13175   13177
   13176   13177   13178   13179   13178   13180   13179   13180
   13181   13182   13181   13183   13182   13183   13184   13185
   13184   13186   13185   13186   13187   13188   13187   13189
   13188   13189   13190   13191   13190   13192   13191   13192
   13193   13194   13193   13195   13194   13195   13196   13197
   13196   13198   13197   13198   13199   13200   13199   13201
   13200   13201   13202   13203   13202   13204   13203   13204
   13205   13206   13205   13207   13206   13207   13208   13209
   13208   13210   13209   13210   13211   13212   13211   13213
   13212   13213   13214   13215   13214   13216   13215   13216
   13217   13218   13217   13219   13218   13219   13220   13221
   13220   13222   13221   13222   13223   13224   13223   13225
   13224   13225   13226   13227   13226   13228   13227   13228
   13229   13230   13229   13231   13230   13231   13232   13233
   13232   13234   13233   13234   13235   13236   13235   13237
   13236   13237   13238   13239   13238   13240   13239   13240
   13241   13242   13241   13243   13242   13243   13244   13245
   13244   13246   13245   13246   13247   13248   13247   13249
   13248   13249   13250   13251   13250   13252   13251   13252
   13253   13254   13253   13255   13254   13255   13256   13257
   13256   13258   13257   13258   13259   13260   13259   13261
   13260   13261   13262   13263   13262   13264   13263   13264
   13265   13266   13265   13267   13266   13267   13268   13269
   13268   13270   13269   13270   13271   13272   13271   13273
   13272   13273   13274   13275   13274   13276   13275   13276
   13277   13278   13277   13279   13278   13279   13280   13281
   13280   13282   13281   13282   13283   13284   13283   13285
   13284   13285   13286   13287   13286   13288   13287   13288
   13289   13290   13289   13291   13290   13291   13292   13293
   13292   13294   13293   13294   13295   13296   13295   13297
   13296   13297   13298   13299   13298   13300   13299   13300
   13301   13302   13301   13303   13302   13303   13304   13305
   13304   13306   13305   13306   13307   13308   13307   13309
   13308   13309   13310   13311   13310   13312   13311   13312
   13313   13314   13313   13315   13314   13315   13316   13317
   13316   13318   13317   13318   13319   13320   13319   13321
   13320   13321   13322   13323   13322   13324   13323   13324
   13325   13326   13325   13327   13326   13327   13328   13329
   13328   13330   13329   13330   13331   13332   13331   13333
   13332   13333   13334   13335   13334   13336   13335   13336
   13337   13338   13337   13339   13338   13339   13340   13341
   13340   13342   13341   13342   13343   13344   13343   13345
   13344   13345   13346   13347   13346   13348   13347   13348
   13349   13350   13349   13351   13350   13351   13352   13353
   13352   13354   13353   13354   13355   13356   13355   13357
   13356   13357   13358   13359   13358   13360   13359   13360
   13361   13362   13361   13363   13362   13363   13364   13365
   13364   13366   13365   13366   13367   13368   13367   13369
   13368   13369   13370   13371   13370   13372   13371   13372
   13373   13374   13373   13375   13374   13375   13376   13377
   13376   13378   13377   13378   13379   13380   13379   13381
   13380   13381   13382   13383   13382   13384   13383   13384
   13385   13386   13385   13387   13386   13387   13388   13389
   13388   13390   13389   13390   13391   13392   13391   13393
   13392   13393   13394   13395   13394   13396   13395   13396
   13397   13398   13397   13399   13398   13399   13400   13401
   13400   13402   13401   13402   13403   13404   13403   13405
   13404   13405   13406   13407   13406   13408   13407   13408
   13409   13410   13409   13411   13410   13411   13412   13413
   13412   13414   13413   13414   13415   13416   13415   13417
   13416   13417   13418   13419   13418   13420   13419   13420
   13421   13422   13421   13423   13422   13423   13424   13425
   13424   13426   13425   13426   13427   13428   13427   13429
   13428   13429   13430   13431   13430   13432   13431   13432
   13433   13434   13433   13435   13434   13435   13436   13437
   13436   13438   13437   13438   13439   13440   13439   13441
   13440   13441   13442   13443   13442   13444   13443   13444
   13445   13446   13445   13447   13446   13447   13448   13449
   13448   13450   13449   13450   13451   13452   13451   13453
   13452   13453   13454   13455   13454   13456   13455   13456
   13457   13458   13457   13459   13458   13459   13460   13461
   13460   13462   13461   13462   13463   13464   13463   13465
   13464   13465   13466   13467   13466   13468   13467   13468
   13469   13470   13469   13471   13470   13471   13472   13473
   13472   13474   13473   13474   13475   13476   13475   13477
   13476   13477   13478   13479   13478   13480   13479   13480
   13481   13482   13481   13483   13482   13483   13484   13485
   13484   13486   13485   13486   13487   13488   13487   13489
   13488   13489   13490   13491   13490   13492   13491   13492
   13493   13494   13493   13495   13494   13495   13496   13497
   13496   13498   13497   13498   13499   13500   13499   13501
   13500   13501   13502   13503   13502   13504   13503   13504
   13505   13506   13505   13507   13506   13507   13508   13509
   13508   13510   13509   13510   13511   13512   13511   13513
   13512   13513   13514   13515   13514   13516   13515   13516
   13517   13518   13517   13519   13518   13519   13520   13521
   13520   13522   13521   13522   13523   13524   13523   13525
   13524   13525   13526   13527   13526   13528   13527   13528
   13529   13530   13529   13531   13530   13531   13532   13533
   13532   13534   13533   13534   13535   13536   13535   13537
   13536   13537   13538   13539   13538   13540   13539   13540
   13541   13542   13541   13543   13542   13543   13544   13545
   13544   13546   13545   13546   13547   13548   13547   13549
   13548   13549   13550   13551   13550   13552   13551   13552
   13553   13554   13553   13555   13554   13555   13556   13557
   13556   13558   13557   13558   13559   13560   13559   13561
   13560   13561   13562   13563   13562   13564   13563   13564
   13565   13566   13565   13567   13566   13567   13568   13569
   13568   13570   13569   13570   13571   13572   13571   13573
   13572   13573   13574   13575   13574   13576   13575   13576
   13577   13578   13577   13579   13578   13579   13580   13581
   13580   13582   13581   13582   13583   13584   13583   13585
   13584   13585   13586   13587   13586   13588   13587   13588
   13589   13590   13589   13591   13590   13591   13592   13593
   13592   13594   13593   13594   13595   13596   13595   13597
   13596   13597   13598   13599   13598   13600   13599   13600
   13601   13602   13601   13603   13602   13603   13604   13605
   13604   13606   13605   13606   13607   13608   13607   13609
   13608   13609   13610   13611   13610   13612   13611   13612
   13613   13614   13613   13615   13614   13615   13616   13617
   13616   13618   13617   13618   13619   13620   13619   13621
   13620   13621   13622   13623   13622   13624   13623   13624
   13625   13626   13625   13627   13626   13627   13628   13629
   13628   13630   13629   13630   13631   13632   13631   13633
   13632   13633   13634   13635   13634   13636   13635   13636
   13637   13638   13637   13639   13638   13639   13640   13641
   13640   13642   13641   13642   13643   13644   13643   13645
   13644   13645   13646   13647   13646   13648   13647   13648
   13649   13650   13649   13651   13650   13651   13652   13653
   13652   13654   13653   13654   13655   13656   13655   13657
   13656   13657   13658   13659   13658   13660   13659   13660
   13661   13662   13661   13663   13662   13663   13664   13665
   13664   13666   13665   13666   13667   13668   13667   13669
   13668   13669   13670   13671   13670   13672   13671   13672
   13673   13674   13673   13675   13674   13675   13676   13677
   13676   13678   13677   13678   13679   13680   13679   13681
   13680   13681   13682   13683   13682   13684   13683   13684
   13685   13686   13685   13687   13686   13687   13688   13689
   13688   13690   13689   13690   13691   13692   13691   13693
   13692   13693   13694   13695   13694   13696   13695   13696
   13697   13698   13697   13699   13698   13699   13700   13701
   13700   13702   13701   13702   13703   13704   13703   13705
   13704   13705   13706   13707   13706   13708   13707   13708
   13709   13710   13709   13711   13710   13711   13712   13713
   13712   13714   13713   13714   13715   13716   13715   13717
   13716   13717   13718   13719   13718   13720   13719   13720
   13721   13722   13721   13723   13722   13723   13724   13725
   13724   13726   13725   13726   13727   13728   13727   13729
   13728   13729   13730   13731   13730   13732   13731   13732
   13733   13734   13733   13735   13734   13735   13736   13737
   13736   13738   13737   13738   13739   13740   13739   13741
   13740   13741   13742   13743   13742   13744   13743   13744
   13745   13746   13745   13747   13746   13747   13748   13749
   13748   13750   13749   13750   13751   13752   13751   13753
   13752   13753   13754   13755   13754   13756   13755   13756
   13757   13758   13757   13759   13758   13759   13760   13761
   13760   13762   13761   13762   13763   13764   13763   13765
   13764   13765   13766   13767   13766   13768   13767   13768
   13769   13770   13769   13771   13770   13771   13772   13773
   13772   13774   13773   13774   13775   13776   13775   13777
   13776   13777   13778   13779   13778   13780   13779   13780
   13781   13782   13781   13783   13782   13783   13784   13785
   13784   13786   13785   13786   13787   13788   13787   13789
   13788   13789   13790   13791   13790   13792   13791   13792
   13793   13794   13793   13795   13794   13795   13796   13797
   13796   13798   13797   13798   13799   13800   13799   13801
   13800   13801   13802   13803   13802   13804   13803   13804
   13805   13806   13805   13807   13806   13807   13808   13809
   13808   13810   13809   13810   13811   13812   13811   13813
   13812   13813   13814   13815   13814   13816   13815   13816
   13817   13818   13817   13819   13818   13819   13820   13821
   13820   13822   13821   13822   13823   13824   13823   13825
   13824   13825   13826   13827   13826   13828   13827   13828
   13829   13830   13829   13831   13830   13831   13832   13833
   13832   13834   13833   13834   13835   13836   13835   13837
   13836   13837   13838   13839   13838   13840   13839   13840
   13841   13842   13841   13843   13842   13843   13844   13845
   13844   13846   13845   13846   13847   13848   13847   13849
   13848   13849   13850   13851   13850   13852   13851   13852
   13853   13854   13853   13855   13854   13855   13856   13857
   13856   13858   13857   13858   13859   13860   13859   13861
   13860   13861   13862   13863   13862   13864   13863   13864
   13865   13866   13865   13867   13866   13867   13868   13869
   13868   13870   13869   13870   13871   13872   13871   13873
   13872   13873   13874   13875   13874   13876   13875   13876
   13877   13878   13877   13879   13878   13879   13880   13881
   13880   13882   13881   13882   13883   13884   13883   13885
   13884   13885   13886   13887   13886   13888   13887   13888
   13889   13890   13889   13891   13890   13891   13892   13893
   13892   13894   13893   13894   13895   13896   13895   13897
   13896   13897   13898   13899   13898   13900   13899   13900
   13901   13902   13901   13903   13902   13903   13904   13905
   13904   13906   13905   13906   13907   13908   13907   13909
   13908   13909   13910   13911   13910   13912   13911   13912
   13913   13914   13913   13915   13914   13915   13916   13917
   13916   13918   13917   13918   13919   13920   13919   13921
   13920   13921   13922   13923   13922   13924   13923   13924
   13925   13926   13925   13927   13926   13927   13928   13929
   13928   13930   13929   13930   13931   13932   13931   13933
   13932   13933   13934   13935   13934   13936   13935   13936
   13937   13938   13937   13939   13938   13939   13940   13941
   13940   13942   13941   13942   13943   13944   13943   13945
   13944   13945   13946   13947   13946   13948   13947   13948
   13949   13950   13949   13951   13950   13951   13952   13953
   13952   13954   13953   13954   13955   13956   13955   13957
   13956   13957   13958   13959   13958   13960   13959   13960
   13961   13962   13961   13963   13962   13963   13964   13965
   13964   13966   13965   13966   13967   13968   13967   13969
   13968   13969   13970   13971   13970   13972   13971   13972
   13973   13974   13973   13975   13974   13975   13976   13977
   13976   13978   13977   13978   13979   13980   13979   13981
   13980   13981   13982   13983   13982   13984   13983   13984
   13985   13986   13985   13987   13986   13987   13988   13989
   13988   13990   13989   13990   13991   13992   13991   13993
   13992   13993   13994   13995   13994   13996   13995   13996
   13997   13998   13997   13999   13998   13999   14000   14001
   14000   14002   14001   14002   14003   14004   14003   14005
   14004   14005   14006   14007   14006   14008   14007   14008
   14009   14010   14009   14011   14010   14011   14012   14013
   14012   14014   14013   14014   14015   14016   14015   14017
   14016   14017   14018   14019   14018   14020   14019   14020
   14021   14022   14021   14023   14022   14023   14024   14025
   14024   14026   14025   14026   14027   14028   14027   14029
   14028   14029   14030   14031   14030   14032   14031   14032
   14033   14034   14033   14035   14034   14035   14036   14037
   14036   14038   14037   14038   14039   14040   14039   14041
   14040   14041   14042   14043   14042   14044   14043   14044
   14045   14046   14045   14047   14046   14047   14048   14049
   14048   14050   14049   14050   14051   14052   14051   14053
   14052   14053   14054   14055   14054   14056   14055   14056
   14057   14058   14057   14059   14058   14059   14060   14061
   14060   14062   14061   14062   14063   14064   14063   14065
   14064   14065   14066   14067   14066   14068   14067   14068
   14069   14070   14069   14071   14070   14071   14072   14073
   14072   14074   14073   14074   14075   14076   14075   14077
   14076   14077   14078   14079   14078   14080   14079   14080
   14081   14082   14081   14083   14082   14083   14084   14085
   14084   14086   14085   14086   14087   14088   14087   14089
   14088   14089   14090   14091   14090   14092   14091   14092
   14093   14094   14093   14095   14094   14095   14096   14097
   14096   14098   14097   14098   14099   14100   14099   14101
   14100   14101   14102   14103   14102   14104   14103   14104
   14105   14106   14105   14107   14106   14107   14108   14109
   14108   14110   14109   14110   14111   14112   14111   14113
   14112   14113   14114   14115   14114   14116   14115   14116
   14117   14118   14117   14119   14118   14119   14120   14121
   14120   14122   14121   14122   14123   14124   14123   14125
   14124   14125   14126   14127   14126   14128   14127   14128
   14129   14130   14129   14131   14130   14131   14132   14133
   14132   14134   14133   14134   14135   14136   14135   14137
   14136   14137   14138   14139   14138   14140   14139   14140
   14141   14142   14141   14143   14142   14143   14144   14145
   14144   14146   14145   14146   14147   14148   14147   14149
   14148   14149   14150   14151   14150   14152   14151   14152
   14153   14154   14153   14155   14154   14155   14156   14157
   14156   14158   14157   14158   14159   14160   14159   14161
   14160   14161   14162   14163   14162   14164   14163   14164
   14165   14166   14165   14167   14166   14167   14168   14169
   14168   14170   14169   14170   14171   14172   14171   14173
   14172   14173   14174   14175   14174   14176   14175   14176
   14177   14178   14177   14179   14178   14179   14180   14181
   14180   14182   14181   14182   14183   14184   14183   14185
   14184   14185   14186   14187   14186   14188   14187   14188
   14189   14190   14189   14191   14190   14191   14192   14193
   14192   14194   14193   14194   14195   14196   14195   14197
   14196   14197   14198   14199   14198   14200   14199   14200
   14201   14202   14201   14203   14202   14203   14204   14205
   14204   14206   14205   14206   14207   14208   14207   14209
   14208   14209   14210   14211   14210   14212   14211   14212
   14213   14214   14213   14215   14214   14215   14216   14217
   14216   14218   14217   14218   14219   14220   14219   14221
   14220   14221   14222   14223   14222   14224   14223   14224
   14225   14226   14225   14227   14226   14227   14228   14229
   14228   14230   14229   14230   14231   14232   14231   14233
   14232   14233   14234   14235   14234   14236   14235   14236
   14237   14238   14237   14239   14238   14239   14240   14241
   14240   14242   14241   14242   14243   14244   14243   14245
   14244   14245   14246   14247   14246   14248   14247   14248
   14249   14250   14249   14251   14250   14251   14252   14253
   14252   14254   14253   14254   14255   14256   14255   14257
   14256   14257   14258   14259   14258   14260   14259   14260
   14261   14262   14261   14263   14262   14263   14264   14265
   14264   14266   14265   14266   14267   14268   14267   14269
   14268   14269   14270   14271   14270   14272   14271   14272
   14273   14274   14273   14275   14274   14275   14276   14277
   14276   14278   14277   14278   14279   14280   14279   14281
   14280   14281   14282   14283   14282   14284   14283   14284
   14285   14286   14285   14287   14286   14287   14288   14289
   14288   14290   14289   14290   14291   14292   14291   14293
   14292   14293   14294   14295   14294   14296   14295   14296
   14297   14298   14297   14299   14298   14299   14300   14301
   14300   14302   14301   14302   14303   14304   14303   14305
   14304   14305   14306   14307   14306   14308   14307   14308
   14309   14310   14309   14311   14310   14311   14312   14313
   14312   14314   14313   14314   14315   14316   14315   14317
   14316   14317   14318   14319   14318   14320   14319   14320
   14321   14322   14321   14323   14322   14323   14324   14325
   14324   14326   14325   14326   14327   14328   14327   14329
   14328   14329   14330   14331   14330   14332   14331   14332
   14333   14334   14333   14335   14334   14335   14336   14337
   14336   14338   14337   14338   14339   14340   14339   14341
   14340   14341   14342   14343   14342   14344   14343   14344
   14345   14346   14345   14347   14346   14347   14348   14349
   14348   14350   14349   14350   14351   14352   14351   14353
   14352   14353   14354   14355   14354   14356   14355   14356
   14357   14358   14357   14359   14358   14359   14360   14361
   14360   14362   14361   14362   14363   14364   14363   14365
   14364   14365   14366   14367   14366   14368   14367   14368
   14369   14370   14369   14371   14370   14371   14372   14373
   14372   14374   14373   14374   14375   14376   14375   14377
   14376   14377   14378   14379   14378   14380   14379   14380
   14381   14382   14381   14383   14382   14383   14384   14385
   14384   14386   14385   14386   14387   14388   14387   14389
   14388   14389   14390   14391   14390   14392   14391   14392
   14393   14394   14393   14395   14394   14395   14396   14397
   14396   14398   14397   14398   14399   14400   14399   14401
   14400   14401   14402   14403   14402   14404   14403   14404
   14405   14406   14405   14407   14406   14407   14408   14409
   14408   14410   14409   14410   14411   14412   14411   14413
   14412   14413   14414   14415   14414   14416   14415   14416
   14417   14418   14417   14419   14418   14419   14420   14421
   14420   14422   14421   14422   14423   14424   14423   14425
   14424   14425   14426   14427   14426   14428   14427   14428
   14429   14430   14429   14431   14430   14431   14432   14433
   14432   14434   14433   14434   14435   14436   14435   14437
   14436   14437   14438   14439   14438   14440   14439   14440
   14441   14442   14441   14443   14442   14443   14444   14445
   14444   14446   14445   14446   14447   14448   14447   14449
   14448   14449   14450   14451   14450   14452   14451   14452
   14453   14454   14453   14455   14454   14455   14456   14457
   14456   14458   14457   14458   14459   14460   14459   14461
   14460   14461   14462   14463   14462   14464   14463   14464
   14465   14466   14465   14467   14466   14467   14468   14469
   14468   14470   14469   14470   14471   14472   14471   14473
   14472   14473   14474   14475   14474   14476   14475   14476
   14477   14478   14477   14479   14478   14479   14480   14481
   14480   14482   14481   14482   14483   14484   14483   14485
   14484   14485   14486   14487   14486   14488   14487   14488
   14489   14490   14489   14491   14490   14491   14492   14493
   14492   14494   14493   14494   14495   14496   14495   14497
   14496   14497   14498   14499   14498   14500   14499   14500
   14501   14502   14501   14503   14502   14503   14504   14505
   14504   14506   14505   14506   14507   14508   14507   14509
   14508   14509   14510   14511   14510   14512   14511   14512
   14513   14514   14513   14515   14514   14515   14516   14517
   14516   14518   14517   14518   14519   14520   14519   14521
   14520   14521   14522   14523   14522   14524   14523   14524
   14525   14526   14525   14527   14526   14527   14528   14529
   14528   14530   14529   14530   14531   14532   14531   14533
   14532   14533   14534   14535   14534   14536   14535   14536
   14537   14538   14537   14539   14538   14539   14540   14541
   14540   14542   14541   14542   14543   14544   14543   14545
   14544   14545   14546   14547   14546   14548   14547   14548
   14549   14550   14549   14551   14550   14551   14552   14553
   14552   14554   14553   14554   14555   14556   14555   14557
   14556   14557   14558   14559   14558   14560   14559   14560
   14561   14562   14561   14563   14562   14563   14564   14565
   14564   14566   14565   14566   14567   14568   14567   14569
   14568   14569   14570   14571   14570   14572   14571   14572
   14573   14574   14573   14575   14574   14575   14576   14577
   14576   14578   14577   14578   14579   14580   14579   14581
   14580   14581   14582   14583   14582   14584   14583   14584
   14585   14586   14585   14587   14586   14587   14588   14589
   14588   14590   14589   14590   14591   14592   14591   14593
   14592   14593   14594   14595   14594   14596   14595   14596
   14597   14598   14597   14599   14598   14599   14600   14601
   14600   14602   14601   14602   14603   14604   14603   14605
   14604   14605   14606   14607   14606   14608   14607   14608
   14609   14610   14609   14611   14610   14611   14612   14613
   14612   14614   14613   14614   14615   14616   14615   14617
   14616   14617   14618   14619   14618   14620   14619   14620
   14621   14622   14621   14623   14622   14623   14624   14625
   14624   14626   14625   14626   14627   14628   14627   14629
   14628   14629   14630   14631   14630   14632   14631   14632
   14633   14634   14633   14635   14634   14635   14636   14637
   14636   14638   14637   14638   14639   14640   14639   14641
   14640   14641   14642   14643   14642   14644   14643   14644
   14645   14646   14645   14647   14646   14647   14648   14649
   14648   14650   14649   14650   14651   14652   14651   14653
   14652   14653   14654   14655   14654   14656   14655   14656
   14657   14658   14657   14659   14658   14659   14660   14661
   14660   14662   14661   14662   14663   14664   14663   14665
   14664   14665   14666   14667   14666   14668   14667   14668
   14669   14670   14669   14671   14670   14671   14672   14673
   14672   14674   14673   14674   14675   14676   14675   14677
   14676   14677   14678   14679   14678   14680   14679   14680
   14681   14682   14681   14683   14682   14683   14684   14685
   14684   14686   14685   14686   14687   14688   14687   14689
   14688   14689   14690   14691   14690   14692   14691   14692
   14693   14694   14693   14695   14694   14695   14696   14697
   14696   14698   14697   14698   14699   14700   14699   14701
   14700   14701   14702   14703   14702   14704   14703   14704
   14705   14706   14705   14707   14706   14707   14708   14709
   14708   14710   14709   14710   14711   14712   14711   14713
   14712   14713   14714   14715   14714   14716   14715   14716
   14717   14718   14717   14719   14718   14719   14720   14721
   14720   14722   14721   14722   14723   14724   14723   14725
   14724   14725   14726   14727   14726   14728   14727   14728
   14729   14730   14729   14731   14730   14731   14732   14733
   14732   14734   14733   14734   14735   14736   14735   14737
   14736   14737   14738   14739   14738   14740   14739   14740
   14741   14742   14741   14743   14742   14743   14744   14745
   14744   14746   14745   14746   14747   14748   14747   14749
   14748   14749   14750   14751   14750   14752   14751   14752
   14753   14754   14753   14755   14754   14755   14756   14757
   14756   14758   14757   14758   14759   14760   14759   14761
   14760   14761   14762   14763   14762   14764   14763   14764
   14765   14766   14765   14767   14766   14767   14768   14769
   14768   14770   14769   14770   14771   14772   14771   14773
   14772   14773   14774   14775   14774   14776   14775   14776
   14777   14778   14777   14779   14778   14779   14780   14781
   14780   14782   14781   14782   14783   14784   14783   14785
   14784   14785   14786   14787   14786   14788   14787   14788
   14789   14790   14789   14791   14790   14791   14792   14793
   14792   14794   14793   14794   14795   14796   14795   14797
   14796   14797   14798   14799   14798   14800   14799   14800
   14801   14802   14801   14803   14802   14803   14804   14805
   14804   14806   14805   14806   14807   14808   14807   14809
   14808   14809   14810   14811   14810   14812   14811   14812
   14813   14814   14813   14815   14814   14815   14816   14817
   14816   14818   14817   14818   14819   14820   14819   14821
   14820   14821   14822   14823   14822   14824   14823   14824
   14825   14826   14825   14827   14826   14827   14828   14829
   14828   14830   14829   14830   14831   14832   14831   14833
   14832   14833   14834   14835   14834   14836   14835   14836
   14837   14838   14837   14839   14838   14839   14840   14841
   14840   14842   14841   14842   14843   14844   14843   14845
   14844   14845   14846   14847   14846   14848   14847   14848
   14849   14850   14849   14851   14850   14851   14852   14853
   14852   14854   14853   14854   14855   14856   14855   14857
   14856   14857   14858   14859   14858   14860   14859   14860
   14861   14862   14861   14863   14862   14863   14864   14865
   14864   14866   14865   14866   14867   14868   14867   14869
   14868   14869   14870   14871   14870   14872   14871   14872
   14873   14874   14873   14875   14874   14875   14876   14877
   14876   14878   14877   14878   14879   14880   14879   14881
   14880   14881   14882   14883   14882   14884   14883   14884
   14885   14886   14885   14887   14886   14887   14888   14889
   14888   14890   14889   14890   14891   14892   14891   14893
   14892   14893   14894   14895   14894   14896   14895   14896
   14897   14898   14897   14899   14898   14899   14900   14901
   14900   14902   14901   14902   14903   14904   14903   14905
   14904   14905   14906   14907   14906   14908   14907   14908
   14909   14910   14909   14911   14910   14911   14912   14913
   14912   14914   14913   14914   14915   14916   14915   14917
   14916   14917   14918   14919   14918   14920   14919   14920
   14921   14922   14921   14923   14922   14923   14924   14925
   14924   14926   14925   14926   14927   14928   14927   14929
   14928   14929   14930   14931   14930   14932   14931   14932
   14933   14934   14933   14935   14934   14935   14936   14937
   14936   14938   14937   14938   14939   14940   14939   14941
   14940   14941   14942   14943   14942   14944   14943   14944
   14945   14946   14945   14947   14946   14947   14948   14949
   14948   14950   14949   14950   14951   14952   14951   14953
   14952   14953   14954   14955   14954   14956   14955   14956
   14957   14958   14957   14959   14958   14959   14960   14961
   14960   14962   14961   14962   14963   14964   14963   14965
   14964   14965   14966   14967   14966   14968   14967   14968
   14969   14970   14969   14971   14970   14971   14972   14973
   14972   14974   14973   14974   14975   14976   14975   14977
   14976   14977   14978   14979   14978   14980   14979   14980
   14981   14982   14981   14983   14982   14983   14984   14985
   14984   14986   14985   14986   14987   14988   14987   14989
   14988   14989   14990   14991   14990   14992   14991   14992
   14993   14994   14993   14995   14994   14995   14996   14997
   14996   14998   14997   14998   14999   15000   14999   15001
   15000   15001   15002   15003   15002   15004   15003   15004
   15005   15006   15005   15007   15006   15007   15008   15009
   15008   15010   15009   15010   15011   15012   15011   15013
   15012   15013   15014   15015   15014   15016   15015   15016
   15017   15018   15017   15019   15018   15019   15020   15021
   15020   15022   15021   15022   15023   15024   15023   15025
   15024   15025   15026   15027   15026   15028   15027   15028
   15029   15030   15029   15031   15030   15031   15032   15033
   15032   15034   15033   15034   15035   15036   15035   15037
   15036   15037   15038   15039   15038   15040   15039   15040
   15041   15042   15041   15043   15042   15043   15044   15045
   15044   15046   15045   15046   15047   15048   15047   15049
   15048   15049   15050   15051   15050   15052   15051   15052
   15053   15054   15053   15055   15054   15055   15056   15057
   15056   15058   15057   15058   15059   15060   15059   15061
   15060   15061   15062   15063   15062   15064   15063   15064
   15065   15066   15065   15067   15066   15067   15068   15069
   15068   15070   15069   15070   15071   15072   15071   15073
   15072   15073   15074   15075   15074   15076   15075   15076
   15077   15078   15077   15079   15078   15079   15080   15081
   15080   15082   15081   15082   15083   15084   15083   15085
   15084   15085   15086   15087   15086   15088   15087   15088
   15089   15090   15089   15091   15090   15091   15092   15093
   15092   15094   15093   15094   15095   15096   15095   15097
   15096   15097   15098   15099   15098   15100   15099   15100
   15101   15102   15101   15103   15102   15103   15104   15105
   15104   15106   15105   15106   15107   15108   15107   15109
   15108   15109   15110   15111   15110   15112   15111   15112
   15113   15114   15113   15115   15114   15115   15116   15117
   15116   15118   15117   15118   15119   15120   15119   15121
   15120   15121   15122   15123   15122   15124   15123   15124
   15125   15126   15125   15127   15126   15127   15128   15129
   15128   15130   15129   15130   15131   15132   15131   15133
   15132   15133   15134   15135   15134   15136   15135   15136
   15137   15138   15137   15139   15138   15139   15140   15141
   15140   15142   15141   15142   15143   15144   15143   15145
   15144   15145   15146   15147   15146   15148   15147   15148
   15149   15150   15149   15151   15150   15151   15152   15153
   15152   15154   15153   15154   15155   15156   15155   15157
   15156   15157   15158   15159   15158   15160   15159   15160
   15161   15162   15161   15163   15162   15163   15164   15165
   15164   15166   15165   15166   15167   15168   15167   15169
   15168   15169   15170   15171   15170   15172   15171   15172
   15173   15174   15173   15175   15174   15175   15176   15177
   15176   15178   15177   15178   15179   15180   15179   15181
   15180   15181   15182   15183   15182   15184   15183   15184
   15185   15186   15185   15187   15186   15187   15188   15189
   15188   15190   15189   15190   15191   15192   15191   15193
   15192   15193   15194   15195   15194   15196   15195   15196
   15197   15198   15197   15199   15198   15199   15200   15201
   15200   15202   15201   15202   15203   15204   15203   15205
   15204   15205   15206   15207   15206   15208   15207   15208
   15209   15210   15209   15211   15210   15211   15212   15213
   15212   15214   15213   15214   15215   15216   15215   15217
   15216   15217   15218   15219   15218   15220   15219   15220
   15221   15222   15221   15223   15222   15223   15224   15225
   15224   15226   15225   15226   15227   15228   15227   15229
   15228   15229   15230   15231   15230   15232   15231   15232
   15233   15234   15233   15235   15234   15235   15236   15237
   15236   15238   15237   15238   15239   15240   15239   15241
   15240   15241   15242   15243   15242   15244   15243   15244
   15245   15246   15245   15247   15246   15247   15248   15249
   15248   15250   15249   15250   15251   15252   15251   15253
   15252   15253   15254   15255   15254   15256   15255   15256
   15257   15258   15257   15259   15258   15259   15260   15261
   15260   15262   15261   15262   15263   15264   15263   15265
   15264   15265   15266   15267   15266   15268   15267   15268
   15269   15270   15269   15271   15270   15271   15272   15273
   15272   15274   15273   15274   15275   15276   15275   15277
   15276   15277   15278   15279   15278   15280   15279   15280
   15281   15282   15281   15283   15282   15283   15284   15285
   15284   15286   15285   15286   15287   15288   15287   15289
   15288   15289   15290   15291   15290   15292   15291   15292
   15293   15294   15293   15295   15294   15295   15296   15297
   15296   15298   15297   15298   15299   15300   15299   15301
   15300   15301   15302   15303   15302   15304   15303   15304
   15305   15306   15305   15307   15306   15307   15308   15309
   15308   15310   15309   15310   15311   15312   15311   15313
   15312   15313   15314   15315   15314   15316   15315   15316
   15317   15318   15317   15319   15318   15319   15320   15321
   15320   15322   15321   15322   15323   15324   15323   15325
   15324   15325   15326   15327   15326   15328   15327   15328
   15329   15330   15329   15331   15330   15331   15332   15333
   15332   15334   15333   15334   15335   15336   15335   15337
   15336   15337   15338   15339   15338   15340   15339   15340
   15341   15342   15341   15343   15342   15343   15344   15345
   15344   15346   15345   15346   15347   15348   15347   15349
   15348   15349   15350   15351   15350   15352   15351   15352
   15353   15354   15353   15355   15354   15355   15356   15357
   15356   15358   15357   15358   15359   15360   15359   15361
   15360   15361   15362   15363   15362   15364   15363   15364
   15365   15366   15365   15367   15366   15367   15368   15369
   15368   15370   15369   15370   15371   15372   15371   15373
   15372   15373   15374   15375   15374   15376   15375   15376
   15377   15378   15377   15379   15378   15379   15380   15381
   15380   15382   15381   15382   15383   15384   15383   15385
   15384   15385   15386   15387   15386   15388   15387   15388
   15389   15390   15389   15391   15390   15391   15392   15393
   15392   15394   15393   15394   15395   15396   15395   15397
   15396   15397   15398   15399   15398   15400   15399   15400
   15401   15402   15401   15403   15402   15403   15404   15405
   15404   15406   15405   15406   15407   15408   15407   15409
   15408   15409   15410   15411   15410   15412   15411   15412
   15413   15414   15413   15415   15414   15415   15416   15417
   15416   15418   15417   15418   15419   15420   15419   15421
   15420   15421   15422   15423   15422   15424   15423   15424
   15425   15426   15425   15427   15426   15427   15428   15429
   15428   15430   15429   15430   15431   15432   15431   15433
   15432   15433   15434   15435   15434   15436   15435   15436
   15437   15438   15437   15439   15438   15439   15440   15441
   15440   15442   15441   15442   15443   15444   15443   15445
   15444   15445   15446   15447   15446   15448   15447   15448
   15449   15450   15449   15451   15450   15451   15452   15453
   15452   15454   15453   15454   15455   15456   15455   15457
   15456   15457   15458   15459   15458   15460   15459   15460
   15461   15462   15461   15463   15462   15463   15464   15465
   15464   15466   15465   15466   15467   15468   15467   15469
   15468   15469   15470   15471   15470   15472   15471   15472
   15473   15474   15473   15475   15474   15475   15476   15477
   15476   15478   15477   15478   15479   15480   15479   15481
   15480   15481   15482   15483   15482   15484   15483   15484
   15485   15486   15485   15487   15486   15487   15488   15489
   15488   15490   15489   15490   15491   15492   15491   15493
   15492   15493   15494   15495   15494   15496   15495   15496
   15497   15498   15497   15499   15498   15499   15500   15501
   15500   15502   15501   15502   15503   15504   15503   15505
   15504   15505   15506   15507   15506   15508   15507   15508
   15509   15510   15509   15511   15510   15511   15512   15513
   15512   15514   15513   15514   15515   15516   15515   15517
   15516   15517   15518   15519   15518   15520   15519   15520
   15521   15522   15521   15523   15522   15523   15524   15525
   15524   15526   15525   15526   15527   15528   15527   15529
   15528   15529   15530   15531   15530   15532   15531   15532
   15533   15534   15533   15535   15534   15535   15536   15537
   15536   15538   15537   15538   15539   15540   15539   15541
   15540   15541   15542   15543   15542   15544   15543   15544
   15545   15546   15545   15547   15546   15547   15548   15549
   15548   15550   15549   15550   15551   15552   15551   15553
   15552   15553   15554   15555   15554   15556   15555   15556
   15557   15558   15557   15559   15558   15559   15560   15561
   15560   15562   15561   15562   15563   15564   15563   15565
   15564   15565   15566   15567   15566   15568   15567   15568
   15569   15570   15569   15571   15570   15571   15572   15573
   15572   15574   15573   15574   15575   15576   15575   15577
   15576   15577   15578   15579   15578   15580   15579   15580
   15581   15582   15581   15583   15582   15583   15584   15585
   15584   15586   15585   15586   15587   15588   15587   15589
   15588   15589   15590   15591   15590   15592   15591   15592
   15593   15594   15593   15595   15594   15595   15596   15597
   15596   15598   15597   15598   15599   15600   15599   15601
   15600   15601   15602   15603   15602   15604   15603   15604
   15605   15606   15605   15607   15606   15607   15608   15609
   15608   15610   15609   15610   15611   15612   15611   15613
   15612   15613   15614   15615   15614   15616   15615   15616
   15617   15618   15617   15619   15618   15619   15620   15621
   15620   15622   15621   15622   15623   15624   15623   15625
   15624   15625   15626   15627   15626   15628   15627   15628
   15629   15630   15629   15631   15630   15631   15632   15633
   15632   15634   15633   15634   15635   15636   15635   15637
   15636   15637   15638   15639   15638   15640   15639   15640
   15641   15642   15641   15643   15642   15643   15644   15645
   15644   15646   15645   15646   15647   15648   15647   15649
   15648   15649   15650   15651   15650   15652   15651   15652
   15653   15654   15653   15655   15654   15655   15656   15657
   15656   15658   15657   15658   15659   15660   15659   15661
   15660   15661   15662   15663   15662   15664   15663   15664
   15665   15666   15665   15667   15666   15667   15668   15669
   15668   15670   15669   15670   15671   15672   15671   15673
   15672   15673   15674   15675   15674   15676   15675   15676
   15677   15678   15677   15679   15678   15679   15680   15681
   15680   15682   15681   15682   15683   15684   15683   15685
   15684   15685   15686   15687   15686   15688   15687   15688
   15689   15690   15689   15691   15690   15691   15692   15693
   15692   15694   15693   15694   15695   15696   15695   15697
   15696   15697   15698   15699   15698   15700   15699   15700
   15701   15702   15701   15703   15702   15703   15704   15705
   15704   15706   15705   15706   15707   15708   15707   15709
   15708   15709   15710   15711   15710   15712   15711   15712
   15713   15714   15713   15715   15714   15715   15716   15717
   15716   15718   15717   15718   15719   15720   15719   15721
   15720   15721   15722   15723   15722   15724   15723   15724
   15725   15726   15725   15727   15726   15727   15728   15729
   15728   15730   15729   15730   15731   15732   15731   15733
   15732   15733   15734   15735   15734   15736   15735   15736
   15737   15738   15737   15739   15738   15739   15740   15741
   15740   15742   15741   15742   15743   15744   15743   15745
   15744   15745   15746   15747   15746   15748   15747   15748
   15749   15750   15749   15751   15750   15751   15752   15753
   15752   15754   15753   15754   15755   15756   15755   15757
   15756   15757   15758   15759   15758   15760   15759   15760
   15761   15762   15761   15763   15762   15763   15764   15765
   15764   15766   15765   15766   15767   15768   15767   15769
   15768   15769   15770   15771   15770   15772   15771   15772
   15773   15774   15773   15775   15774   15775   15776   15777
   15776   15778   15777   15778   15779   15780   15779   15781
   15780   15781   15782   15783   15782   15784   15783   15784
   15785   15786   15785   15787   15786   15787   15788   15789
   15788   15790   15789   15790   15791   15792   15791   15793
   15792   15793   15794   15795   15794   15796   15795   15796
   15797   15798   15797   15799   15798   15799   15800   15801
   15800   15802   15801   15802   15803   15804   15803   15805
   15804   15805   15806   15807   15806   15808   15807   15808
   15809   15810   15809   15811   15810   15811   15812   15813
   15812   15814   15813   15814   15815   15816   15815   15817
   15816   15817   15818   15819   15818   15820   15819   15820
   15821   15822   15821   15823   15822   15823   15824   15825
   15824   15826   15825   15826   15827   15828   15827   15829
   15828   15829   15830   15831   15830   15832   15831   15832
   15833   15834   15833   15835   15834   15835   15836   15837
   15836   15838   15837   15838   15839   15840   15839   15841
   15840   15841   15842   15843   15842   15844   15843   15844
   15845   15846   15845   15847   15846   15847   15848   15849
   15848   15850   15849   15850   15851   15852   15851   15853
   15852   15853   15854   15855   15854   15856   15855   15856
   15857   15858   15857   15859   15858   15859   15860   15861
   15860   15862   15861   15862   15863   15864   15863   15865
   15864   15865   15866   15867   15866   15868   15867   15868
   15869   15870   15869   15871   15870   15871   15872   15873
   15872   15874   15873   15874   15875   15876   15875   15877
   15876   15877   15878   15879   15878   15880   15879   15880
   15881   15882   15881   15883   15882   15883   15884   15885
   15884   15886   15885   15886   15887   15888   15887   15889
   15888   15889   15890   15891   15890   15892   15891   15892
   15893   15894   15893   15895   15894   15895   15896   15897
   15896   15898   15897   15898   15899   15900   15899   15901
   15900   15901   15902   15903   15902   15904   15903   15904
   15905   15906   15905   15907   15906   15907   15908   15909
   15908   15910   15909   15910   15911   15912   15911   15913
   15912   15913   15914   15915   15914   15916   15915   15916
   15917   15918   15917   15919   15918   15919   15920   15921
   15920   15922   15921   15922   15923   15924   15923   15925
   15924   15925   15926   15927   15926   15928   15927   15928
   15929   15930   15929   15931   15930   15931   15932   15933
   15932   15934   15933   15934   15935   15936   15935   15937
   15936   15937   15938   15939   15938   15940   15939   15940
   15941   15942   15941   15943   15942   15943   15944   15945
   15944   15946   15945   15946   15947   15948   15947   15949
   15948   15949   15950   15951   15950   15952   15951   15952
   15953   15954   15953   15955   15954   15955   15956   15957
   15956   15958   15957   15958   15959   15960   15959   15961
   15960   15961   15962   15963   15962   15964   15963   15964
   15965   15966   15965   15967   15966   15967   15968   15969
   15968   15970   15969   15970   15971   15972   15971   15973
   15972   15973   15974   15975   15974   15976   15975   15976
   15977   15978   15977   15979   15978   15979   15980   15981
   15980   15982   15981   15982   15983   15984   15983   15985
   15984   15985   15986   15987   15986   15988   15987   15988
   15989   15990   15989   15991   15990   15991   15992   15993
   15992   15994   15993   15994   15995   15996   15995   15997
   15996   15997   15998   15999   15998   16000   15999   16000
   16001   16002   16001   16003   16002   16003   16004   16005
   16004   16006   16005   16006   16007   16008   16007   16009
   16008   16009   16010   16011   16010   16012   16011   16012
   16013   16014   16013   16015   16014   16015   16016   16017
   16016   16018   16017   16018   16019   16020   16019   16021
   16020   16021   16022   16023   16022   16024   16023   16024
   16025   16026   16025   16027   16026   16027   16028   16029
   16028   16030   16029   16030   16031   16032   16031   16033
   16032   16033   16034   16035   16034   16036   16035   16036
   16037   16038   16037   16039   16038   16039   16040   16041
   16040   16042   16041   16042   16043   16044   16043   16045
   16044   16045   16046   16047   16046   16048   16047   16048
   16049   16050   16049   16051   16050   16051   16052   16053
   16052   16054   16053   16054   16055   16056   16055   16057
   16056   16057   16058   16059   16058   16060   16059   16060
   16061   16062   16061   16063   16062   16063   16064   16065
   16064   16066   16065   16066   16067   16068   16067   16069
   16068   16069   16070   16071   16070   16072   16071   16072
   16073   16074   16073   16075   16074   16075   16076   16077
   16076   16078   16077   16078   16079   16080   16079   16081
   16080   16081   16082   16083   16082   16084   16083   16084
   16085   16086   16085   16087   16086   16087   16088   16089
   16088   16090   16089   16090   16091   16092   16091   16093
   16092   16093   16094   16095   16094   16096   16095   16096
   16097   16098   16097   16099   16098   16099   16100   16101
   16100   16102   16101   16102   16103   16104   16103   16105
   16104   16105   16106   16107   16106   16108   16107   16108
   16109   16110   16109   16111   16110   16111   16112   16113
   16112   16114   16113   16114   16115   16116   16115   16117
   16116   16117   16118   16119   16118   16120   16119   16120
   16121   16122   16121   16123   16122   16123   16124   16125
   16124   16126   16125   16126   16127   16128   16127   16129
   16128   16129   16130   16131   16130   16132   16131   16132
   16133   16134   16133   16135   16134   16135   16136   16137
   16136   16138   16137   16138   16139   16140   16139   16141
   16140   16141   16142   16143   16142   16144   16143   16144
   16145   16146   16145   16147   16146   16147   16148   16149
   16148   16150   16149   16150   16151   16152   16151   16153
   16152   16153   16154   16155   16154   16156   16155   16156
   16157   16158   16157   16159   16158   16159   16160   16161
   16160   16162   16161   16162   16163   16164   16163   16165
   16164   16165   16166   16167   16166   16168   16167   16168
   16169   16170   16169   16171   16170   16171   16172   16173
   16172   16174   16173   16174   16175   16176   16175   16177
   16176   16177   16178   16179   16178   16180   16179   16180
   16181   16182   16181   16183   16182   16183   16184   16185
   16184   16186   16185   16186   16187   16188   16187   16189
   16188   16189   16190   16191   16190   16192   16191   16192
   16193   16194   16193   16195   16194   16195   16196   16197
   16196   16198   16197   16198   16199   16200   16199   16201
   16200   16201   16202   16203   16202   16204   16203   16204
   16205   16206   16205   16207   16206   16207   16208   16209
   16208   16210   16209   16210   16211   16212   16211   16213
   16212   16213   16214   16215   16214   16216   16215   16216
   16217   16218   16217   16219   16218   16219   16220   16221
   16220   16222   16221   16222   16223   16224   16223   16225
   16224   16225   16226   16227   16226   16228   16227   16228
   16229   16230   16229   16231   16230   16231   16232   16233
   16232   16234   16233   16234   16235   16236   16235   16237
   16236   16237   16238   16239   16238   16240   16239   16240
   16241   16242   16241   16243   16242   16243   16244   16245
   16244   16246   16245   16246   16247   16248   16247   16249
   16248   16249   16250   16251   16250   16252   16251   16252
   16253   16254   16253   16255   16254   16255   16256   16257
   16256   16258   16257   16258   16259   16260   16259   16261
   16260   16261   16262   16263   16262   16264   16263   16264
   16265   16266   16265   16267   16266   16267   16268   16269
   16268   16270   16269   16270   16271   16272   16271   16273
   16272   16273   16274   16275   16274   16276   16275   16276
   16277   16278   16277   16279   16278   16279   16280   16281
   16280   16282   16281   16282   16283   16284   16283   16285
   16284   16285   16286   16287   16286   16288   16287   16288
   16289   16290   16289   16291   16290   16291   16292   16293
   16292   16294   16293   16294   16295   16296   16295   16297
   16296   16297   16298   16299   16298   16300   16299   16300
   16301   16302   16301   16303   16302   16303   16304   16305
   16304   16306   16305   16306   16307   16308   16307   16309
   16308   16309   16310   16311   16310   16312   16311   16312
   16313   16314   16313   16315   16314   16315   16316   16317
   16316   16318   16317   16318   16319   16320   16319   16321
   16320   16321   16322   16323   16322   16324   16323   16324
   16325   16326   16325   16327   16326   16327   16328   16329
   16328   16330   16329   16330   16331   16332   16331   16333
   16332   16333   16334   16335   16334   16336   16335   16336
   16337   16338   16337   16339   16338   16339   16340   16341
   16340   16342   16341   16342   16343   16344   16343   16345
   16344   16345   16346   16347   16346   16348   16347   16348
   16349   16350   16349   16351   16350   16351   16352   16353
   16352   16354   16353   16354   16355   16356   16355   16357
   16356   16357   16358   16359   16358   16360   16359   16360
   16361   16362   16361   16363   16362   16363   16364   16365
   16364   16366   16365   16366   16367   16368   16367   16369
   16368   16369   16370   16371   16370   16372   16371   16372
   16373   16374   16373   16375   16374   16375   16376   16377
   16376   16378   16377   16378   16379   16380   16379   16381
   16380   16381   16382   16383   16382   16384   16383   16384
   16385   16386   16385   16387   16386   16387   16388   16389
   16388   16390   16389   16390   16391   16392   16391   16393
   16392   16393   16394   16395   16394   16396   16395   16396
   16397   16398   16397   16399   16398   16399   16400   16401
   16400   16402   16401   16402   16403   16404   16403   16405
   16404   16405   16406   16407   16406   16408   16407   16408
   16409   16410   16409   16411   16410   16411   16412   16413
   16412   16414   16413   16414   16415   16416   16415   16417
   16416   16417   16418   16419   16418   16420   16419   16420
   16421   16422   16421   16423   16422   16423   16424   16425
   16424   16426   16425   16426   16427   16428   16427   16429
   16428   16429   16430   16431   16430   16432   16431   16432
   16433   16434   16433   16435   16434   16435   16436   16437
   16436   16438   16437   16438   16439   16440   16439   16441
   16440   16441   16442   16443   16442   16444   16443   16444
   16445   16446   16445   16447   16446   16447   16448   16449
   16448   16450   16449   16450   16451   16452   16451   16453
   16452   16453   16454   16455   16454   16456   16455   16456
   16457   16458   16457   16459   16458   16459   16460   16461
   16460   16462   16461   16462   16463   16464   16463   16465
   16464   16465   16466   16467   16466   16468   16467   16468
   16469   16470   16469   16471   16470   16471   16472   16473
   16472   16474   16473   16474   16475   16476   16475   16477
   16476   16477   16478   16479   16478   16480   16479   16480
   16481   16482   16481   16483   16482   16483   16484   16485
   16484   16486   16485   16486   16487   16488   16487   16489
   16488   16489   16490   16491   16490   16492   16491   16492
   16493   16494   16493   16495   16494   16495   16496   16497
   16496   16498   16497   16498   16499   16500   16499   16501
   16500   16501   16502   16503   16502   16504   16503   16504
   16505   16506   16505   16507   16506   16507   16508   16509
   16508   16510   16509   16510   16511   16512   16511   16513
   16512   16513   16514   16515   16514   16516   16515   16516
   16517   16518   16517   16519   16518   16519   16520   16521
   16520   16522   16521   16522   16523   16524   16523   16525
   16524   16525   16526   16527   16526   16528   16527   16528
   16529   16530   16529   16531   16530   16531   16532   16533
   16532   16534   16533   16534   16535   16536   16535   16537
   16536   16537   16538   16539   16538   16540   16539   16540
   16541   16542   16541   16543   16542   16543   16544   16545
   16544   16546   16545   16546   16547   16548   16547   16549
   16548   16549   16550   16551   16550   16552   16551   16552
   16553   16554   16553   16555   16554   16555   16556   16557
   16556   16558   16557   16558   16559   16560   16559   16561
   16560   16561   16562   16563   16562   16564   16563   16564
   16565   16566   16565   16567   16566   16567   16568   16569
   16568   16570   16569   16570   16571   16572   16571   16573
   16572   16573   16574   16575   16574   16576   16575   16576
   16577   16578   16577   16579   16578   16579   16580   16581
   16580   16582   16581   16582   16583   16584   16583   16585
   16584   16585   16586   16587   16586   16588   16587   16588
   16589   16590   16589   16591   16590   16591   16592   16593
   16592   16594   16593   16594   16595   16596   16595   16597
   16596   16597   16598   16599   16598   16600   16599   16600
   16601   16602   16601   16603   16602   16603   16604   16605
   16604   16606   16605   16606   16607   16608   16607   16609
   16608   16609   16610   16611   16610   16612   16611   16612
   16613   16614   16613   16615   16614   16615   16616   16617
   16616   16618   16617   16618   16619   16620   16619   16621
   16620   16621   16622   16623   16622   16624   16623   16624
   16625   16626   16625   16627   16626   16627   16628   16629
   16628   16630   16629   16630   16631   16632   16631   16633
   16632   16633   16634   16635   16634   16636   16635   16636
   16637   16638   16637   16639   16638   16639   16640   16641
   16640   16642   16641   16642   16643   16644   16643   16645
   16644   16645   16646   16647   16646   16648   16647   16648
   16649   16650   16649   16651   16650   16651   16652   16653
   16652   16654   16653   16654   16655   16656   16655   16657
   16656   16657   16658   16659   16658   16660   16659   16660
   16661   16662   16661   16663   16662   16663   16664   16665
   16664   16666   16665   16666   16667   16668   16667   16669
   16668   16669   16670   16671   16670   16672   16671   16672
   16673   16674   16673   16675   16674   16675   16676   16677
   16676   16678   16677   16678   16679   16680   16679   16681
   16680   16681   16682   16683   16682   16684   16683   16684
   16685   16686   16685   16687   16686   16687   16688   16689
   16688   16690   16689   16690   16691   16692   16691   16693
   16692   16693   16694   16695   16694   16696   16695   16696
   16697   16698   16697   16699   16698   16699   16700   16701
   16700   16702   16701   16702   16703   16704   16703   16705
   16704   16705   16706   16707   16706   16708   16707   16708
   16709   16710   16709   16711   16710   16711   16712   16713
   16712   16714   16713   16714   16715   16716   16715   16717
   16716   16717   16718   16719   16718   16720   16719   16720
   16721   16722   16721   16723   16722   16723   16724   16725
   16724   16726   16725   16726   16727   16728   16727   16729
   16728   16729   16730   16731   16730   16732   16731   16732
   16733   16734   16733   16735   16734   16735   16736   16737
   16736   16738   16737   16738   16739   16740   16739   16741
   16740   16741   16742   16743   16742   16744   16743   16744
   16745   16746   16745   16747   16746   16747   16748   16749
   16748   16750   16749   16750   16751   16752   16751   16753
   16752   16753   16754   16755   16754   16756   16755   16756
   16757   16758   16757   16759   16758   16759   16760   16761
   16760   16762   16761   16762   16763   16764   16763   16765
   16764   16765   16766   16767   16766   16768   16767   16768
   16769   16770   16769   16771   16770   16771   16772   16773
   16772   16774   16773   16774   16775   16776   16775   16777
   16776   16777   16778   16779   16778   16780   16779   16780
   16781   16782   16781   16783   16782   16783   16784   16785
   16784   16786   16785   16786   16787   16788   16787   16789
   16788   16789   16790   16791   16790   16792   16791   16792
   16793   16794   16793   16795   16794   16795   16796   16797
   16796   16798   16797   16798   16799   16800   16799   16801
   16800   16801   16802   16803   16802   16804   16803   16804
   16805   16806   16805   16807   16806   16807   16808   16809
   16808   16810   16809   16810   16811   16812   16811   16813
   16812   16813   16814   16815   16814   16816   16815   16816
   16817   16818   16817   16819   16818   16819   16820   16821
   16820   16822   16821   16822   16823   16824   16823   16825
   16824   16825   16826   16827   16826   16828   16827   16828
   16829   16830   16829   16831   16830   16831   16832   16833
   16832   16834   16833   16834   16835   16836   16835   16837
   16836   16837   16838   16839   16838   16840   16839   16840
   16841   16842   16841   16843   16842   16843   16844   16845
   16844   16846   16845   16846   16847   16848   16847   16849
   16848   16849   16850   16851   16850   16852   16851   16852
   16853   16854   16853   16855   16854   16855   16856   16857
   16856   16858   16857   16858   16859   16860   16859   16861
   16860   16861   16862   16863   16862   16864   16863   16864
   16865   16866   16865   16867   16866   16867   16868   16869
   16868   16870   16869   16870   16871   16872   16871   16873
   16872   16873   16874   16875   16874   16876   16875   16876
   16877   16878   16877   16879   16878   16879   16880   16881
   16880   16882   16881   16882   16883   16884   16883   16885
   16884   16885   16886   16887   16886   16888   16887   16888
   16889   16890   16889   16891   16890   16891   16892   16893
   16892   16894   16893   16894   16895   16896   16895   16897
   16896   16897   16898   16899   16898   16900   16899   16900
   16901   16902   16901   16903   16902   16903   16904   16905
   16904   16906   16905   16906   16907   16908   16907   16909
   16908   16909   16910   16911   16910   16912   16911   16912
   16913   16914   16913   16915   16914   16915   16916   16917
   16916   16918   16917   16918   16919   16920   16919   16921
   16920   16921   16922   16923   16922   16924   16923   16924
   16925   16926   16925   16927   16926   16927   16928   16929
   16928   16930   16929   16930   16931   16932   16931   16933
   16932   16933   16934   16935   16934   16936   16935   16936
   16937   16938   16937   16939   16938   16939   16940   16941
   16940   16942   16941   16942   16943   16944   16943   16945
   16944   16945   16946   16947   16946   16948   16947   16948
   16949   16950   16949   16951   16950   16951   16952   16953
   16952   16954   16953   16954   16955   16956   16955   16957
   16956   16957   16958   16959   16958   16960   16959   16960
   16961   16962   16961   16963   16962   16963   16964   16965
   16964   16966   16965   16966   16967   16968   16967   16969
   16968   16969   16970   16971   16970   16972   16971   16972
   16973   16974   16973   16975   16974   16975   16976   16977
   16976   16978   16977   16978   16979   16980   16979   16981
   16980   16981   16982   16983   16982   16984   16983   16984
   16985   16986   16985   16987   16986   16987   16988   16989
   16988   16990   16989   16990   16991   16992   16991   16993
   16992   16993   16994   16995   16994   16996   16995   16996
   16997   16998   16997   16999   16998   16999   17000   17001
   17000   17002   17001   17002   17003   17004   17003   17005
   17004   17005   17006   17007   17006   17008   17007   17008
   17009   17010   17009   17011   17010   17011   17012   17013
   17012   17014   17013   17014   17015   17016   17015   17017
   17016   17017   17018   17019   17018   17020   17019   17020
   17021   17022   17021   17023   17022   17023   17024   17025
   17024   17026   17025   17026   17027   17028   17027   17029
   17028   17029   17030   17031   17030   17032   17031   17032
   17033   17034   17033   17035   17034   17035   17036   17037
   17036   17038   17037   17038   17039   17040   17039   17041
   17040   17041   17042   17043   17042   17044   17043   17044
   17045   17046   17045   17047   17046   17047   17048   17049
   17048   17050   17049   17050   17051   17052   17051   17053
   17052   17053   17054   17055   17054   17056   17055   17056
   17057   17058   17057   17059   17058   17059   17060   17061
   17060   17062   17061   17062   17063   17064   17063   17065
   17064   17065   17066   17067   17066   17068   17067   17068
   17069   17070   17069   17071   17070   17071   17072   17073
   17072   17074   17073   17074   17075   17076   17075   17077
   17076   17077   17078   17079   17078   17080   17079   17080
   17081   17082   17081   17083   17082   17083   17084   17085
   17084   17086   17085   17086   17087   17088   17087   17089
   17088   17089   17090   17091   17090   17092   17091   17092
   17093   17094   17093   17095   17094   17095   17096   17097
   17096   17098   17097   17098   17099   17100   17099   17101
   17100   17101   17102   17103   17102   17104   17103   17104
   17105   17106   17105   17107   17106   17107   17108   17109
   17108   17110   17109   17110   17111   17112   17111   17113
   17112   17113   17114   17115   17114   17116   17115   17116
   17117   17118   17117   17119   17118   17119   17120   17121
   17120   17122   17121   17122   17123   17124   17123   17125
   17124   17125   17126   17127   17126   17128   17127   17128
   17129   17130   17129   17131   17130   17131   17132   17133
   17132   17134   17133   17134   17135   17136   17135   17137
   17136   17137   17138   17139   17138   17140   17139   17140
   17141   17142   17141   17143   17142   17143   17144   17145
   17144   17146   17145   17146   17147   17148   17147   17149
   17148   17149   17150   17151   17150   17152   17151   17152
   17153   17154   17153   17155   17154   17155   17156   17157
   17156   17158   17157   17158   17159   17160   17159   17161
   17160   17161   17162   17163   17162   17164   17163   17164
   17165   17166   17165   17167   17166   17167   17168   17169
   17168   17170   17169   17170   17171   17172   17171   17173
   17172   17173   17174   17175   17174   17176   17175   17176
   17177   17178   17177   17179   17178   17179   17180   17181
   17180   17182   17181   17182   17183   17184   17183   17185
   17184   17185   17186   17187   17186   17188   17187   17188
   17189   17190   17189   17191   17190   17191   17192   17193
   17192   17194   17193   17194   17195   17196   17195   17197
   17196   17197   17198   17199   17198   17200   17199   17200
   17201   17202   17201   17203   17202   17203   17204   17205
   17204   17206   17205   17206   17207   17208   17207   17209
   17208   17209   17210   17211   17210   17212   17211   17212
   17213   17214   17213   17215   17214   17215   17216   17217
   17216   17218   17217   17218   17219   17220   17219   17221
   17220   17221   17222   17223   17222   17224   17223   17224
   17225   17226   17225   17227   17226   17227   17228   17229
   17228   17230   17229   17230   17231   17232   17231   17233
   17232   17233   17234   17235   17234   17236   17235   17236
   17237   17238   17237   17239   17238   17239   17240   17241
   17240   17242   17241   17242   17243   17244   17243   17245
   17244   17245   17246   17247   17246   17248   17247   17248
   17249   17250   17249   17251   17250   17251   17252   17253
   17252   17254   17253   17254   17255   17256   17255   17257
   17256   17257   17258   17259   17258   17260   17259   17260
   17261   17262   17261   17263   17262   17263   17264   17265
   17264   17266   17265   17266   17267   17268   17267   17269
   17268   17269   17270   17271   17270   17272   17271   17272
   17273   17274   17273   17275   17274   17275   17276   17277
   17276   17278   17277   17278   17279   17280   17279   17281
   17280   17281   17282   17283   17282   17284   17283   17284
   17285   17286   17285   17287   17286   17287   17288   17289
   17288   17290   17289   17290   17291   17292   17291   17293
   17292   17293   17294   17295   17294   17296   17295   17296
   17297   17298   17297   17299   17298   17299   17300   17301
   17300   17302   17301   17302   17303   17304   17303   17305
   17304   17305   17306   17307   17306   17308   17307   17308
   17309   17310   17309   17311   17310   17311   17312   17313
   17312   17314   17313   17314   17315   17316   17315   17317
   17316   17317   17318   17319   17318   17320   17319   17320
   17321   17322   17321   17323   17322   17323   17324   17325
   17324   17326   17325   17326   17327   17328   17327   17329
   17328   17329   17330   17331   17330   17332   17331   17332
   17333   17334   17333   17335   17334   17335   17336   17337
   17336   17338   17337   17338   17339   17340   17339   17341
   17340   17341   17342   17343   17342   17344   17343   17344
   17345   17346   17345   17347   17346   17347   17348   17349
   17348   17350   17349   17350   17351   17352   17351   17353
   17352   17353   17354   17355   17354   17356   17355   17356
   17357   17358   17357   17359   17358   17359   17360   17361
   17360   17362   17361   17362   17363   17364   17363   17365
   17364   17365   17366   17367   17366   17368   17367   17368
   17369   17370   17369   17371   17370   17371   17372   17373
   17372   17374   17373   17374   17375   17376   17375   17377
   17376   17377   17378   17379   17378   17380   17379   17380
   17381   17382   17381   17383   17382   17383   17384   17385
   17384   17386   17385   17386   17387   17388   17387   17389
   17388   17389   17390   17391   17390   17392   17391   17392
   17393   17394   17393   17395   17394   17395   17396   17397
   17396   17398   17397   17398   17399   17400   17399   17401
   17400   17401   17402   17403   17402   17404   17403   17404
   17405   17406   17405   17407   17406   17407   17408   17409
   17408   17410   17409   17410   17411   17412   17411   17413
   17412   17413   17414   17415   17414   17416   17415   17416
   17417   17418   17417   17419   17418   17419   17420   17421
   17420   17422   17421   17422   17423   17424   17423   17425
   17424   17425   17426   17427   17426   17428   17427   17428
   17429   17430   17429   17431   17430   17431   17432   17433
   17432   17434   17433   17434   17435   17436   17435   17437
   17436   17437   17438   17439   17438   17440   17439   17440
   17441   17442   17441   17443   17442   17443   17444   17445
   17444   17446   17445   17446   17447   17448   17447   17449
   17448   17449   17450   17451   17450   17452   17451   17452
   17453   17454   17453   17455   17454   17455   17456   17457
   17456   17458   17457   17458   17459   17460   17459   17461
   17460   17461   17462   17463   17462   17464   17463   17464
   17465   17466   17465   17467   17466   17467   17468   17469
   17468   17470   17469   17470   17471   17472   17471   17473
   17472   17473   17474   17475   17474   17476   17475   17476
   17477   17478   17477   17479   17478   17479   17480   17481
   17480   17482   17481   17482   17483   17484   17483   17485
   17484   17485   17486   17487   17486   17488   17487   17488
   17489   17490   17489   17491   17490   17491   17492   17493
   17492   17494   17493   17494   17495   17496   17495   17497
   17496   17497   17498   17499   17498   17500   17499   17500
   17501   17502   17501   17503   17502   17503   17504   17505
   17504   17506   17505   17506   17507   17508   17507   17509
   17508   17509   17510   17511   17510   17512   17511   17512
   17513   17514   17513   17515   17514   17515   17516   17517
   17516   17518   17517   17518   17519   17520   17519   17521
   17520   17521   17522   17523   17522   17524   17523   17524
   17525   17526   17525   17527   17526   17527   17528   17529
   17528   17530   17529   17530   17531   17532   17531   17533
   17532   17533   17534   17535   17534   17536   17535   17536
   17537   17538   17537   17539   17538   17539   17540   17541
   17540   17542   17541   17542   17543   17544   17543   17545
   17544   17545   17546   17547   17546   17548   17547   17548
   17549   17550   17549   17551   17550   17551   17552   17553
   17552   17554   17553   17554   17555   17556   17555   17557
   17556   17557   17558   17559   17558   17560   17559   17560
   17561   17562   17561   17563   17562   17563   17564   17565
   17564   17566   17565   17566   17567   17568   17567   17569
   17568   17569   17570   17571   17570   17572   17571   17572
   17573   17574   17573   17575   17574   17575   17576   17577
   17576   17578   17577   17578   17579   17580   17579   17581
   17580   17581   17582   17583   17582   17584   17583   17584
   17585   17586   17585   17587   17586   17587   17588   17589
   17588   17590   17589   17590   17591   17592   17591   17593
   17592   17593   17594   17595   17594   17596   17595   17596
   17597   17598   17597   17599   17598   17599   17600   17601
   17600   17602   17601   17602   17603   17604   17603   17605
   17604   17605   17606   17607   17606   17608   17607   17608
   17609   17610   17609   17611   17610   17611   17612   17613
   17612   17614   17613   17614   17615   17616   17615   17617
   17616   17617   17618   17619   17618   17620   17619   17620
   17621   17622   17621   17623   17622   17623   17624   17625
   17624   17626   17625   17626   17627   17628   17627   17629
   17628   17629   17630   17631   17630   17632   17631   17632
   17633   17634   17633   17635   17634   17635   17636   17637
   17636   17638   17637   17638   17639   17640   17639   17641
   17640   17641   17642   17643   17642   17644   17643   17644
   17645   17646   17645   17647   17646   17647   17648   17649
   17648   17650   17649   17650   17651   17652   17651   17653
   17652   17653   17654   17655   17654   17656   17655   17656
   17657   17658   17657   17659   17658   17659   17660   17661
   17660   17662   17661   17662   17663   17664   17663   17665
   17664   17665   17666   17667   17666   17668   17667   17668
   17669   17670   17669   17671   17670   17671   17672   17673
   17672   17674   17673   17674   17675   17676   17675   17677
   17676   17677   17678   17679   17678   17680   17679   17680
   17681   17682   17681   17683   17682   17683   17684   17685
   17684   17686   17685   17686   17687   17688   17687   17689
   17688   17689   17690   17691   17690   17692   17691   17692
   17693   17694   17693   17695   17694   17695   17696   17697
   17696   17698   17697   17698   17699   17700   17699   17701
   17700   17701   17702   17703   17702   17704   17703   17704
   17705   17706   17705   17707   17706   17707   17708   17709
   17708   17710   17709   17710   17711   17712   17711   17713
   17712   17713   17714   17715   17714   17716   17715   17716
   17717   17718   17717   17719   17718   17719   17720   17721
   17720   17722   17721   17722   17723   17724   17723   17725
   17724   17725   17726   17727   17726   17728   17727   17728
   17729   17730   17729   17731   17730   17731   17732   17733
   17732   17734   17733   17734   17735   17736   17735   17737
   17736   17737   17738   17739   17738   17740   17739   17740
   17741   17742   17741   17743   17742   17743   17744   17745
   17744   17746   17745   17746   17747   17748   17747   17749
   17748   17749   17750   17751   17750   17752   17751   17752
   17753   17754   17753   17755   17754   17755   17756   17757
   17756   17758   17757   17758   17759   17760   17759   17761
   17760   17761   17762   17763   17762   17764   17763   17764
   17765   17766   17765   17767   17766   17767   17768   17769
   17768   17770   17769   17770   17771   17772   17771   17773
   17772   17773   17774   17775   17774   17776   17775   17776
   17777   17778   17777   17779   17778   17779   17780   17781
   17780   17782   17781   17782   17783   17784   17783   17785
   17784   17785   17786   17787   17786   17788   17787   17788
   17789   17790   17789   17791   17790   17791   17792   17793
   17792   17794   17793   17794   17795   17796   17795   17797
   17796   17797   17798   17799   17798   17800   17799   17800
   17801   17802   17801   17803   17802   17803   17804   17805
   17804   17806   17805   17806   17807   17808   17807   17809
   17808   17809   17810   17811   17810   17812   17811   17812
   17813   17814   17813   17815   17814   17815   17816   17817
   17816   17818   17817   17818   17819   17820   17819   17821
   17820   17821   17822   17823   17822   17824   17823   17824
   17825   17826   17825   17827   17826   17827   17828   17829
   17828   17830   17829   17830   17831   17832   17831   17833
   17832   17833   17834   17835   17834   17836   17835   17836
   17837   17838   17837   17839   17838   17839   17840   17841
   17840   17842   17841   17842   17843   17844   17843   17845
   17844   17845   17846   17847   17846   17848   17847   17848
   17849   17850   17849   17851   17850   17851   17852   17853
   17852   17854   17853   17854   17855   17856   17855   17857
   17856   17857   17858   17859   17858   17860   17859   17860
   17861   17862   17861   17863   17862   17863   17864   17865
   17864   17866   17865   17866   17867   17868   17867   17869
   17868   17869   17870   17871   17870   17872   17871   17872
   17873   17874   17873   17875   17874   17875   17876   17877
   17876   17878   17877   17878   17879   17880   17879   17881
   17880   17881   17882   17883   17882   17884   17883   17884
   17885   17886   17885   17887   17886   17887   17888   17889
   17888   17890   17889   17890   17891   17892   17891   17893
   17892   17893   17894   17895   17894   17896   17895   17896
   17897   17898   17897   17899   17898   17899   17900   17901
   17900   17902   17901   17902   17903   17904   17903   17905
   17904   17905   17906   17907   17906   17908   17907   17908
   17909   17910   17909   17911   17910   17911   17912   17913
   17912   17914   17913   17914   17915   17916   17915   17917
   17916   17917   17918   17919   17918   17920   17919   17920
   17921   17922   17921   17923   17922   17923   17924   17925
   17924   17926   17925   17926   17927   17928   17927   17929
   17928   17929   17930   17931   17930   17932   17931   17932
   17933   17934   17933   17935   17934   17935   17936   17937
   17936   17938   17937   17938   17939   17940   17939   17941
   17940   17941   17942   17943   17942   17944   17943   17944
   17945   17946   17945   17947   17946   17947   17948   17949
   17948   17950   17949   17950   17951   17952   17951   17953
   17952   17953   17954   17955   17954   17956   17955   17956
   17957   17958   17957   17959   17958   17959   17960   17961
   17960   17962   17961   17962   17963   17964   17963   17965
   17964   17965   17966   17967   17966   17968   17967   17968
   17969   17970   17969   17971   17970   17971   17972   17973
   17972   17974   17973   17974   17975   17976   17975   17977
   17976   17977   17978   17979   17978   17980   17979   17980
   17981   17982   17981   17983   17982   17983   17984   17985
   17984   17986   17985   17986   17987   17988   17987   17989
   17988   17989   17990   17991   17990   17992   17991   17992
   17993   17994   17993   17995   17994   17995   17996   17997
   17996   17998   17997   17998   17999   18000   17999   18001
   18000   18001   18002   18003   18002   18004   18003   18004
   18005   18006   18005   18007   18006   18007   18008   18009
   18008   18010   18009   18010   18011   18012   18011   18013
   18012   18013   18014   18015   18014   18016   18015   18016
   18017   18018   18017   18019   18018   18019   18020   18021
   18020   18022   18021   18022   18023   18024   18023   18025
   18024   18025   18026   18027   18026   18028   18027   18028
   18029   18030   18029   18031   18030   18031   18032   18033
   18032   18034   18033   18034   18035   18036   18035   18037
   18036   18037   18038   18039   18038   18040   18039   18040
   18041   18042   18041   18043   18042   18043   18044   18045
   18044   18046   18045   18046   18047   18048   18047   18049
   18048   18049   18050   18051   18050   18052   18051   18052
   18053   18054   18053   18055   18054   18055   18056   18057
   18056   18058   18057   18058   18059   18060   18059   18061
   18060   18061   18062   18063   18062   18064   18063   18064
   18065   18066   18065   18067   18066   18067   18068   18069
   18068   18070   18069   18070   18071   18072   18071   18073
   18072   18073   18074   18075   18074   18076   18075   18076
   18077   18078   18077   18079   18078   18079   18080   18081
   18080   18082   18081   18082   18083   18084   18083   18085
   18084   18085   18086   18087   18086   18088   18087   18088
   18089   18090   18089   18091   18090   18091   18092   18093
   18092   18094   18093   18094   18095   18096   18095   18097
   18096   18097   18098   18099   18098   18100   18099   18100
   18101   18102   18101   18103   18102   18103   18104   18105
   18104   18106   18105   18106   18107   18108   18107   18109
   18108   18109   18110   18111   18110   18112   18111   18112
   18113   18114   18113   18115   18114   18115   18116   18117
   18116   18118   18117   18118   18119   18120   18119   18121
   18120   18121   18122   18123   18122   18124   18123   18124
   18125   18126   18125   18127   18126   18127   18128   18129
   18128   18130   18129   18130   18131   18132   18131   18133
   18132   18133   18134   18135   18134   18136   18135   18136
   18137   18138   18137   18139   18138   18139   18140   18141
   18140   18142   18141   18142   18143   18144   18143   18145
   18144   18145   18146   18147   18146   18148   18147   18148
   18149   18150   18149   18151   18150   18151   18152   18153
   18152   18154   18153   18154   18155   18156   18155   18157
   18156   18157   18158   18159   18158   18160   18159   18160
   18161   18162   18161   18163   18162   18163   18164   18165
   18164   18166   18165   18166   18167   18168   18167   18169
   18168   18169   18170   18171   18170   18172   18171   18172
   18173   18174   18173   18175   18174   18175   18176   18177
   18176   18178   18177   18178   18179   18180   18179   18181
   18180   18181   18182   18183   18182   18184   18183   18184
   18185   18186   18185   18187   18186   18187   18188   18189
   18188   18190   18189   18190   18191   18192   18191   18193
   18192   18193   18194   18195   18194   18196   18195   18196
   18197   18198   18197   18199   18198   18199   18200   18201
   18200   18202   18201   18202   18203   18204   18203   18205
   18204   18205   18206   18207   18206   18208   18207   18208
   18209   18210   18209   18211   18210   18211   18212   18213
   18212   18214   18213   18214   18215   18216   18215   18217
   18216   18217   18218   18219   18218   18220   18219   18220
   18221   18222   18221   18223   18222   18223   18224   18225
   18224   18226   18225   18226   18227   18228   18227   18229
   18228   18229   18230   18231   18230   18232   18231   18232
   18233   18234   18233   18235   18234   18235   18236   18237
   18236   18238   18237   18238   18239   18240   18239   18241
   18240   18241   18242   18243   18242   18244   18243   18244
   18245   18246   18245   18247   18246   18247   18248   18249
   18248   18250   18249   18250   18251   18252   18251   18253
   18252   18253   18254   18255   18254   18256   18255   18256
   18257   18258   18257   18259   18258   18259   18260   18261
   18260   18262   18261   18262   18263   18264   18263   18265
   18264   18265   18266   18267   18266   18268   18267   18268
   18269   18270   18269   18271   18270   18271   18272   18273
   18272   18274   18273   18274   18275   18276   18275   18277
   18276   18277   18278   18279   18278   18280   18279   18280
   18281   18282   18281   18283   18282   18283   18284   18285
   18284   18286   18285   18286   18287   18288   18287   18289
   18288   18289   18290   18291   18290   18292   18291   18292
   18293   18294   18293   18295   18294   18295   18296   18297
   18296   18298   18297   18298   18299   18300   18299   18301
   18300   18301   18302   18303   18302   18304   18303   18304
   18305   18306   18305   18307   18306   18307   18308   18309
   18308   18310   18309   18310   18311   18312   18311   18313
   18312   18313   18314   18315   18314   18316   18315   18316
   18317   18318   18317   18319   18318   18319   18320   18321
   18320   18322   18321   18322   18323   18324   18323   18325
   18324   18325   18326   18327   18326   18328   18327   18328
   18329   18330   18329   18331   18330   18331   18332   18333
   18332   18334   18333   18334   18335   18336   18335   18337
   18336   18337   18338   18339   18338   18340   18339   18340
   18341   18342   18341   18343   18342   18343   18344   18345
   18344   18346   18345   18346   18347   18348   18347   18349
   18348   18349   18350   18351   18350   18352   18351   18352
   18353   18354   18353   18355   18354   18355   18356   18357
   18356   18358   18357   18358   18359   18360   18359   18361
   18360   18361   18362   18363   18362   18364   18363   18364
   18365   18366   18365   18367   18366   18367   18368   18369
   18368   18370   18369   18370   18371   18372   18371   18373
   18372   18373   18374   18375   18374   18376   18375   18376
   18377   18378   18377   18379   18378   18379   18380   18381
   18380   18382   18381   18382   18383   18384   18383   18385
   18384   18385   18386   18387   18386   18388   18387   18388
   18389   18390   18389   18391   18390   18391   18392   18393
   18392   18394   18393   18394   18395   18396   18395   18397
   18396   18397   18398   18399   18398   18400   18399   18400
   18401   18402   18401   18403   18402   18403   18404   18405
   18404   18406   18405   18406   18407   18408   18407   18409
   18408   18409   18410   18411   18410   18412   18411   18412
   18413   18414   18413   18415   18414   18415   18416   18417
   18416   18418   18417   18418   18419   18420   18419   18421
   18420   18421   18422   18423   18422   18424   18423   18424
   18425   18426   18425   18427   18426   18427   18428   18429
   18428   18430   18429   18430   18431   18432   18431   18433
   18432   18433   18434   18435   18434   18436   18435   18436
   18437   18438   18437   18439   18438   18439   18440   18441
   18440   18442   18441   18442   18443   18444   18443   18445
   18444   18445   18446   18447   18446   18448   18447   18448
   18449   18450   18449   18451   18450   18451   18452   18453
   18452   18454   18453   18454   18455   18456   18455   18457
   18456   18457   18458   18459   18458   18460   18459   18460
   18461   18462   18461   18463   18462   18463   18464   18465
   18464   18466   18465   18466   18467   18468   18467   18469
   18468   18469   18470   18471   18470   18472   18471   18472
   18473   18474   18473   18475   18474   18475   18476   18477
   18476   18478   18477   18478   18479   18480   18479   18481
   18480   18481   18482   18483   18482   18484   18483   18484
   18485   18486   18485   18487   18486   18487   18488   18489
   18488   18490   18489   18490   18491   18492   18491   18493
   18492   18493   18494   18495   18494   18496   18495   18496
   18497   18498   18497   18499   18498   18499   18500   18501
   18500   18502   18501   18502   18503   18504   18503   18505
   18504   18505   18506   18507   18506   18508   18507   18508
   18509   18510   18509   18511   18510   18511   18512   18513
   18512   18514   18513   18514   18515   18516   18515   18517
   18516   18517   18518   18519   18518   18520   18519   18520
   18521   18522   18521   18523   18522   18523   18524   18525
   18524   18526   18525   18526   18527   18528   18527   18529
   18528   18529   18530   18531   18530   18532   18531   18532
   18533   18534   18533   18535   18534   18535   18536   18537
   18536   18538   18537   18538   18539   18540   18539   18541
   18540   18541   18542   18543   18542   18544   18543   18544
   18545   18546   18545   18547   18546   18547   18548   18549
   18548   18550   18549   18550   18551   18552   18551   18553
   18552   18553   18554   18555   18554   18556   18555   18556
   18557   18558   18557   18559   18558   18559   18560   18561
   18560   18562   18561   18562   18563   18564   18563   18565
   18564   18565   18566   18567   18566   18568   18567   18568
   18569   18570   18569   18571   18570   18571   18572   18573
   18572   18574   18573   18574   18575   18576   18575   18577
   18576   18577   18578   18579   18578   18580   18579   18580
   18581   18582   18581   18583   18582   18583   18584   18585
   18584   18586   18585   18586   18587   18588   18587   18589
   18588   18589   18590   18591   18590   18592   18591   18592
   18593   18594   18593   18595   18594   18595   18596   18597
   18596   18598   18597   18598   18599   18600   18599   18601
   18600   18601   18602   18603   18602   18604   18603   18604
   18605   18606   18605   18607   18606   18607   18608   18609
   18608   18610   18609   18610   18611   18612   18611   18613
   18612   18613   18614   18615   18614   18616   18615   18616
   18617   18618   18617   18619   18618   18619   18620   18621
   18620   18622   18621   18622   18623   18624   18623   18625
   18624   18625   18626   18627   18626   18628   18627   18628
   18629   18630   18629   18631   18630   18631   18632   18633
   18632   18634   18633   18634   18635   18636   18635   18637
   18636   18637   18638   18639   18638   18640   18639   18640
   18641   18642   18641   18643   18642   18643   18644   18645
   18644   18646   18645   18646   18647   18648   18647   18649
   18648   18649   18650   18651   18650   18652   18651   18652
   18653   18654   18653   18655   18654   18655   18656   18657
   18656   18658   18657   18658   18659   18660   18659   18661
   18660   18661   18662   18663   18662   18664   18663   18664
   18665   18666   18665   18667   18666   18667   18668   18669
   18668   18670   18669   18670   18671   18672   18671   18673
   18672   18673   18674   18675   18674   18676   18675   18676
   18677   18678   18677   18679   18678   18679   18680   18681
   18680   18682   18681   18682   18683   18684   18683   18685
   18684   18685   18686   18687   18686   18688   18687   18688
   18689   18690   18689   18691   18690   18691   18692   18693
   18692   18694   18693   18694   18695   18696   18695   18697
   18696   18697   18698   18699   18698   18700   18699   18700
   18701   18702   18701   18703   18702   18703   18704   18705
   18704   18706   18705   18706   18707   18708   18707   18709
   18708   18709   18710   18711   18710   18712   18711   18712
   18713   18714   18713   18715   18714   18715   18716   18717
   18716   18718   18717   18718   18719   18720   18719   18721
   18720   18721   18722   18723   18722   18724   18723   18724
   18725   18726   18725   18727   18726   18727   18728   18729
   18728   18730   18729   18730   18731   18732   18731   18733
   18732   18733   18734   18735   18734   18736   18735   18736
   18737   18738   18737   18739   18738   18739   18740   18741
   18740   18742   18741   18742   18743   18744   18743   18745
   18744   18745   18746   18747   18746   18748   18747   18748
   18749   18750   18749   18751   18750   18751   18752   18753
   18752   18754   18753   18754   18755   18756   18755   18757
   18756   18757   18758   18759   18758   18760   18759   18760
   18761   18762   18761   18763   18762   18763   18764   18765
   18764   18766   18765   18766   18767   18768   18767   18769
   18768   18769   18770   18771   18770   18772   18771   18772
   18773   18774   18773   18775   18774   18775   18776   18777
   18776   18778   18777   18778   18779   18780   18779   18781
   18780   18781   18782   18783   18782   18784   18783   18784
   18785   18786   18785   18787   18786   18787   18788   18789
   18788   18790   18789   18790   18791   18792   18791   18793
   18792   18793   18794   18795   18794   18796   18795   18796
   18797   18798   18797   18799   18798   18799   18800   18801
   18800   18802   18801   18802   18803   18804   18803   18805
   18804   18805   18806   18807   18806   18808   18807   18808
   18809   18810   18809   18811   18810   18811   18812   18813
   18812   18814   18813   18814   18815   18816   18815   18817
   18816   18817   18818   18819   18818   18820   18819   18820
   18821   18822   18821   18823   18822   18823   18824   18825
   18824   18826   18825   18826   18827   18828   18827   18829
   18828   18829   18830   18831   18830   18832   18831   18832
   18833   18834   18833   18835   18834   18835   18836   18837
   18836   18838   18837   18838   18839   18840   18839   18841
   18840   18841   18842   18843   18842   18844   18843   18844
   18845   18846   18845   18847   18846   18847   18848   18849
   18848   18850   18849   18850   18851   18852   18851   18853
   18852   18853   18854   18855   18854   18856   18855   18856
   18857   18858   18857   18859   18858   18859   18860   18861
   18860   18862   18861   18862   18863   18864   18863   18865
   18864   18865   18866   18867   18866   18868   18867   18868
   18869   18870   18869   18871   18870   18871   18872   18873
   18872   18874   18873   18874   18875   18876   18875   18877
   18876   18877   18878   18879   18878   18880   18879   18880
   18881   18882   18881   18883   18882   18883   18884   18885
   18884   18886   18885   18886   18887   18888   18887   18889
   18888   18889   18890   18891   18890   18892   18891   18892
   18893   18894   18893   18895   18894   18895   18896   18897
   18896   18898   18897   18898   18899   18900   18899   18901
   18900   18901   18902   18903   18902   18904   18903   18904
   18905   18906   18905   18907   18906   18907   18908   18909
   18908   18910   18909   18910   18911   18912   18911   18913
   18912   18913   18914   18915   18914   18916   18915   18916
   18917   18918   18917   18919   18918   18919   18920   18921
   18920   18922   18921   18922   18923   18924   18923   18925
   18924   18925   18926   18927   18926   18928   18927   18928
   18929   18930   18929   18931   18930   18931   18932   18933
   18932   18934   18933   18934   18935   18936   18935   18937
   18936   18937   18938   18939   18938   18940   18939   18940
   18941   18942   18941   18943   18942   18943   18944   18945
   18944   18946   18945   18946   18947   18948   18947   18949
   18948   18949   18950   18951   18950   18952   18951   18952
   18953   18954   18953   18955   18954   18955   18956   18957
   18956   18958   18957   18958   18959   18960   18959   18961
   18960   18961   18962   18963   18962   18964   18963   18964
   18965   18966   18965   18967   18966   18967   18968   18969
   18968   18970   18969   18970   18971   18972   18971   18973
   18972   18973   18974   18975   18974   18976   18975   18976
   18977   18978   18977   18979   18978   18979   18980   18981
   18980   18982   18981   18982   18983   18984   18983   18985
   18984   18985   18986   18987   18986   18988   18987   18988
   18989   18990   18989   18991   18990   18991   18992   18993
   18992   18994   18993   18994   18995   18996   18995   18997
   18996   18997   18998   18999   18998   19000   18999   19000
   19001   19002   19001   19003   19002   19003   19004   19005
   19004   19006   19005   19006   19007   19008   19007   19009
   19008   19009   19010   19011   19010   19012   19011   19012
   19013   19014   19013   19015   19014   19015   19016   19017
   19016   19018   19017   19018   19019   19020   19019   19021
   19020   19021   19022   19023   19022   19024   19023   19024
   19025   19026   19025   19027   19026   19027   19028   19029
   19028   19030   19029   19030   19031   19032   19031   19033
   19032   19033   19034   19035   19034   19036   19035   19036
   19037   19038   19037   19039   19038   19039   19040   19041
   19040   19042   19041   19042   19043   19044   19043   19045
   19044   19045   19046   19047   19046   19048   19047   19048
   19049   19050   19049   19051   19050   19051   19052   19053
   19052   19054   19053   19054   19055   19056   19055   19057
   19056   19057   19058   19059   19058   19060   19059   19060
   19061   19062   19061   19063   19062   19063   19064   19065
   19064   19066   19065   19066   19067   19068   19067   19069
   19068   19069   19070   19071   19070   19072   19071   19072
   19073   19074   19073   19075   19074   19075   19076   19077
   19076   19078   19077   19078   19079   19080   19079   19081
   19080   19081   19082   19083   19082   19084   19083   19084
   19085   19086   19085   19087   19086   19087   19088   19089
   19088   19090   19089   19090   19091   19092   19091   19093
   19092   19093   19094   19095   19094   19096   19095   19096
   19097   19098   19097   19099   19098   19099   19100   19101
   19100   19102   19101   19102   19103   19104   19103   19105
   19104   19105   19106   19107   19106   19108   19107   19108
   19109   19110   19109   19111   19110   19111   19112   19113
   19112   19114   19113   19114   19115   19116   19115   19117
   19116   19117   19118   19119   19118   19120   19119   19120
   19121   19122   19121   19123   19122   19123   19124   19125
   19124   19126   19125   19126   19127   19128   19127   19129
   19128   19129   19130   19131   19130   19132   19131   19132
   19133   19134   19133   19135   19134   19135   19136   19137
   19136   19138   19137   19138   19139   19140   19139   19141
   19140   19141   19142   19143   19142   19144   19143   19144
   19145   19146   19145   19147   19146   19147   19148   19149
   19148   19150   19149   19150   19151   19152   19151   19153
   19152   19153   19154   19155   19154   19156   19155   19156
   19157   19158   19157   19159   19158   19159   19160   19161
   19160   19162   19161   19162   19163   19164   19163   19165
   19164   19165   19166   19167   19166   19168   19167   19168
   19169   19170   19169   19171   19170   19171   19172   19173
   19172   19174   19173   19174   19175   19176   19175   19177
   19176   19177   19178   19179   19178   19180   19179   19180
   19181   19182   19181   19183   19182   19183   19184   19185
   19184   19186   19185   19186   19187   19188   19187   19189
   19188   19189   19190   19191   19190   19192   19191   19192
   19193   19194   19193   19195   19194   19195   19196   19197
   19196   19198   19197   19198   19199   19200   19199   19201
   19200   19201   19202   19203   19202   19204   19203   19204
   19205   19206   19205   19207   19206   19207   19208   19209
   19208   19210   19209   19210   19211   19212   19211   19213
   19212   19213   19214   19215   19214   19216   19215   19216
   19217   19218   19217   19219   19218   19219   19220   19221
   19220   19222   19221   19222   19223   19224   19223   19225
   19224   19225   19226   19227   19226   19228   19227   19228
   19229   19230   19229   19231   19230   19231   19232   19233
   19232   19234   19233   19234   19235   19236   19235   19237
   19236   19237   19238   19239   19238   19240   19239   19240
   19241   19242   19241   19243   19242   19243   19244   19245
   19244   19246   19245   19246   19247   19248   19247   19249
   19248   19249   19250   19251   19250   19252   19251   19252
   19253   19254   19253   19255   19254   19255   19256   19257
   19256   19258   19257   19258   19259   19260   19259   19261
   19260   19261   19262   19263   19262   19264   19263   19264
   19265   19266   19265   19267   19266   19267   19268   19269
   19268   19270   19269   19270   19271   19272   19271   19273
   19272   19273   19274   19275   19274   19276   19275   19276
   19277   19278   19277   19279   19278   19279   19280   19281
   19280   19282   19281   19282   19283   19284   19283   19285
   19284   19285   19286   19287   19286   19288   19287   19288
   19289   19290   19289   19291   19290   19291   19292   19293
   19292   19294   19293   19294   19295   19296   19295   19297
   19296   19297   19298   19299   19298   19300   19299   19300
   19301   19302   19301   19303   19302   19303   19304   19305
   19304   19306   19305   19306   19307   19308   19307   19309
   19308   19309   19310   19311   19310   19312   19311   19312
   19313   19314   19313   19315   19314   19315   19316   19317
   19316   19318   19317   19318   19319   19320   19319   19321
   19320   19321   19322   19323   19322   19324   19323   19324
   19325   19326   19325   19327   19326   19327   19328   19329
   19328   19330   19329   19330   19331   19332   19331   19333
   19332   19333   19334   19335   19334   19336   19335   19336
   19337   19338   19337   19339   19338   19339   19340   19341
   19340   19342   19341   19342   19343   19344   19343   19345
   19344   19345   19346   19347   19346   19348   19347   19348
   19349   19350   19349   19351   19350   19351   19352   19353
   19352   19354   19353   19354   19355   19356   19355   19357
   19356   19357   19358   19359   19358   19360   19359   19360
   19361   19362   19361   19363   19362   19363   19364   19365
   19364   19366   19365   19366   19367   19368   19367   19369
   19368   19369   19370   19371   19370   19372   19371   19372
   19373   19374   19373   19375   19374   19375   19376   19377
   19376   19378   19377   19378   19379   19380   19379   19381
   19380   19381   19382   19383   19382   19384   19383   19384
   19385   19386   19385   19387   19386   19387   19388   19389
   19388   19390   19389   19390   19391   19392   19391   19393
   19392   19393   19394   19395   19394   19396   19395   19396
   19397   19398   19397   19399   19398   19399   19400   19401
   19400   19402   19401   19402   19403   19404   19403   19405
   19404   19405   19406   19407   19406   19408   19407   19408
   19409   19410   19409   19411   19410   19411   19412   19413
   19412   19414   19413   19414   19415   19416   19415   19417
   19416   19417   19418   19419   19418   19420   19419   19420
   19421   19422   19421   19423   19422   19423   19424   19425
   19424   19426   19425   19426   19427   19428   19427   19429
   19428   19429   19430   19431   19430   19432   19431   19432
   19433   19434   19433   19435   19434   19435   19436   19437
   19436   19438   19437   19438   19439   19440   19439   19441
   19440   19441   19442   19443   19442   19444   19443   19444
   19445   19446   19445   19447   19446   19447   19448   19449
   19448   19450   19449   19450   19451   19452   19451   19453
   19452   19453   19454   19455   19454   19456   19455   19456
   19457   19458   19457   19459   19458   19459   19460   19461
   19460   19462   19461   19462   19463   19464   19463   19465
   19464   19465   19466   19467   19466   19468   19467   19468
   19469   19470   19469   19471   19470   19471   19472   19473
   19472   19474   19473   19474   19475   19476   19475   19477
   19476   19477   19478   19479   19478   19480   19479   19480
   19481   19482   19481   19483   19482   19483   19484   19485
   19484   19486   19485   19486   19487   19488   19487   19489
   19488   19489   19490   19491   19490   19492   19491   19492
   19493   19494   19493   19495   19494   19495   19496   19497
   19496   19498   19497   19498   19499   19500   19499   19501
   19500   19501   19502   19503   19502   19504   19503   19504
   19505   19506   19505   19507   19506   19507   19508   19509
   19508   19510   19509   19510   19511   19512   19511   19513
   19512   19513   19514   19515   19514   19516   19515   19516
   19517   19518   19517   19519   19518   19519   19520   19521
   19520   19522   19521   19522   19523   19524   19523   19525
   19524   19525   19526   19527   19526   19528   19527   19528
   19529   19530   19529   19531   19530   19531   19532   19533
   19532   19534   19533   19534   19535   19536   19535   19537
   19536   19537   19538   19539   19538   19540   19539   19540
   19541   19542   19541   19543   19542   19543   19544   19545
   19544   19546   19545   19546   19547   19548   19547   19549
   19548   19549   19550   19551   19550   19552   19551   19552
   19553   19554   19553   19555   19554   19555   19556   19557
   19556   19558   19557   19558   19559   19560   19559   19561
   19560   19561   19562   19563   19562   19564   19563   19564
   19565   19566   19565   19567   19566   19567   19568   19569
   19568   19570   19569   19570   19571   19572   19571   19573
   19572   19573   19574   19575   19574   19576   19575   19576
   19577   19578   19577   19579   19578   19579   19580   19581
   19580   19582   19581   19582   19583   19584   19583   19585
   19584   19585   19586   19587   19586   19588   19587   19588
   19589   19590   19589   19591   19590   19591   19592   19593
   19592   19594   19593   19594   19595   19596   19595   19597
   19596   19597   19598   19599   19598   19600   19599   19600
   19601   19602   19601   19603   19602   19603   19604   19605
   19604   19606   19605   19606   19607   19608   19607   19609
   19608   19609   19610   19611   19610   19612   19611   19612
   19613   19614   19613   19615   19614   19615   19616   19617
   19616   19618   19617   19618   19619   19620   19619   19621
   19620   19621   19622   19623   19622   19624   19623   19624
   19625   19626   19625   19627   19626   19627   19628   19629
   19628   19630   19629   19630   19631   19632   19631   19633
   19632   19633   19634   19635   19634   19636   19635   19636
   19637   19638   19637   19639   19638   19639   19640   19641
   19640   19642   19641   19642   19643   19644   19643   19645
   19644   19645   19646   19647   19646   19648   19647   19648
   19649   19650   19649   19651   19650   19651   19652   19653
   19652   19654   19653   19654   19655   19656   19655   19657
   19656   19657   19658   19659   19658   19660   19659   19660
   19661   19662   19661   19663   19662   19663   19664   19665
   19664   19666   19665   19666   19667   19668   19667   19669
   19668   19669   19670   19671   19670   19672   19671   19672
   19673   19674   19673   19675   19674   19675   19676   19677
   19676   19678   19677   19678   19679   19680   19679   19681
   19680   19681   19682   19683   19682   19684   19683   19684
   19685   19686   19685   19687   19686   19687   19688   19689
   19688   19690   19689   19690   19691   19692   19691   19693
   19692   19693   19694   19695   19694   19696   19695   19696
   19697   19698   19697   19699   19698   19699   19700   19701
   19700   19702   19701   19702   19703   19704   19703   19705
   19704   19705   19706   19707   19706   19708   19707   19708
   19709   19710   19709   19711   19710   19711   19712   19713
   19712   19714   19713   19714   19715   19716   19715   19717
   19716   19717   19718   19719   19718   19720   19719   19720
   19721   19722   19721   19723   19722   19723   19724   19725
   19724   19726   19725   19726   19727   19728   19727   19729
   19728   19729   19730   19731   19730   19732   19731   19732
   19733   19734   19733   19735   19734   19735   19736   19737
   19736   19738   19737   19738   19739   19740   19739   19741
   19740   19741   19742   19743   19742   19744   19743   19744
   19745   19746   19745   19747   19746   19747   19748   19749
   19748   19750   19749   19750   19751   19752   19751   19753
   19752   19753   19754   19755   19754   19756   19755   19756
   19757   19758   19757   19759   19758   19759   19760   19761
   19760   19762   19761   19762   19763   19764   19763   19765
   19764   19765   19766   19767   19766   19768   19767   19768
   19769   19770   19769   19771   19770   19771   19772   19773
   19772   19774   19773   19774   19775   19776   19775   19777
   19776   19777   19778   19779   19778   19780   19779   19780
   19781   19782   19781   19783   19782   19783   19784   19785
   19784   19786   19785   19786   19787   19788   19787   19789
   19788   19789   19790   19791   19790   19792   19791   19792
   19793   19794   19793   19795   19794   19795   19796   19797
   19796   19798   19797   19798   19799   19800   19799   19801
   19800   19801   19802   19803   19802   19804   19803   19804
   19805   19806   19805   19807   19806   19807   19808   19809
   19808   19810   19809   19810   19811   19812   19811   19813
   19812   19813   19814   19815   19814   19816   19815   19816
   19817   19818   19817   19819   19818   19819   19820   19821
   19820   19822   19821   19822   19823   19824   19823   19825
   19824   19825   19826   19827   19826   19828   19827   19828
   19829   19830   19829   19831   19830   19831   19832   19833
   19832   19834   19833   19834   19835   19836   19835   19837
   19836   19837   19838   19839   19838   19840   19839   19840
   19841   19842   19841   19843   19842   19843   19844   19845
   19844   19846   19845   19846   19847   19848   19847   19849
   19848   19849   19850   19851   19850   19852   19851   19852
   19853   19854   19853   19855   19854   19855   19856   19857
   19856   19858   19857   19858   19859   19860   19859   19861
   19860   19861   19862   19863   19862   19864   19863   19864
   19865   19866   19865   19867   19866   19867   19868   19869
   19868   19870   19869   19870   19871   19872   19871   19873
   19872   19873   19874   19875   19874   19876   19875   19876
   19877   19878   19877   19879   19878   19879   19880   19881
   19880   19882   19881   19882   19883   19884   19883   19885
   19884   19885   19886   19887   19886   19888   19887   19888
   19889   19890   19889   19891   19890   19891   19892   19893
   19892   19894   19893   19894   19895   19896   19895   19897
   19896   19897   19898   19899   19898   19900   19899   19900
   19901   19902   19901   19903   19902   19903   19904   19905
   19904   19906   19905   19906   19907   19908   19907   19909
   19908   19909   19910   19911   19910   19912   19911   19912
   19913   19914   19913   19915   19914   19915   19916   19917
   19916   19918   19917   19918   19919   19920   19919   19921
   19920   19921   19922   19923   19922   19924   19923   19924
   19925   19926   19925   19927   19926   19927   19928   19929
   19928   19930   19929   19930   19931   19932   19931   19933
   19932   19933   19934   19935   19934   19936   19935   19936
   19937   19938   19937   19939   19938   19939   19940   19941
   19940   19942   19941   19942   19943   19944   19943   19945
   19944   19945   19946   19947   19946   19948   19947   19948
   19949   19950   19949   19951   19950   19951   19952   19953
   19952   19954   19953   19954   19955   19956   19955   19957
   19956   19957   19958   19959   19958   19960   19959   19960
   19961   19962   19961   19963   19962   19963   19964   19965
   19964   19966   19965   19966   19967   19968   19967   19969
   19968   19969   19970   19971   19970   19972   19971   19972
   19973   19974   19973   19975   19974   19975   19976   19977
   19976   19978   19977   19978   19979   19980   19979   19981
   19980   19981   19982   19983   19982   19984   19983   19984
   19985   19986   19985   19987   19986   19987   19988   19989
   19988   19990   19989   19990   19991   19992   19991   19993
   19992   19993   19994   19995   19994   19996   19995   19996
   19997   19998   19997   19999   19998   19999   20000   20001
   20000   20002   20001   20002   20003   20004   20003   20005
   20004   20005   20006   20007   20006   20008   20007   20008
   20009   20010   20009   20011   20010   20011   20012   20013
   20012   20014   20013   20014   20015   20016   20015   20017
   20016   20017   20018   20019   20018   20020   20019   20020
   20021   20022   20021   20023   20022   20023   20024   20025
   20024   20026   20025   20026   20027   20028   20027   20029
   20028   20029   20030   20031   20030   20032   20031   20032
   20033   20034   20033   20035   20034   20035   20036   20037
   20036   20038   20037   20038   20039   20040   20039   20041
   20040   20041   20042   20043   20042   20044   20043   20044
   20045   20046   20045   20047   20046   20047   20048   20049
   20048   20050   20049   20050   20051   20052   20051   20053
   20052   20053   20054   20055   20054   20056   20055   20056
   20057   20058   20057   20059   20058   20059   20060   20061
   20060   20062   20061   20062   20063   20064   20063   20065
   20064   20065   20066   20067   20066   20068   20067   20068
   20069   20070   20069   20071   20070   20071   20072   20073
   20072   20074   20073   20074   20075   20076   20075   20077
   20076   20077   20078   20079   20078   20080   20079   20080
   20081   20082   20081   20083   20082   20083   20084   20085
   20084   20086   20085   20086   20087   20088   20087   20089
   20088   20089   20090   20091   20090   20092   20091   20092
   20093   20094   20093   20095   20094   20095   20096   20097
   20096   20098   20097   20098   20099   20100   20099   20101
   20100   20101   20102   20103   20102   20104   20103   20104
   20105   20106   20105   20107   20106   20107   20108   20109
   20108   20110   20109   20110   20111   20112   20111   20113
   20112   20113   20114   20115   20114   20116   20115   20116
   20117   20118   20117   20119   20118   20119   20120   20121
   20120   20122   20121   20122   20123   20124   20123   20125
   20124   20125   20126   20127   20126   20128   20127   20128
   20129   20130   20129   20131   20130   20131   20132   20133
   20132   20134   20133   20134   20135   20136   20135   20137
   20136   20137   20138   20139   20138   20140   20139   20140
   20141   20142   20141   20143   20142   20143   20144   20145
   20144   20146   20145   20146   20147   20148   20147   20149
   20148   20149   20150   20151   20150   20152   20151   20152
   20153   20154   20153   20155   20154   20155   20156   20157
   20156   20158   20157   20158   20159   20160   20159   20161
   20160   20161   20162   20163   20162   20164   20163   20164
   20165   20166   20165   20167   20166   20167   20168   20169
   20168   20170   20169   20170   20171   20172   20171   20173
   20172   20173   20174   20175   20174   20176   20175   20176
   20177   20178   20177   20179   20178   20179   20180   20181
   20180   20182   20181   20182   20183   20184   20183   20185
   20184   20185   20186   20187   20186   20188   20187   20188
   20189   20190   20189   20191   20190   20191   20192   20193
   20192   20194   20193   20194   20195   20196   20195   20197
   20196   20197   20198   20199   20198   20200   20199   20200
   20201   20202   20201   20203   20202   20203   20204   20205
   20204   20206   20205   20206   20207   20208   20207   20209
   20208   20209   20210   20211   20210   20212   20211   20212
   20213   20214   20213   20215   20214   20215   20216   20217
   20216   20218   20217   20218   20219   20220   20219   20221
   20220   20221   20222   20223   20222   20224   20223   20224
   20225   20226   20225   20227   20226   20227   20228   20229
   20228   20230   20229   20230   20231   20232   20231   20233
   20232   20233   20234   20235   20234   20236   20235   20236
   20237   20238   20237   20239   20238   20239   20240   20241
   20240   20242   20241   20242   20243   20244   20243   20245
   20244   20245   20246   20247   20246   20248   20247   20248
   20249   20250   20249   20251   20250   20251   20252   20253
   20252   20254   20253   20254   20255   20256   20255   20257
   20256   20257   20258   20259   20258   20260   20259   20260
   20261   20262   20261   20263   20262   20263   20264   20265
   20264   20266   20265   20266   20267   20268   20267   20269
   20268   20269   20270   20271   20270   20272   20271   20272
   20273   20274   20273   20275   20274   20275   20276   20277
   20276   20278   20277   20278   20279   20280   20279   20281
   20280   20281   20282   20283   20282   20284   20283   20284
   20285   20286   20285   20287   20286   20287   20288   20289
   20288   20290   20289   20290   20291   20292   20291   20293
   20292   20293   20294   20295   20294   20296   20295   20296
   20297   20298   20297   20299   20298   20299   20300   20301
   20300   20302   20301   20302   20303   20304   20303   20305
   20304   20305   20306   20307   20306   20308   20307   20308
   20309   20310   20309   20311   20310   20311   20312   20313
   20312   20314   20313   20314   20315   20316   20315   20317
   20316   20317   20318   20319   20318   20320   20319   20320
   20321   20322   20321   20323   20322   20323   20324   20325
   20324   20326   20325   20326   20327   20328   20327   20329
   20328   20329   20330   20331   20330   20332   20331   20332
   20333   20334   20333   20335   20334   20335   20336   20337
   20336   20338   20337   20338   20339   20340   20339   20341
   20340   20341   20342   20343   20342   20344   20343   20344
   20345   20346   20345   20347   20346   20347   20348   20349
   20348   20350   20349   20350   20351   20352   20351   20353
   20352   20353   20354   20355   20354   20356   20355   20356
   20357   20358   20357   20359   20358   20359   20360   20361
   20360   20362   20361   20362   20363   20364   20363   20365
   20364   20365   20366   20367   20366   20368   20367   20368
   20369   20370   20369   20371   20370   20371   20372   20373
   20372   20374   20373   20374   20375   20376   20375   20377
   20376   20377   20378   20379   20378   20380   20379   20380
   20381   20382   20381   20383   20382   20383   20384   20385
   20384   20386   20385   20386   20387   20388   20387   20389
   20388   20389   20390   20391   20390   20392   20391   20392
   20393   20394   20393   20395   20394   20395   20396   20397
   20396   20398   20397   20398   20399   20400   20399   20401
   20400   20401   20402   20403   20402   20404   20403   20404
   20405   20406   20405   20407   20406   20407   20408   20409
   20408   20410   20409   20410   20411   20412   20411   20413
   20412   20413   20414   20415   20414   20416   20415   20416
   20417   20418   20417   20419   20418   20419   20420   20421
   20420   20422   20421   20422   20423   20424   20423   20425
   20424   20425   20426   20427   20426   20428   20427   20428
   20429   20430   20429   20431   20430   20431   20432   20433
   20432   20434   20433   20434   20435   20436   20435   20437
   20436   20437   20438   20439   20438   20440   20439   20440
   20441   20442   20441   20443   20442   20443   20444   20445
   20444   20446   20445   20446   20447   20448   20447   20449
   20448   20449   20450   20451   20450   20452   20451   20452
   20453   20454   20453   20455   20454   20455   20456   20457
   20456   20458   20457   20458   20459   20460   20459   20461
   20460   20461   20462   20463   20462   20464   20463   20464
   20465   20466   20465   20467   20466   20467   20468   20469
   20468   20470   20469   20470   20471   20472   20471   20473
   20472   20473   20474   20475   20474   20476   20475   20476
   20477   20478   20477   20479   20478   20479   20480   20481
   20480   20482   20481   20482   20483   20484   20483   20485
   20484   20485   20486   20487   20486   20488   20487   20488
   20489   20490   20489   20491   20490   20491   20492   20493
   20492   20494   20493   20494   20495   20496   20495   20497
   20496   20497   20498   20499   20498   20500   20499   20500
   20501   20502   20501   20503   20502   20503   20504   20505
   20504   20506   20505   20506   20507   20508   20507   20509
   20508   20509   20510   20511   20510   20512   20511   20512
   20513   20514   20513   20515   20514   20515   20516   20517
   20516   20518   20517   20518   20519   20520   20519   20521
   20520   20521   20522   20523   20522   20524   20523   20524
   20525   20526   20525   20527   20526   20527   20528   20529
   20528   20530   20529   20530   20531   20532   20531   20533
   20532   20533   20534   20535   20534   20536   20535   20536
   20537   20538   20537   20539   20538   20539   20540   20541
   20540   20542   20541   20542   20543   20544   20543   20545
   20544   20545   20546   20547   20546   20548   20547   20548
   20549   20550   20549   20551   20550   20551   20552   20553
   20552   20554   20553   20554   20555   20556   20555   20557
   20556   20557   20558   20559   20558   20560   20559   20560
   20561   20562   20561   20563   20562   20563   20564   20565
   20564   20566   20565   20566   20567   20568   20567   20569
   20568   20569   20570   20571   20570   20572   20571   20572
   20573   20574   20573   20575   20574   20575   20576   20577
   20576   20578   20577   20578   20579   20580   20579   20581
   20580   20581   20582   20583   20582   20584   20583   20584
   20585   20586   20585   20587   20586   20587   20588   20589
   20588   20590   20589   20590   20591   20592   20591   20593
   20592   20593   20594   20595   20594   20596   20595   20596
   20597   20598   20597   20599   20598   20599   20600   20601
   20600   20602   20601   20602   20603   20604   20603   20605
   20604   20605   20606   20607   20606   20608   20607   20608
   20609   20610   20609   20611   20610   20611   20612   20613
   20612   20614   20613   20614   20615   20616   20615   20617
   20616   20617   20618   20619   20618   20620   20619   20620
   20621   20622   20621   20623   20622   20623   20624   20625
   20624   20626   20625   20626   20627   20628   20627   20629
   20628   20629   20630   20631   20630   20632   20631   20632
   20633   20634   20633   20635   20634   20635   20636   20637
   20636   20638   20637   20638   20639   20640   20639   20641
   20640   20641   20642   20643   20642   20644   20643   20644
   20645   20646   20645   20647   20646   20647   20648   20649
   20648   20650   20649   20650   20651   20652   20651   20653
   20652   20653   20654   20655   20654   20656   20655   20656
   20657   20658   20657   20659   20658   20659   20660   20661
   20660   20662   20661   20662   20663   20664   20663   20665
   20664   20665   20666   20667   20666   20668   20667   20668
   20669   20670   20669   20671   20670   20671   20672   20673
   20672   20674   20673   20674   20675   20676   20675   20677
   20676   20677   20678   20679   20678   20680   20679   20680
   20681   20682   20681   20683   20682   20683   20684   20685
   20684   20686   20685   20686   20687   20688   20687   20689
   20688   20689   20690   20691   20690   20692   20691   20692
   20693   20694   20693   20695   20694   20695   20696   20697
   20696   20698   20697   20698   20699   20700   20699   20701
   20700   20701   20702   20703   20702   20704   20703   20704
   20705   20706   20705   20707   20706   20707   20708   20709
   20708   20710   20709   20710   20711   20712   20711   20713
   20712   20713   20714   20715   20714   20716   20715   20716
   20717   20718   20717   20719   20718   20719   20720   20721
   20720   20722   20721   20722   20723   20724   20723   20725
   20724   20725   20726   20727   20726   20728   20727   20728
   20729   20730   20729   20731   20730   20731   20732   20733
   20732   20734   20733   20734   20735   20736   20735   20737
   20736   20737   20738   20739   20738   20740   20739   20740
   20741   20742   20741   20743   20742   20743   20744   20745
   20744   20746   20745   20746   20747   20748   20747   20749
   20748   20749   20750   20751   20750   20752   20751   20752
   20753   20754   20753   20755   20754   20755   20756   20757
   20756   20758   20757   20758   20759   20760   20759   20761
   20760   20761   20762   20763   20762   20764   20763   20764
   20765   20766   20765   20767   20766   20767   20768   20769
   20768   20770   20769   20770   20771   20772   20771   20773
   20772   20773   20774   20775   20774   20776   20775   20776
   20777   20778   20777   20779   20778   20779   20780   20781
   20780   20782   20781   20782   20783   20784   20783   20785
   20784   20785   20786   20787   20786   20788   20787   20788
   20789   20790   20789   20791   20790   20791   20792   20793
   20792   20794   20793   20794   20795   20796   20795   20797
   20796   20797   20798   20799   20798   20800   20799   20800
   20801   20802   20801   20803   20802   20803   20804   20805
   20804   20806   20805   20806   20807   20808   20807   20809
   20808   20809   20810   20811   20810   20812   20811   20812
   20813   20814   20813   20815   20814   20815   20816   20817
   20816   20818   20817   20818   20819   20820   20819   20821
   20820   20821   20822   20823   20822   20824   20823   20824
   20825   20826   20825   20827   20826   20827   20828   20829
   20828   20830   20829   20830   20831   20832   20831   20833
   20832   20833   20834   20835   20834   20836   20835   20836
   20837   20838   20837   20839   20838   20839   20840   20841
   20840   20842   20841   20842   20843   20844   20843   20845
   20844   20845   20846   20847   20846   20848   20847   20848
   20849   20850   20849   20851   20850   20851   20852   20853
   20852   20854   20853   20854   20855   20856   20855   20857
   20856   20857   20858   20859   20858   20860   20859   20860
   20861   20862   20861   20863   20862   20863   20864   20865
   20864   20866   20865   20866   20867   20868   20867   20869
   20868   20869   20870   20871   20870   20872   20871   20872
   20873   20874   20873   20875   20874   20875   20876   20877
   20876   20878   20877   20878   20879   20880   20879   20881
   20880   20881   20882   20883   20882   20884   20883   20884
   20885   20886   20885   20887   20886   20887   20888   20889
   20888   20890   20889   20890   20891   20892   20891   20893
   20892   20893   20894   20895   20894   20896   20895   20896
   20897   20898   20897   20899   20898   20899   20900   20901
   20900   20902   20901   20902   20903   20904   20903   20905
   20904   20905   20906   20907   20906   20908   20907   20908
   20909   20910   20909   20911   20910   20911   20912   20913
   20912   20914   20913   20914   20915   20916   20915   20917
   20916   20917   20918   20919   20918   20920   20919   20920
   20921   20922   20921   20923   20922   20923   20924   20925
   20924   20926   20925   20926   20927   20928   20927   20929
   20928   20929   20930   20931   20930   20932   20931   20932
   20933   20934   20933   20935   20934   20935   20936   20937
   20936   20938   20937   20938   20939   20940   20939   20941
   20940   20941   20942   20943   20942   20944   20943   20944
   20945   20946   20945   20947   20946   20947   20948   20949
   20948   20950   20949   20950   20951   20952   20951   20953
   20952   20953   20954   20955   20954   20956   20955   20956
   20957   20958   20957   20959   20958   20959   20960   20961
   20960   20962   20961   20962   20963   20964   20963   20965
   20964   20965   20966   20967   20966   20968   20967   20968
   20969   20970   20969   20971   20970   20971   20972   20973
   20972   20974   20973   20974   20975   20976   20975   20977
   20976   20977   20978   20979   20978   20980   20979   20980
   20981   20982   20981   20983   20982   20983   20984   20985
   20984   20986   20985   20986   20987   20988   20987   20989
   20988   20989   20990   20991   20990   20992   20991   20992
   20993   20994   20993   20995   20994   20995   20996   20997
   20996   20998   20997   20998   20999   21000   20999   21001
   21000   21001   21002   21003   21002   21004   21003   21004
   21005   21006   21005   21007   21006   21007   21008   21009
   21008   21010   21009   21010   21011   21012   21011   21013
   21012   21013   21014   21015   21014   21016   21015   21016
   21017   21018   21017   21019   21018   21019   21020   21021
   21020   21022   21021   21022   21023   21024   21023   21025
   21024   21025   21026   21027   21026   21028   21027   21028
   21029   21030   21029   21031   21030   21031   21032   21033
   21032   21034   21033   21034   21035   21036   21035   21037
   21036   21037   21038   21039   21038   21040   21039   21040
   21041   21042   21041   21043   21042   21043   21044   21045
   21044   21046   21045   21046   21047   21048   21047   21049
   21048   21049   21050   21051   21050   21052   21051   21052
   21053   21054   21053   21055   21054   21055   21056   21057
   21056   21058   21057   21058   21059   21060   21059   21061
   21060   21061   21062   21063   21062   21064   21063   21064
   21065   21066   21065   21067   21066   21067   21068   21069
   21068   21070   21069   21070   21071   21072   21071   21073
   21072   21073   21074   21075   21074   21076   21075   21076
   21077   21078   21077   21079   21078   21079   21080   21081
   21080   21082   21081   21082   21083   21084   21083   21085
   21084   21085   21086   21087   21086   21088   21087   21088
   21089   21090   21089   21091   21090   21091   21092   21093
   21092   21094   21093   21094   21095   21096   21095   21097
   21096   21097   21098   21099   21098   21100   21099   21100
   21101   21102   21101   21103   21102   21103   21104   21105
   21104   21106   21105   21106   21107   21108   21107   21109
   21108   21109   21110   21111   21110   21112   21111   21112
   21113   21114   21113   21115   21114   21115   21116   21117
   21116   21118   21117   21118   21119   21120   21119   21121
   21120   21121   21122   21123   21122   21124   21123   21124
   21125   21126   21125   21127   21126   21127   21128   21129
   21128   21130   21129   21130   21131   21132   21131   21133
   21132   21133   21134   21135   21134   21136   21135   21136
   21137   21138   21137   21139   21138   21139   21140   21141
   21140   21142   21141   21142   21143   21144   21143   21145
   21144   21145   21146   21147   21146   21148   21147   21148
   21149   21150   21149   21151   21150   21151   21152   21153
   21152   21154   21153   21154   21155   21156   21155   21157
   21156   21157   21158   21159   21158   21160   21159   21160
   21161   21162   21161   21163   21162   21163   21164   21165
   21164   21166   21165   21166   21167   21168   21167   21169
   21168   21169   21170   21171   21170   21172   21171   21172
   21173   21174   21173   21175   21174   21175   21176   21177
   21176   21178   21177   21178   21179   21180   21179   21181
   21180   21181   21182   21183   21182   21184   21183   21184
   21185   21186   21185   21187   21186   21187   21188   21189
   21188   21190   21189   21190   21191   21192   21191   21193
   21192   21193   21194   21195   21194   21196   21195   21196
   21197   21198   21197   21199   21198   21199   21200   21201
   21200   21202   21201   21202   21203   21204   21203   21205
   21204   21205   21206   21207   21206   21208   21207   21208
   21209   21210   21209   21211   21210   21211   21212   21213
   21212   21214   21213   21214   21215   21216   21215   21217
   21216   21217   21218   21219   21218   21220   21219   21220
   21221   21222   21221   21223   21222   21223   21224   21225
   21224   21226   21225   21226   21227   21228   21227   21229
   21228   21229   21230   21231   21230   21232   21231   21232
   21233   21234   21233   21235   21234   21235   21236   21237
   21236   21238   21237   21238   21239   21240   21239   21241
   21240   21241   21242   21243   21242   21244   21243   21244
   21245   21246   21245   21247   21246   21247   21248   21249
   21248   21250   21249   21250   21251   21252   21251   21253
   21252   21253   21254   21255   21254   21256   21255   21256
   21257   21258   21257   21259   21258   21259   21260   21261
   21260   21262   21261   21262   21263   21264   21263   21265
   21264   21265   21266   21267   21266   21268   21267   21268
   21269   21270   21269   21271   21270   21271   21272   21273
   21272   21274   21273   21274   21275   21276   21275   21277
   21276   21277   21278   21279   21278   21280   21279   21280
   21281   21282   21281   21283   21282   21283   21284   21285
   21284   21286   21285   21286   21287   21288   21287   21289
   21288   21289   21290   21291   21290   21292   21291   21292
   21293   21294   21293   21295   21294   21295   21296   21297
   21296   21298   21297   21298   21299   21300   21299   21301
   21300   21301   21302   21303   21302   21304   21303   21304
   21305   21306   21305   21307   21306   21307   21308   21309
   21308   21310   21309   21310   21311   21312   21311   21313
   21312   21313   21314   21315   21314   21316   21315   21316
   21317   21318   21317   21319   21318   21319   21320   21321
   21320   21322   21321   21322   21323   21324   21323   21325
   21324   21325   21326   21327   21326   21328   21327   21328
   21329   21330   21329   21331   21330   21331   21332   21333
   21332   21334   21333   21334   21335   21336   21335   21337
   21336   21337   21338   21339   21338   21340   21339   21340
   21341   21342   21341   21343   21342   21343   21344   21345
   21344   21346   21345   21346   21347   21348   21347   21349
   21348   21349   21350   21351   21350   21352   21351   21352
   21353   21354   21353   21355   21354   21355   21356   21357
   21356   21358   21357   21358   21359   21360   21359   21361
   21360   21361   21362   21363   21362   21364   21363   21364
   21365   21366   21365   21367   21366   21367   21368   21369
   21368   21370   21369   21370   21371   21372   21371   21373
   21372   21373   21374   21375   21374   21376   21375   21376
   21377   21378   21377   21379   21378   21379   21380   21381
   21380   21382   21381   21382   21383   21384   21383   21385
   21384   21385   21386   21387   21386   21388   21387   21388
   21389   21390   21389   21391   21390   21391   21392   21393
   21392   21394   21393   21394   21395   21396   21395   21397
   21396   21397   21398   21399   21398   21400   21399   21400
   21401   21402   21401   21403   21402   21403   21404   21405
   21404   21406   21405   21406   21407   21408   21407   21409
   21408   21409   21410   21411   21410   21412   21411   21412
   21413   21414   21413   21415   21414   21415   21416   21417
   21416   21418   21417   21418   21419   21420   21419   21421
   21420   21421   21422   21423   21422   21424   21423   21424
   21425   21426   21425   21427   21426   21427   21428   21429
   21428   21430   21429   21430   21431   21432   21431   21433
   21432   21433   21434   21435   21434   21436   21435   21436
   21437   21438   21437   21439   21438   21439   21440   21441
   21440   21442   21441   21442   21443   21444   21443   21445
   21444   21445   21446   21447   21446   21448   21447   21448
   21449   21450   21449   21451   21450   21451   21452   21453
   21452   21454   21453   21454   21455   21456   21455   21457
   21456   21457   21458   21459   21458   21460   21459   21460
   21461   21462   21461   21463   21462   21463   21464   21465
   21464   21466   21465   21466   21467   21468   21467   21469
   21468   21469   21470   21471   21470   21472   21471   21472
   21473   21474   21473   21475   21474   21475   21476   21477
   21476   21478   21477   21478   21479   21480   21479   21481
   21480   21481   21482   21483   21482   21484   21483   21484
   21485   21486   21485   21487   21486   21487   21488   21489
   21488   21490   21489   21490   21491   21492   21491   21493
   21492   21493   21494   21495   21494   21496   21495   21496
   21497   21498   21497   21499   21498   21499   21500   21501
   21500   21502   21501   21502   21503   21504   21503   21505
   21504   21505   21506   21507   21506   21508   21507   21508
   21509   21510   21509   21511   21510   21511   21512   21513
   21512   21514   21513   21514   21515   21516   21515   21517
   21516   21517   21518   21519   21518   21520   21519   21520
   21521   21522   21521   21523   21522   21523   21524   21525
   21524   21526   21525   21526   21527   21528   21527   21529
   21528   21529   21530   21531   21530   21532   21531   21532
   21533   21534   21533   21535   21534   21535   21536   21537
   21536   21538   21537   21538   21539   21540   21539   21541
   21540   21541   21542   21543   21542   21544   21543   21544
   21545   21546   21545   21547   21546   21547   21548   21549
   21548   21550   21549   21550   21551   21552   21551   21553
   21552   21553   21554   21555   21554   21556   21555   21556
   21557   21558   21557   21559   21558   21559   21560   21561
   21560   21562   21561   21562   21563   21564   21563   21565
   21564   21565   21566   21567   21566   21568   21567   21568
   21569   21570   21569   21571   21570   21571   21572   21573
   21572   21574   21573   21574   21575   21576   21575   21577
   21576   21577   21578   21579   21578   21580   21579   21580
   21581   21582   21581   21583   21582   21583   21584   21585
   21584   21586   21585   21586   21587   21588   21587   21589
   21588   21589   21590   21591   21590   21592   21591   21592
   21593   21594   21593   21595   21594   21595   21596   21597
   21596   21598   21597   21598   21599   21600   21599   21601
   21600   21601   21602   21603   21602   21604   21603   21604
   21605   21606   21605   21607   21606   21607   21608   21609
   21608   21610   21609   21610   21611   21612   21611   21613
   21612   21613   21614   21615   21614   21616   21615   21616
   21617   21618   21617   21619   21618   21619   21620   21621
   21620   21622   21621   21622   21623   21624   21623   21625
   21624   21625   21626   21627   21626   21628   21627   21628
   21629   21630   21629   21631   21630   21631   21632   21633
   21632   21634   21633   21634   21635   21636   21635   21637
   21636   21637   21638   21639   21638   21640   21639   21640
   21641   21642   21641   21643   21642   21643   21644   21645
   21644   21646   21645   21646   21647   21648   21647   21649
   21648   21649   21650   21651   21650   21652   21651   21652
   21653   21654   21653   21655   21654   21655   21656   21657
   21656   21658   21657   21658   21659   21660   21659   21661
   21660   21661   21662   21663   21662   21664   21663   21664
   21665   21666   21665   21667   21666   21667   21668   21669
   21668   21670   21669   21670   21671   21672   21671   21673
   21672   21673   21674   21675   21674   21676   21675   21676
   21677   21678   21677   21679   21678   21679   21680   21681
   21680   21682   21681   21682   21683   21684   21683   21685
   21684   21685   21686   21687   21686   21688   21687   21688
   21689   21690   21689   21691   21690   21691   21692   21693
   21692   21694   21693   21694   21695   21696   21695   21697
   21696   21697   21698   21699   21698   21700   21699   21700
   21701   21702   21701   21703   21702   21703   21704   21705
   21704   21706   21705   21706   21707   21708   21707   21709
   21708   21709   21710   21711   21710   21712   21711   21712
   21713   21714   21713   21715   21714   21715   21716   21717
   21716   21718   21717   21718   21719   21720   21719   21721
   21720   21721   21722   21723   21722   21724   21723   21724
   21725   21726   21725   21727   21726   21727   21728   21729
   21728   21730   21729   21730   21731   21732   21731   21733
   21732   21733   21734   21735   21734   21736   21735   21736
   21737   21738   21737   21739   21738   21739   21740   21741
   21740   21742   21741   21742   21743   21744   21743   21745
   21744   21745   21746   21747   21746   21748   21747   21748
   21749   21750   21749   21751   21750   21751   21752   21753
   21752   21754   21753   21754   21755   21756   21755   21757
   21756   21757   21758   21759   21758   21760   21759   21760
   21761   21762   21761   21763   21762   21763   21764   21765
   21764   21766   21765   21766   21767   21768   21767   21769
   21768   21769   21770   21771   21770   21772   21771   21772
   21773   21774   21773   21775   21774   21775   21776   21777
   21776   21778   21777   21778   21779   21780   21779   21781
   21780   21781   21782   21783   21782   21784   21783   21784
   21785   21786   21785   21787   21786   21787   21788   21789
   21788   21790   21789   21790   21791   21792   21791   21793
   21792   21793   21794   21795   21794   21796   21795   21796
   21797   21798   21797   21799   21798   21799   21800   21801
   21800   21802   21801   21802   21803   21804   21803   21805
   21804   21805   21806   21807   21806   21808   21807   21808
   21809   21810   21809   21811   21810   21811   21812   21813
   21812   21814   21813   21814   21815   21816   21815   21817
   21816   21817   21818   21819   21818   21820   21819   21820
   21821   21822   21821   21823   21822   21823   21824   21825
   21824   21826   21825   21826   21827   21828   21827   21829
   21828   21829   21830   21831   21830   21832   21831   21832
   21833   21834   21833   21835   21834   21835   21836   21837
   21836   21838   21837   21838   21839   21840   21839   21841
   21840   21841   21842   21843   21842   21844   21843   21844
   21845   21846   21845   21847   21846   21847   21848   21849
   21848   21850   21849   21850   21851   21852   21851   21853
   21852   21853   21854   21855   21854   21856   21855   21856
   21857   21858   21857   21859   21858   21859   21860   21861
   21860   21862   21861   21862   21863   21864   21863   21865
   21864   21865   21866   21867   21866   21868   21867   21868
   21869   21870   21869   21871   21870   21871   21872   21873
   21872   21874   21873   21874   21875   21876   21875   21877
   21876   21877   21878   21879   21878   21880   21879   21880
   21881   21882   21881   21883   21882   21883   21884   21885
   21884   21886   21885   21886   21887   21888   21887   21889
   21888   21889   21890   21891   21890   21892   21891   21892
   21893   21894   21893   21895   21894   21895   21896   21897
   21896   21898   21897   21898   21899   21900   21899   21901
   21900   21901   21902   21903   21902   21904   21903   21904
   21905   21906   21905   21907   21906   21907   21908   21909
   21908   21910   21909   21910   21911   21912   21911   21913
   21912   21913   21914   21915   21914   21916   21915   21916
   21917   21918   21917   21919   21918   21919   21920   21921
   21920   21922   21921   21922   21923   21924   21923   21925
   21924   21925   21926   21927   21926   21928   21927   21928
   21929   21930   21929   21931   21930   21931   21932   21933
   21932   21934   21933   21934   21935   21936   21935   21937
   21936   21937   21938   21939   21938   21940   21939   21940
   21941   21942   21941   21943   21942   21943   21944   21945
   21944   21946   21945   21946   21947   21948   21947   21949
   21948   21949   21950   21951   21950   21952   21951   21952
   21953   21954   21953   21955   21954   21955   21956   21957
   21956   21958   21957   21958   21959   21960   21959   21961
   21960   21961   21962   21963   21962   21964   21963   21964
   21965   21966   21965   21967   21966   21967   21968   21969
   21968   21970   21969   21970   21971   21972   21971   21973
   21972   21973   21974   21975   21974   21976   21975   21976
   21977   21978   21977   21979   21978   21979   21980   21981
   21980   21982   21981   21982   21983   21984   21983   21985
   21984   21985   21986   21987   21986   21988   21987   21988
   21989   21990   21989   21991   21990   21991   21992   21993
   21992   21994   21993   21994   21995   21996   21995   21997
   21996   21997   21998   21999   21998   22000   21999   22000
   22001   22002   22001   22003   22002   22003   22004   22005
   22004   22006   22005   22006   22007   22008   22007   22009
   22008   22009   22010   22011   22010   22012   22011   22012
   22013   22014   22013   22015   22014   22015   22016   22017
   22016   22018   22017   22018   22019   22020   22019   22021
   22020   22021   22022   22023   22022   22024   22023   22024
   22025   22026   22025   22027   22026   22027   22028   22029
   22028   22030   22029   22030   22031   22032   22031   22033
   22032   22033   22034   22035   22034   22036   22035   22036
   22037   22038   22037   22039   22038   22039   22040   22041
   22040   22042   22041   22042   22043   22044   22043   22045
   22044   22045   22046   22047   22046   22048   22047   22048
   22049   22050   22049   22051   22050   22051   22052   22053
   22052   22054   22053   22054   22055   22056   22055   22057
   22056   22057   22058   22059   22058   22060   22059   22060
   22061   22062   22061   22063   22062   22063   22064   22065
   22064   22066   22065   22066   22067   22068   22067   22069
   22068   22069   22070   22071   22070   22072   22071   22072
   22073   22074   22073   22075   22074   22075   22076   22077
   22076   22078   22077   22078   22079   22080   22079   22081
   22080   22081   22082   22083   22082   22084   22083   22084
   22085   22086   22085   22087   22086   22087   22088   22089
   22088   22090   22089   22090   22091   22092   22091   22093
   22092   22093   22094   22095   22094   22096   22095   22096
   22097   22098   22097   22099   22098   22099   22100   22101
   22100   22102   22101   22102   22103   22104   22103   22105
   22104   22105   22106   22107   22106   22108   22107   22108
   22109   22110   22109   22111   22110   22111   22112   22113
   22112   22114   22113   22114   22115   22116   22115   22117
   22116   22117   22118   22119   22118   22120   22119   22120
   22121   22122   22121   22123   22122   22123   22124   22125
   22124   22126   22125   22126   22127   22128   22127   22129
   22128   22129   22130   22131   22130   22132   22131   22132
   22133   22134   22133   22135   22134   22135   22136   22137
   22136   22138   22137   22138   22139   22140   22139   22141
   22140   22141   22142   22143   22142   22144   22143   22144
   22145   22146   22145   22147   22146   22147   22148   22149
   22148   22150   22149   22150   22151   22152   22151   22153
   22152   22153   22154   22155   22154   22156   22155   22156
   22157   22158   22157   22159   22158   22159   22160   22161
   22160   22162   22161   22162   22163   22164   22163   22165
   22164   22165   22166   22167   22166   22168   22167   22168
   22169   22170   22169   22171   22170   22171   22172   22173
   22172   22174   22173   22174   22175   22176   22175   22177
   22176   22177   22178   22179   22178   22180   22179   22180
   22181   22182   22181   22183   22182   22183   22184   22185
   22184   22186   22185   22186   22187   22188   22187   22189
   22188   22189   22190   22191   22190   22192   22191   22192
   22193   22194   22193   22195   22194   22195   22196   22197
   22196   22198   22197   22198   22199   22200   22199   22201
   22200   22201   22202   22203   22202   22204   22203   22204
   22205   22206   22205   22207   22206   22207   22208   22209
   22208   22210   22209   22210   22211   22212   22211   22213
   22212   22213   22214   22215   22214   22216   22215   22216
   22217   22218   22217   22219   22218   22219   22220   22221
   22220   22222   22221   22222   22223   22224   22223   22225
   22224   22225   22226   22227   22226   22228   22227   22228
   22229   22230   22229   22231   22230   22231   22232   22233
   22232   22234   22233   22234   22235   22236   22235   22237
   22236   22237   22238   22239   22238   22240   22239   22240
   22241   22242   22241   22243   22242   22243   22244   22245
   22244   22246   22245   22246   22247   22248   22247   22249
   22248   22249   22250   22251   22250   22252   22251   22252
   22253   22254   22253   22255   22254   22255   22256   22257
   22256   22258   22257   22258   22259   22260   22259   22261
   22260   22261   22262   22263   22262   22264   22263   22264
   22265   22266   22265   22267   22266   22267   22268   22269
   22268   22270   22269   22270   22271   22272   22271   22273
   22272   22273   22274   22275   22274   22276   22275   22276
   22277   22278   22277   22279   22278   22279   22280   22281
   22280   22282   22281   22282   22283   22284   22283   22285
   22284   22285   22286   22287   22286   22288   22287   22288
   22289   22290   22289   22291   22290   22291   22292   22293
   22292   22294   22293   22294   22295   22296   22295   22297
   22296   22297   22298   22299   22298   22300   22299   22300
   22301   22302   22301   22303   22302   22303   22304   22305
   22304   22306   22305   22306   22307   22308   22307   22309
   22308   22309   22310   22311   22310   22312   22311   22312
   22313   22314   22313   22315   22314   22315   22316   22317
   22316   22318   22317   22318   22319   22320   22319   22321
   22320   22321   22322   22323   22322   22324   22323   22324
   22325   22326   22325   22327   22326   22327   22328   22329
   22328   22330   22329   22330   22331   22332   22331   22333
   22332   22333   22334   22335   22334   22336   22335   22336
   22337   22338   22337   22339   22338   22339   22340   22341
   22340   22342   22341   22342   22343   22344   22343   22345
   22344   22345   22346   22347   22346   22348   22347   22348
   22349   22350   22349   22351   22350   22351   22352   22353
   22352   22354   22353   22354   22355   22356   22355   22357
   22356   22357   22358   22359   22358   22360   22359   22360
   22361   22362   22361   22363   22362   22363   22364   22365
   22364   22366   22365   22366   22367   22368   22367   22369
   22368   22369   22370   22371   22370   22372   22371   22372
   22373   22374   22373   22375   22374   22375   22376   22377
   22376   22378   22377   22378   22379   22380   22379   22381
   22380   22381   22382   22383   22382   22384   22383   22384
   22385   22386   22385   22387   22386   22387   22388   22389
   22388   22390   22389   22390   22391   22392   22391   22393
   22392   22393   22394   22395   22394   22396   22395   22396
   22397   22398   22397   22399   22398   22399   22400   22401
   22400   22402   22401   22402   22403   22404   22403   22405
   22404   22405   22406   22407   22406   22408   22407   22408
   22409   22410   22409   22411   22410   22411   22412   22413
   22412   22414   22413   22414   22415   22416   22415   22417
   22416   22417   22418   22419   22418   22420   22419   22420
   22421   22422   22421   22423   22422   22423   22424   22425
   22424   22426   22425   22426   22427   22428   22427   22429
   22428   22429   22430   22431   22430   22432   22431   22432
   22433   22434   22433   22435   22434   22435   22436   22437
   22436   22438   22437   22438   22439   22440   22439   22441
   22440   22441   22474   22475   22476   22477   22478   22479
   22480   22481   22482   22483   22484   22485   22486   22487
   22488   22489   22490   22491   22492   22493   22494   22495
   22496   22497   22498   22499   22500   22501   22502   22503
   22504   22505   22506   22507   22508   22509   22510   22511
   22512   22513   22514   22515   22516   22517   22518   22519
   22520   22521   22522   22523   22524   22525   22526   22527
   22528   22529   22530   22531   22532   22533   22534   22535
   22536   22537   22538   22539   22540   22541   22542   22543
   22544   22545   22546   22547   22548   22549   22550   22551
   22552   22553   22554   22555   22556   22557   22558   22559
   22560   22561   22562   22563   22564   22565   22566   22567
   22568   22569   22570   22571   22572   22573   22574   22575
   22576   22577   22578   22579   22580   22581   22582   22583
   22584   22585   22586   22587   22588   22589   22590   22591
   22592   22593   22594   22595   22596   22597   22598   22599
   22600   22601   22602   22603   22604   22605   22606   22607
   22608   22609   22610   22611   22612   22613   22614   22615
   22616   22617   22618   22619   22620   22621   22622   22623
   22624   22625   22626   22627   22628   22629   22630   22631
   22632   22633   22634   22635   22636   22637   22638   22639
   22640   22641   22642   22643   22644   22645   22646   22647
   22648   22649   22650   22651   22652   22653   22654   22655
   22656   22657   22658   22659   22660   22661   22662   22663
   22664   22665   22666   22667   22668   22669   22670   22671
   22672   22673   22674   22675   22676   22677   22678   22679
   22680   22681   22682   22683   22684   22685   22686   22687
   22688   22689   22690   22691   22692   22693   22694   22695
   22696   22697   22698   22699   22700   22701   22702   22703
   22704   22705   22706   22707   22708   22709   22710   22711
   22712   22713   22714   22715   22716   22717   22718   22719
   22720   22721   22722   22723   22724   22725   22726   22727
   22728   22729   22730   22731   22732   22733   22734   22735
   22736   22737   22738   22739   22740   22741   22742   22743
   22744   22745   22746   22747   22748   22749   22750   22751
   22752   22753   22754   22755   22756   22757   22758   22759
   22760   22761   22762   22763   22764   22765   22766   22767
   22768   22769   22770   22771   22772   22773   22774   22775
   22776   22777   22778   22779   22780   22781   22782   22783
   22784   22785   22786   22787   22788   22789   22790   22791
   22792   22793   22794   22795   22796   22797   22798   22799
   22800   22801   22802   22803   22804   22805   22806   22807
   22808   22809   22810   22811   22812   22813   22814   22815
   22816   22817   22818   22819   22820   22821   22822   22823
   22824   22825   22826   22827   22828   22829   22830   22831
   22832   22833   22834   22835   22836   22837   22838   22839
   22840   22841   22842   22843   22844   22845   22846   22847
   22848   22849   22850   22851   22852   22853   22854   22855
   22856   22857   22858   22859   22860   22861   22862   22863
   22864   22865   22866   22867   22868   22869   22870   22871
   22872   22873   22874   22875   22876   22877   22878   22879
   22880   22881   22882   22883   22884   22885   22886   22887
   22888   22889   22890   22891   22892   22893   22894   22895
   22896   22897   22898   22899   22900   22901   22902   22903
   22904   22905   22906   22907   22908   22909   22910   22911
   22912   22913   22914   22915   22916   22917   22918   22919
   22920   22921   22922   22923   22924   22925   22926   22927
   22928   22929   22930   22931   22932   22933   22934   22935
   22936   22937   22938   22939   22940   22941   22942   22943
   22944   22945   22946   22947   22948   22949   22950   22951
   22952   22953   22954   22955   22956   22957   22958   22959
   22960   22961   22962   22963   22964   22965   22966   22967
   22968   22969   22970   22971   22972   22973   22974   22975
   22976   22977   22978   22979   22980   22981   22982   22983
   22984   22985   22986   22987   22988   22989   22990   22991
   22992   22993   22994   22995   22996   22997   22998   22999
   23000   23001   23002   23003   23004   23005   23006   23007
   23008   23009   23010   23011   23012   23013   23014   23015
   23016   23017   23018   23019   23020   23021   23022   23023
   23024   23025   23026   23027   23028   23029   23030   23031
   23032   23033   23034   23035   23036   23037   23038   23039
   23040   23041   23042   23043   23044   23045   23046   23047
   23048   23049   23050   23051   23052   23053   23054   23055
   23056   23057   23058   23059   23060   23061   23062   23063
   23064   23065   23066   23067   23068   23069   23070   23071
   23072   23073   23074   23075   23076   23077   23078   23079
   23080   23081   23082   23083   23084   23085   23086   23087
   23088   23089   23090   23091   23092   23093   23094   23095
   23096   23097   23098   23099   23100   23101   23102   23103
   23104   23105   23106   23107   23108   23109   23110   23111
   23112   23113   23114   23115   23116   23117   23118   23119
   23120   23121   23122   23123   23124   23125   23126   23127
   23128   23129   23130   23131   23132   23133   23134   23135
   23136   23137   23138   23139   23140   23141   23142   23143
   23144   23145   23146   23147   23148   23149   23150   23151
   23152   23153   23154   23155   23156   23157   23158   23159
   23160   23161   23162   23163   23164   23165   23166   23167
   23168   23169   23170   23171   23172   23173   23174   23175
   23176   23177   23178   23179   23180   23181   23182   23183
   23184   23185   23186   23187   23188   23189   23190   23191
   23192   23193   23194   23195   23196   23197   23198   23199
   23200   23201   23202   23203   23204   23205   23206   23207
   23208   23209   23210   23211   23212   23213   23214   23215
   23216   23217   23218   23219   23220   23221   23222   23223
   23224   23225   23226   23227   23228   23229   23230   23231
   23232   23233   23234   23235   23236   23237   23238   23239
   23240   23241   23242   23243   23244   23245   23246   23247
   23248   23249   23250   23251   23252   23253   23254   23255
   23256   23257   23258   23259   23260   23261   23262   23263
   23264   23265   23266   23267   23268   23269   23270   23271
   23272   23273   23274   23275   23276   23277   23278   23279
   23280   23281   23282   23283   23284   23285   23286   23287
   23288   23289   23290   23291   23292   23293   23294   23295
   23296   23297   23298   23299   23300   23301   23302   23303
   23304   23305   23306   23307   23308   23309   23310   23311
   23312   23313   23314   23315   23316   23317   23318   23319
   23320   23321   23322   23323   23324   23325   23326   23327
   23328   23329   23330   23331   23332   23333   23334   23335
   23336   23337   23338   23339   23340   23341   23342   23343
   23344   23345   23346   23347   23348   23349   23350   23351
   23352   23353   23354   23355   23356   23357   23358   23359
   23360   23361   23362   23363   23364   23365   23366   23367
   23368   23369   23370   23371   23372   23373   23374   23375
   23376   23377   23378   23379   23380   23381   23382   23383
   23384   23385   23386   23387   23388   23389   23390   23391
   23392   23393   23394   23395   23396   23397   23398   23399
   23400   23401   23402   23403   23404   23405   23406   23407
   23408   23409   23410   23411   23412   23413   23414   23415
   23416   23417   23418   23419   23420   23421   23422   23423
   23424   23425   23426   23427   23428   23429   23430   23431
   23432   23433   23434   23435   23436   23437   23438   23439
   23440   23441   23442   23443   23444   23445   23446   23447
   23448   23449   23450   23451   23452   23453   23454   23455
   23456   23457   23458   23459   23460   23461   23462   23463
   23464   23465   23466   23467   23468   23469   23470   23471
   23472   23473   23474   23475   23476   23477   23478   23479
   23480   23481   23482   23483   23484   23485   23486   23487
   23488   23489   23490   23491   23492   23493   23494   23495
   23496   23497   23498   23499   23500   23501   23502   23503
   23504   23505   23506   23507   23508   23509   23510   23511
   23512   23513   23514   23515   23516   23517   23518   23519
   23520   23521   23522   23523   23524   23525   23526   23527
   23528   23529   23530   23531   23532   23533   23534   23535
   23536   23537   23538   23539   23540   23541   23542   23543
   23544   23545   23546   23547   23548   23549   23550   23551
   23552   23553   23554   23555   23556   23557   23558   23559
   23560   23561   23562   23563   23564   23565   23566   23567
   23568   23569   23570   23571   23572   23573   23574   23575
   23576   23577   23578   23579   23580   23581   23582   23583
   23584   23585   23586   23587   23588   23589   23590   23591
   23592   23593   23594   23595   23596   23597   23598   23599
   23600   23601   23602   23603   23604   23605   23606   23607
   23608   23609   23610   23611   23612   23613   23614   23615
   23616   23617   23618   23619   23620   23621   23622   23623
   23624   23625   23626   23627   23628   23629   23630   23631
   23632   23633   23634   23635   23636   23637   23638   23639
   23640   23641   23642   23643   23644   23645   23646   23647
   23648   23649   23650   23651   23652   23653   23654   23655
   23656   23657   23658   23659   23660   23661   23662   23663
   23664   23665   23666   23667   23668   23669   23670   23671
   23672   23673   23674   23675   23676   23677   23678   23679
   23680   23681   23682   23683   23684   23685   23686   23687
   23688   23689   23690   23691   23692   23693   23694   23695
   23696   23697   23698   23699   23700   23701   23702   23703
   23704   23705   23706   23707   23708   23709   23710   23711
   23712   23713   23714   23715   23716   23717   23718   23719
   23720   23721   23722   23723   23724   23725   23726   23727
   23728   23729   23730   23731   23732   23733   23734   23735
   23736   23737   23738   23739   23740   23741   23742   23743
   23744   23745   23746   23747   23748   23749   23750   23751
   23752   23753   23754   23755   23756   23757   23758   23759
   23760   23761   23762   23763   23764   23765   23766   23767
   23768   23769   23770   23771   23772   23773   23774   23775
   23776   23777   23778   23779   23780   23781   23782   23783
   23784   23785   23786   23787   23788   23789   23790   23791
   23792   23793   23794   23795   23796   23797   23798   23799
   23800   23801   23802   23803   23804   23805   23806   23807
   23808   23809   23810   23811   23812   23813   23814   23815
   23816   23817   23818   23819   23820   23821   23822   23823
   23824   23825   23826   23827   23828   23829   23830   23831
   23832   23833   23834   23835   23836   23837   23838   23839
   23840   23841   23842   23843   23844   23845   23846   23847
   23848   23849   23850   23851   23852   23853   23854   23855
   23856   23857   23858   23859   23860   23861   23862   23863
   23864   23865   23866   23867   23868   23869   23870   23871
   23872   23873   23874   23875   23876   23877   23878   23879
   23880   23881   23882   23883   23884   23885   23886   23887
   23888   23889   23890   23891   23892   23893   23894   23895
   23896   23897   23898   23899   23900   23901   23902   23903
   23904   23905   23906   23907   23908   23909   23910   23911
   23912   23913   23914   23915   23916   23917   23918   23919
   23920   23921   23922   23923   23924   23925   23926   23927
   23928   23929   23930   23931   23932   23933   23934   23935
   23936   23937   23938   23939   23940   23941   23942   23943
   23944   23945   23946   23947   23948   23949   23950   23951
   23952   23953   23954   23955   23956   23957   23958   23959
   23960   23961   23962   23963   23964   23965   23966   23967
   23968   23969   23970   23971   23972   23973   23974   23975
   23976   23977   23978   23979   23980   23981   23982   23983
   23984   23985   23986   23987   23988   23989   23990   23991
   23992   23993   23994   23995   23996   23997   23998   23999
   24000   24001   24002   24003   24004   24005   24006   24007
   24008   24009   24010   24011   24012   24013   24014   24015
   24016   24017   24018   24019   24020   24021   24022   24023
   24024   24025   24026   24027   24028   24029   24030   24031
   24032   24033   24034   24035

   20259 !NTHETA: angles
       1       5       6       1       5       7       2       1       4
       2       1       3       3       1       4       5       7       9
       5       7       8       5       1       4       5       1       3
       5       1       2       7       9      10       7       9      22
       7       5       6       8       7       9       9      22      23
       9      22      24       9      11      13       9      11      12
       9      11      14      11      14      16      11      14      15
      11      14      17      11       9      10      11       9      22
      11       9       7      12      11      13      14      17      18
      14      17      19      14      11      13      14      11      12
      15      14      16      17      19      21      17      19      20
      17      14      16      17      14      15      19      17      18
      20      19      21      22      24      26      22      24      25
      22       9      10      24      26      27      24      26      32
      24      22      23      25      24      26      26      32      33
      26      32      34      26      28      31      26      28      30
      26      28      29      28      26      27      28      26      32
      28      26      24      29      28      31      29      28      30
      30      28      31      32      34      35      32      34      38
      32      26      27      34      38      39      34      38      40
      34      35      37      34      35      36      34      32      33
      35      43      45      35      43      44      36      35      37
      38      46      47      38      46      48      38      40      42
      38      40      41      38      40      43      38      34      35
      40      43      45      40      43      44      40      43      35
      40      38      39      41      40      42      43      40      42
      43      40      41      43      35      37      43      35      36
      43      35      34      44      43      45      46      48      50
      46      48      49      46      38      39      46      38      40
      46      38      34      48      50      51      48      50      56
      48      46      47      49      48      50      50      56      57
      50      56      58      50      52      55      50      52      54
      50      52      53      52      50      51      52      50      56
      52      50      48      53      52      55      53      52      54
      54      52      55      56      58      60      56      58      59
      56      50      51      58      60      61      58      60      77
      58      56      57      59      58      60      60      77      78
      60      77      79      60      62      64      60      62      63
      60      62      65      62      65      66      62      65      73
      62      60      61      62      60      77      62      60      58
      63      62      64      65      73      75      65      73      74
      65      62      64      65      62      63      66      68      70
      66      68      69      67      66      65      68      66      65
      68      66      67      69      68      70      70      75      73
      70      75      76      70      71      72      71      70      68
      73      65      66      74      73      75      75      70      68
      75      70      71      76      75      73      77      79      81
      77      79      80      77      60      61      79      81      82
      79      81      99      79      77      78      80      79      81
      81      99     100      81      99     101      81      83      85
      81      83      84      81      83      86      83      86      88
      83      86      87      83      86      89      83      81      82
      83      81      99      83      81      79      84      83      85
      86      89      91      86      89      90      86      89      92
      86      83      85      86      83      84      87      86      88
      89      92      94      89      92      93      89      92      95
      89      86      88      89      86      87      90      89      91
      92      95      98      92      95      97      92      95      96
      92      89      91      92      89      90      93      92      94
      95      92      94      95      92      93      96      95      98
      96      95      97      97      95      98      99     101     103
      99     101     102      99      81      82     101     103     104
     101     103     121     101      99     100     102     101     103
     103     121     122     103     121     123     103     105     107
     103     105     106     103     105     108     105     108     110
     105     108     109     105     108     111     105     103     104
     105     103     121     105     103     101     106     105     107
     108     111     113     108     111     112     108     111     114
     108     105     107     108     105     106     109     108     110
     111     114     116     111     114     115     111     114     117
     111     108     110     111     108     109     112     111     113
     114     117     120     114     117     119     114     117     118
     114     111     113     114     111     112     115     114     116
     117     114     116     117     114     115     118     117     120
     118     117     119     119     117     120     121     123     125
     121     123     124     121     103     104     123     125     126
     123     125     131     123     121     122     124     123     125
     125     131     132     125     131     133     125     127     130
     125     127     129     125     127     128     127     125     126
     127     125     131     127     125     123     128     127     130
     128     127     129     129     127     130     131     133     135
     131     133     134     131     125     126     133     135     136
     133     135     141     133     131     132     134     133     135
     135     141     142     135     141     143     135     137     140
     135     137     139     135     137     138     137     135     136
     137     135     141     137     135     133     138     137     140
     138     137     139     139     137     140     141     143     145
     141     143     144     141     135     136     143     145     146
     143     145     163     143     141     142     144     143     145
     145     163     164     145     163     165     145     147     149
     145     147     148     145     147     150     147     150     152
     147     150     151     147     150     153     147     145     146
     147     145     163     147     145     143     148     147     149
     150     153     155     150     153     154     150     153     156
     150     147     149     150     147     148     151     150     152
     153     156     158     153     156     157     153     156     159
     153     150     152     153     150     151     154     153     155
     156     159     162     156     159     161     156     159     160
     156     153     155     156     153     154     157     156     158
     159     156     158     159     156     157     160     159     162
     160     159     161     161     159     162     163     165     167
     163     165     166     163     145     146     165     167     168
     165     167     185     165     163     164     166     165     167
     167     185     186     167     185     187     167     169     171
     167     169     170     167     169     172     169     172     174
     169     172     173     169     172     175     169     167     168
     169     167     185     169     167     165     170     169     171
     172     175     177     172     175     176     172     175     178
     172     169     171     172     169     170     173     172     174
     175     178     180     175     178     179     175     178     181
     175     172     174     175     172     173     176     175     177
     178     181     184     178     181     183     178     181     182
     178     175     177     178     175     176     179     178     180
     181     178     180     181     178     179     182     181     184
     182     181     183     183     181     184     185     187     189
     185     187     188     185     167     168     187     189     190
     187     189     204     187     185     186     188     187     189
     189     204     205     189     204     206     189     191     193
     189     191     192     189     191     194     191     194     195
     191     194     200     191     194     196     191     189     190
     191     189     204     191     189     187     192     191     193
     194     200     203     194     200     202     194     200     201
     194     196     199     194     196     198     194     196     197
     194     191     193     194     191     192     196     194     195
     196     194     200     197     196     199     197     196     198
     198     196     199     200     194     195     201     200     203
     201     200     202     202     200     203     204     206     208
     204     206     207     204     189     190     206     208     209
     206     208     214     206     204     205     207     206     208
     208     214     215     208     214     216     208     210     213
     208     210     212     208     210     211     210     208     209
     210     208     214     210     208     206     211     210     213
     211     210     212     212     210     213     214     216     218
     214     216     217     214     208     209     216     218     219
     216     218     229     216     214     215     217     216     218
     218     229     230     218     229     231     218     220     222
     218     220     221     218     220     223     220     223     225
     220     223     224     220     223     226     220     218     219
     220     218     229     220     218     216     221     220     222
     223     226     227     223     226     228     223     220     222
     223     220     221     224     223     225     226     223     225
     226     223     224     228     226     227     229     231     233
     229     231     232     229     218     219     231     233     234
     231     233     240     231     229     230     232     231     233
     233     240     242     233     240     241     233     235     237
     233     235     236     233     235     238     235     238     239
     235     233     234     235     233     240     235     233     231
     236     235     237     238     235     237     238     235     236
     240     242     244     240     242     243     240     233     234
     241     240     242     242     244     247     242     244     246
     242     244     245     243     242     244     245     244     247
     245     244     246     246     244     247     248     294     291
     248     294     296     248     294     295     248     252     255
     248     252     254     248     252     253     248     250     251
     249     248     252     249     248     294     250     248     252
     250     248     294     250     248     249     252     255     256
     252     255     286     253     252     255     253     252     254
     254     252     255     255     286     284     255     286     287
     255     286     291     255     256     258     255     256     257
     256     258     261     256     258     260     256     258     259
     257     256     258     258     261     263     258     261     284
     258     261     262     259     258     261     259     258     260
     260     258     261     261     284     281     261     284     286
     261     284     285     261     263     265     261     263     273
     261     263     264     262     261     263     262     261     284
     263     273     271     263     273     274     263     273     278
     263     265     268     263     265     267     263     265     266
     264     263     265     264     263     273     265     268     271
     265     268     270     265     268     269     266     265     268
     266     265     267     267     265     268     268     271     297
     268     271     273     268     271     272     269     268     271
     269     268     270     270     268     271     271     297     303
     271     297     299     271     297     298     272     271     297
     272     271     273     273     278     281     273     278     280
     273     278     279     273     274     277     273     274     276
     273     274     275     273     271     297     273     263     265
     274     273     271     275     274     277     275     274     276
     276     274     277     278     281     284     278     281     283
     278     281     282     278     273     271     278     273     274
     279     278     281     279     278     280     280     278     281
     282     281     284     282     281     283     283     281     284
     284     261     263     285     284     281     285     284     286
     286     287     290     286     287     289     286     287     288
     286     284     281     286     255     256     287     286     284
     288     287     290     288     287     289     289     287     290
     291     286     284     291     286     287     292     291     286
     292     291     293     293     291     286     294     291     286
     294     291     293     294     291     292     294     248     252
     295     294     291     295     294     296     296     294     291
     297     303     306     297     303     305     297     303     304
     297     299     302     297     299     301     297     299     300
     298     297     303     298     297     299     299     297     303
     300     299     302     300     299     301     301     299     302
     303     306     309     303     306     308     303     306     307
     304     303     306     304     303     305     305     303     306
     306     309     312     306     309     311     306     309     310
     307     306     309     307     306     308     308     306     309
     309     312     318     309     312     314     309     312     313
     310     309     312     310     309     311     311     309     312
     312     318     321     312     318     320     312     318     319
     312     314     317     312     314     316     312     314     315
     313     312     318     313     312     314     314     312     318
     315     314     317     315     314     316     316     314     317
     319     318     321     319     318     320     320     318     321
     322     368     365     322     368     370     322     368     369
     322     326     329     322     326     328     322     326     327
     322     324     325     323     322     326     323     322     368
     324     322     326     324     322     368     324     322     323
     326     329     330     326     329     360     327     326     329
     327     326     328     328     326     329     329     360     358
     329     360     361     329     360     365     329     330     332
     329     330     331     330     332     335     330     332     334
     330     332     333     331     330     332     332     335     337
     332     335     358     332     335     336     333     332     335
     333     332     334     334     332     335     335     358     355
     335     358     360     335     358     359     335     337     339
     335     337     347     335     337     338     336     335     337
     336     335     358     337     347     345     337     347     348
     337     347     352     337     339     342     337     339     341
     337     339     340     338     337     339     338     337     347
     339     342     345     339     342     344     339     342     343
     340     339     342     340     339     341     341     339     342
     342     345     371     342     345     347     342     345     346
     343     342     345     343     342     344     344     342     345
     345     371     377     345     371     373     345     371     372
     346     345     371     346     345     347     347     352     355
     347     352     354     347     352     353     347     348     351
     347     348     350     347     348     349     347     345     371
     347     337     339     348     347     345     349     348     351
     349     348     350     350     348     351     352     355     358
     352     355     357     352     355     356     352     347     345
     352     347     348     353     352     355     353     352     354
     354     352     355     356     355     358     356     355     357
     357     355     358     358     335     337     359     358     355
     359     358     360     360     361     364     360     361     363
     360     361     362     360     358     355     360     329     330
     361     360     358     362     361     364     362     361     363
     363     361     364     365     360     358     365     360     361
     366     365     360     366     365     367     367     365     360
     368     365     360     368     365     367     368     365     366
     368     322     326     369     368     365     369     368     370
     370     368     365     371     377     380     371     377     379
     371     377     378     371     373     376     371     373     375
     371     373     374     372     371     377     372     371     373
     373     371     377     374     373     376     374     373     375
     375     373     376     377     380     383     377     380     382
     377     380     381     378     377     380     378     377     379
     379     377     380     380     383     386     380     383     385
     380     383     384     381     380     383     381     380     382
     382     380     383     383     386     392     383     386     388
     383     386     387     384     383     386     384     383     385
     385     383     386     386     392     395     386     392     394
     386     392     393     386     388     391     386     388     390
     386     388     389     387     386     392     387     386     388
     388     386     392     389     388     391     389     388     390
     390     388     391     393     392     395     393     392     394
     394     392     395     396     442     439     396     442     444
     396     442     443     396     400     403     396     400     402
     396     400     401     396     398     399     397     396     400
     397     396     442     398     396     400     398     396     442
     398     396     397     400     403     404     400     403     434
     401     400     403     401     400     402     402     400     403
     403     434     432     403     434     435     403     434     439
     403     404     406     403     404     405     404     406     409
     404     406     408     404     406     407     405     404     406
     406     409     411     406     409     432     406     409     410
     407     406     409     407     406     408     408     406     409
     409     432     429     409     432     434     409     432     433
     409     411     413     409     411     421     409     411     412
     410     409     411     410     409     432     411     421     419
     411     421     422     411     421     426     411     413     416
     411     413     415     411     413     414     412     411     413
     412     411     421     413     416     419     413     416     418
     413     416     417     414     413     416     414     413     415
     415     413     416     416     419     445     416     419     421
     416     419     420     417     416     419     417     416     418
     418     416     419     419     445     451     419     445     447
     419     445     446     420     419     445     420     419     421
     421     426     429     421     426     428     421     426     427
     421     422     425     421     422     424     421     422     423
     421     419     445     421     411     413     422     421     419
     423     422     425     423     422     424     424     422     425
     426     429     432     426     429     431     426     429     430
     426     421     419     426     421     422     427     426     429
     427     426     428     428     426     429     430     429     432
     430     429     431     431     429     432     432     409     411
     433     432     429     433     432     434     434     435     438
     434     435     437     434     435     436     434     432     429
     434     403     404     435     434     432     436     435     438
     436     435     437     437     435     438     439     434     432
     439     434     435     440     439     434     440     439     441
     441     439     434     442     439     434     442     439     441
     442     439     440     442     396     400     443     442     439
     443     442     444     444     442     439     445     451     454
     445     451     453     445     451     452     445     447     450
     445     447     449     445     447     448     446     445     451
     446     445     447     447     445     451     448     447     450
     448     447     449     449     447     450     451     454     457
     451     454     456     451     454     455     452     451     454
     452     451     453     453     451     454     454     457     460
     454     457     459     454     457     458     455     454     457
     455     454     456     456     454     457     457     460     466
     457     460     462     457     460     461     458     457     460
     458     457     459     459     457     460     460     466     469
     460     466     468     460     466     467     460     462     465
     460     462     464     460     462     463     461     460     466
     461     460     462     462     460     466     463     462     465
     463     462     464     464     462     465     467     466     469
     467     466     468     468     466     469     470     516     513
     470     516     518     470     516     517     470     474     477
     470     474     476     470     474     475     470     472     473
     471     470     474     471     470     516     472     470     474
     472     470     516     472     470     471     474     477     478
     474     477     508     475     474     477     475     474     476
     476     474     477     477     508     506     477     508     509
     477     508     513     477     478     480     477     478     479
     478     480     483     478     480     482     478     480     481
     479     478     480     480     483     485     480     483     506
     480     483     484     481     480     483     481     480     482
     482     480     483     483     506     503     483     506     508
     483     506     507     483     485     487     483     485     495
     483     485     486     484     483     485     484     483     506
     485     495     493     485     495     496     485     495     500
     485     487     490     485     487     489     485     487     488
     486     485     487     486     485     495     487     490     493
     487     490     492     487     490     491     488     487     490
     488     487     489     489     487     490     490     493     519
     490     493     495     490     493     494     491     490     493
     491     490     492     492     490     493     493     519     525
     493     519     521     493     519     520     494     493     519
     494     493     495     495     500     503     495     500     502
     495     500     501     495     496     499     495     496     498
     495     496     497     495     493     519     495     485     487
     496     495     493     497     496     499     497     496     498
     498     496     499     500     503     506     500     503     505
     500     503     504     500     495     493     500     495     496
     501     500     503     501     500     502     502     500     503
     504     503     506     504     503     505     505     503     506
     506     483     485     507     506     503     507     506     508
     508     509     512     508     509     511     508     509     510
     508     506     503     508     477     478     509     508     506
     510     509     512     510     509     511     511     509     512
     513     508     506     513     508     509     514     513     508
     514     513     515     515     513     508     516     513     508
     516     513     515     516     513     514     516     470     474
     517     516     513     517     516     518     518     516     513
     519     525     528     519     525     527     519     525     526
     519     521     524     519     521     523     519     521     522
     520     519     525     520     519     521     521     519     525
     522     521     524     522     521     523     523     521     524
     525     528     531     525     528     530     525     528     529
     526     525     528     526     525     527     527     525     528
     528     531     534     528     531     533     528     531     532
     529     528     531     529     528     530     530     528     531
     531     534     540     531     534     536     531     534     535
     532     531     534     532     531     533     533     531     534
     534     540     543     534     540     542     534     540     541
     534     536     539     534     536     538     534     536     537
     535     534     540     535     534     536     536     534     540
     537     536     539     537     536     538     538     536     539
     541     540     543     541     540     542     542     540     543
     544     590     587     544     590     592     544     590     591
     544     548     551     544     548     550     544     548     549
     544     546     547     545     544     548     545     544     590
     546     544     548     546     544     590     546     544     545
     548     551     552     548     551     582     549     548     551
     549     548     550     550     548     551     551     582     580
     551     582     583     551     582     587     551     552     554
     551     552     553     552     554     557     552     554     556
     552     554     555     553     552     554     554     557     559
     554     557     580     554     557     558     555     554     557
     555     554     556     556     554     557     557     580     577
     557     580     582     557     580     581     557     559     561
     557     559     569     557     559     560     558     557     559
     558     557     580     559     569     567     559     569     570
     559     569     574     559     561     564     559     561     563
     559     561     562     560     559     561     560     559     569
     561     564     567     561     564     566     561     564     565
     562     561     564     562     561     563     563     561     564
     564     567     593     564     567     569     564     567     568
     565     564     567     565     564     566     566     564     567
     567     593     599     567     593     595     567     593     594
     568     567     593     568     567     569     569     574     577
     569     574     576     569     574     575     569     570     573
     569     570     572     569     570     571     569     567     593
     569     559     561     570     569     567     571     570     573
     571     570     572     572     570     573     574     577     580
     574     577     579     574     577     578     574     569     567
     574     569     570     575     574     577     575     574     576
     576     574     577     578     577     580     578     577     579
     579     577     580     580     557     559     581     580     577
     581     580     582     582     583     586     582     583     585
     582     583     584     582     580     577     582     551     552
     583     582     580     584     583     586     584     583     585
     585     583     586     587     582     580     587     582     583
     588     587     582     588     587     589     589     587     582
     590     587     582     590     587     589     590     587     588
     590     544     548     591     590     587     591     590     592
     592     590     587     593     599     602     593     599     601
     593     599     600     593     595     598     593     595     597
     593     595     596     594     593     599     594     593     595
     595     593     599     596     595     598     596     595     597
     597     595     598     599     602     605     599     602     604
     599     602     603     600     599     602     600     599     601
     601     599     602     602     605     608     602     605     607
     602     605     606     603     602     605     603     602     604
     604     602     605     605     608     614     605     608     610
     605     608     609     606     605     608     606     605     607
     607     605     608     608     614     617     608     614     616
     608     614     615     608     610     613     608     610     612
     608     610     611     609     608     614     609     608     610
     610     608     614     611     610     613     611     610     612
     612     610     613     615     614     617     615     614     616
     616     614     617     618     664     661     618     664     666
     618     664     665     618     622     625     618     622     624
     618     622     623     618     620     621     619     618     622
     619     618     664     620     618     622     620     618     664
     620     618     619     622     625     626     622     625     656
     623     622     625     623     622     624     624     622     625
     625     656     654     625     656     657     625     656     661
     625     626     628     625     626     627     626     628     631
     626     628     630     626     628     629     627     626     628
     628     631     633     628     631     654     628     631     632
     629     628     631     629     628     630     630     628     631
     631     654     651     631     654     656     631     654     655
     631     633     635     631     633     643     631     633     634
     632     631     633     632     631     654     633     643     641
     633     643     644     633     643     648     633     635     638
     633     635     637     633     635     636     634     633     635
     634     633     643     635     638     641     635     638     640
     635     638     639     636     635     638     636     635     637
     637     635     638     638     641     667     638     641     643
     638     641     642     639     638     641     639     638     640
     640     638     641     641     667     673     641     667     669
     641     667     668     642     641     667     642     641     643
     643     648     651     643     648     650     643     648     649
     643     644     647     643     644     646     643     644     645
     643     641     667     643     633     635     644     643     641
     645     644     647     645     644     646     646     644     647
     648     651     654     648     651     653     648     651     652
     648     643     641     648     643     644     649     648     651
     649     648     650     650     648     651     652     651     654
     652     651     653     653     651     654     654     631     633
     655     654     651     655     654     656     656     657     660
     656     657     659     656     657     658     656     654     651
     656     625     626     657     656     654     658     657     660
     658     657     659     659     657     660     661     656     654
     661     656     657     662     661     656     662     661     663
     663     661     656     664     661     656     664     661     663
     664     661     662     664     618     622     665     664     661
     665     664     666     666     664     661     667     673     676
     667     673     675     667     673     674     667     669     672
     667     669     671     667     669     670     668     667     673
     668     667     669     669     667     673     670     669     672
     670     669     671     671     669     672     673     676     679
     673     676     678     673     676     677     674     673     676
     674     673     675     675     673     676     676     679     682
     676     679     681     676     679     680     677     676     679
     677     676     678     678     676     679     679     682     688
     679     682     684     679     682     683     680     679     682
     680     679     681     681     679     682     682     688     691
     682     688     690     682     688     689     682     684     687
     682     684     686     682     684     685     683     682     688
     683     682     684     684     682     688     685     684     687
     685     684     686     686     684     687     689     688     691
     689     688     690     690     688     691     692     738     735
     692     738     740     692     738     739     692     696     699
     692     696     698     692     696     697     692     694     695
     693     692     696     693     692     738     694     692     696
     694     692     738     694     692     693     696     699     700
     696     699     730     697     696     699     697     696     698
     698     696     699     699     730     728     699     730     731
     699     730     735     699     700     702     699     700     701
     700     702     705     700     702     704     700     702     703
     701     700     702     702     705     707     702     705     728
     702     705     706     703     702     705     703     702     704
     704     702     705     705     728     725     705     728     730
     705     728     729     705     707     709     705     707     717
     705     707     708     706     705     707     706     705     728
     707     717     715     707     717     718     707     717     722
     707     709     712     707     709     711     707     709     710
     708     707     709     708     707     717     709     712     715
     709     712     714     709     712     713     710     709     712
     710     709     711     711     709     712     712     715     741
     712     715     717     712     715     716     713     712     715
     713     712     714     714     712     715     715     741     747
     715     741     743     715     741     742     716     715     741
     716     715     717     717     722     725     717     722     724
     717     722     723     717     718     721     717     718     720
     717     718     719     717     715     741     717     707     709
     718     717     715     719     718     721     719     718     720
     720     718     721     722     725     728     722     725     727
     722     725     726     722     717     715     722     717     718
     723     722     725     723     722     724     724     722     725
     726     725     728     726     725     727     727     725     728
     728     705     707     729     728     725     729     728     730
     730     731     734     730     731     733     730     731     732
     730     728     725     730     699     700     731     730     728
     732     731     734     732     731     733     733     731     734
     735     730     728     735     730     731     736     735     730
     736     735     737     737     735     730     738     735     730
     738     735     737     738     735     736     738     692     696
     739     738     735     739     738     740     740     738     735
     741     747     750     741     747     749     741     747     748
     741     743     746     741     743     745     741     743     744
     742     741     747     742     741     743     743     741     747
     744     743     746     744     743     745     745     743     746
     747     750     753     747     750     752     747     750     751
     748     747     750     748     747     749     749     747     750
     750     753     756     750     753     755     750     753     754
     751     750     753     751     750     752     752     750     753
     753     756     762     753     756     758     753     756     757
     754     753     756     754     753     755     755     753     756
     756     762     765     756     762     764     756     762     763
     756     758     761     756     758     760     756     758     759
     757     756     762     757     756     758     758     756     762
     759     758     761     759     758     760     760     758     761
     763     762     765     763     762     764     764     762     765
     766     812     809     766     812     814     766     812     813
     766     770     773     766     770     772     766     770     771
     766     768     769     767     766     770     767     766     812
     768     766     770     768     766     812     768     766     767
     770     773     774     770     773     804     771     770     773
     771     770     772     772     770     773     773     804     802
     773     804     805     773     804     809     773     774     776
     773     774     775     774     776     779     774     776     778
     774     776     777     775     774     776     776     779     781
     776     779     802     776     779     780     777     776     779
     777     776     778     778     776     779     779     802     799
     779     802     804     779     802     803     779     781     783
     779     781     791     779     781     782     780     779     781
     780     779     802     781     791     789     781     791     792
     781     791     796     781     783     786     781     783     785
     781     783     784     782     781     783     782     781     791
     783     786     789     783     786     788     783     786     787
     784     783     786     784     783     785     785     783     786
     786     789     815     786     789     791     786     789     790
     787     786     789     787     786     788     788     786     789
     789     815     821     789     815     817     789     815     816
     790     789     815     790     789     791     791     796     799
     791     796     798     791     796     797     791     792     795
     791     792     794     791     792     793     791     789     815
     791     781     783     792     791     789     793     792     795
     793     792     794     794     792     795     796     799     802
     796     799     801     796     799     800     796     791     789
     796     791     792     797     796     799     797     796     798
     798     796     799     800     799     802     800     799     801
     801     799     802     802     779     781     803     802     799
     803     802     804     804     805     808     804     805     807
     804     805     806     804     802     799     804     773     774
     805     804     802     806     805     808     806     805     807
     807     805     808     809     804     802     809     804     805
     810     809     804     810     809     811     811     809     804
     812     809     804     812     809     811     812     809     810
     812     766     770     813     812     809     813     812     814
     814     812     809     815     821     824     815     821     823
     815     821     822     815     817     820     815     817     819
     815     817     818     816     815     821     816     815     817
     817     815     821     818     817     820     818     817     819
     819     817     820     821     824     827     821     824     826
     821     824     825     822     821     824     822     821     823
     823     821     824     824     827     830     824     827     829
     824     827     828     825     824     827     825     824     826
     826     824     827     827     830     836     827     830     832
     827     830     831     828     827     830     828     827     829
     829     827     830     830     836     839     830     836     838
     830     836     837     830     832     835     830     832     834
     830     832     833     831     830     836     831     830     832
     832     830     836     833     832     835     833     832     834
     834     832     835     837     836     839     837     836     838
     838     836     839     840     886     883     840     886     888
     840     886     887     840     844     847     840     844     846
     840     844     845     840     842     843     841     840     844
     841     840     886     842     840     844     842     840     886
     842     840     841     844     847     848     844     847     878
     845     844     847     845     844     846     846     844     847
     847     878     876     847     878     879     847     878     883
     847     848     850     847     848     849     848     850     853
     848     850     852     848     850     851     849     848     850
     850     853     855     850     853     876     850     853     854
     851     850     853     851     850     852     852     850     853
     853     876     873     853     876     878     853     876     877
     853     855     857     853     855     865     853     855     856
     854     853     855     854     853     876     855     865     863
     855     865     866     855     865     870     855     857     860
     855     857     859     855     857     858     856     855     857
     856     855     865     857     860     863     857     860     862
     857     860     861     858     857     860     858     857     859
     859     857     860     860     863     889     860     863     865
     860     863     864     861     860     863     861     860     862
     862     860     863     863     889     895     863     889     891
     863     889     890     864     863     889     864     863     865
     865     870     873     865     870     872     865     870     871
     865     866     869     865     866     868     865     866     867
     865     863     889     865     855     857     866     865     863
     867     866     869     867     866     868     868     866     869
     870     873     876     870     873     875     870     873     874
     870     865     863     870     865     866     871     870     873
     871     870     872     872     870     873     874     873     876
     874     873     875     875     873     876     876     853     855
     877     876     873     877     876     878     878     879     882
     878     879     881     878     879     880     878     876     873
     878     847     848     879     878     876     880     879     882
     880     879     881     881     879     882     883     878     876
     883     878     879     884     883     878     884     883     885
     885     883     878     886     883     878     886     883     885
     886     883     884     886     840     844     887     886     883
     887     886     888     888     886     883     889     895     898
     889     895     897     889     895     896     889     891     894
     889     891     893     889     891     892     890     889     895
     890     889     891     891     889     895     892     891     894
     892     891     893     893     891     894     895     898     901
     895     898     900     895     898     899     896     895     898
     896     895     897     897     895     898     898     901     904
     898     901     903     898     901     902     899     898     901
     899     898     900     900     898     901     901     904     910
     901     904     906     901     904     905     902     901     904
     902     901     903     903     901     904     904     910     913
     904     910     912     904     910     911     904     906     909
     904     906     908     904     906     907     905     904     910
     905     904     906     906     904     910     907     906     909
     907     906     908     908     906     909     911     910     913
     911     910     912     912     910     913     914     960     957
     914     960     962     914     960     961     914     918     921
     914     918     920     914     918     919     914     916     917
     915     914     918     915     914     960     916     914     918
     916     914     960     916     914     915     918     921     922
     918     921     952     919     918     921     919     918     920
     920     918     921     921     952     950     921     952     953
     921     952     957     921     922     924     921     922     923
     922     924     927     922     924     926     922     924     925
     923     922     924     924     927     929     924     927     950
     924     927     928     925     924     927     925     924     926
     926     924     927     927     950     947     927     950     952
     927     950     951     927     929     931     927     929     939
     927     929     930     928     927     929     928     927     950
     929     939     937     929     939     940     929     939     944
     929     931     934     929     931     933     929     931     932
     930     929     931     930     929     939     931     934     937
     931     934     936     931     934     935     932     931     934
     932     931     933     933     931     934     934     937     963
     934     937     939     934     937     938     935     934     937
     935     934     936     936     934     937     937     963     969
     937     963     965     937     963     964     938     937     963
     938     937     939     939     944     947     939     944     946
     939     944     945     939     940     943     939     940     942
     939     940     941     939     937     963     939     929     931
     940     939     937     941     940     943     941     940     942
     942     940     943     944     947     950     944     947     949
     944     947     948     944     939     937     944     939     940
     945     944     947     945     944     946     946     944     947
     948     947     950     948     947     949     949     947     950
     950     927     929     951     950     947     951     950     952
     952     953     956     952     953     955     952     953     954
     952     950     947     952     921     922     953     952     950
     954     953     956     954     953     955     955     953     956
     957     952     950     957     952     953     958     957     952
     958     957     959     959     957     952     960     957     952
     960     957     959     960     957     958     960     914     918
     961     960     957     961     960     962     962     960     957
     963     969     972     963     969     971     963     969     970
     963     965     968     963     965     967     963     965     966
     964     963     969     964     963     965     965     963     969
     966     965     968     966     965     967     967     965     968
     969     972     975     969     972     974     969     972     973
     970     969     972     970     969     971     971     969     972
     972     975     978     972     975     977     972     975     976
     973     972     975     973     972     974     974     972     975
     975     978     984     975     978     980     975     978     979
     976     975     978     976     975     977     977     975     978
     978     984     987     978     984     986     978     984     985
     978     980     983     978     980     982     978     980     981
     979     978     984     979     978     980     980     978     984
     981     980     983     981     980     982     982     980     983
     985     984     987     985     984     986     986     984     987
     988    1034    1031     988    1034    1036     988    1034    1035
     988     992     995     988     992     994     988     992     993
     988     990     991     989     988     992     989     988    1034
     990     988     992     990     988    1034     990     988     989
     992     995     996     992     995    1026     993     992     995
     993     992     994     994     992     995     995    1026    1024
     995    1026    1027     995    1026    1031     995     996     998
     995     996     997     996     998    1001     996     998    1000
     996     998     999     997     996     998     998    1001    1003
     998    1001    1024     998    1001    1002     999     998    1001
     999     998    1000    1000     998    1001    1001    1024    1021
    1001    1024    1026    1001    1024    1025    1001    1003    1005
    1001    1003    1013    1001    1003    1004    1002    1001    1003
    1002    1001    1024    1003    1013    1011    1003    1013    1014
    1003    1013    1018    1003    1005    1008    1003    1005    1007
    1003    1005    1006    1004    1003    1005    1004    1003    1013
    1005    1008    1011    1005    1008    1010    1005    1008    1009
    1006    1005    1008    1006    1005    1007    1007    1005    1008
    1008    1011    1037    1008    1011    1013    1008    1011    1012
    1009    1008    1011    1009    1008    1010    1010    1008    1011
    1011    1037    1043    1011    1037    1039    1011    1037    1038
    1012    1011    1037    1012    1011    1013    1013    1018    1021
    1013    1018    1020    1013    1018    1019    1013    1014    1017
    1013    1014    1016    1013    1014    1015    1013    1011    1037
    1013    1003    1005    1014    1013    1011    1015    1014    1017
    1015    1014    1016    1016    1014    1017    1018    1021    1024
    1018    1021    1023    1018    1021    1022    1018    1013    1011
    1018    1013    1014    1019    1018    1021    1019    1018    1020
    1020    1018    1021    1022    1021    1024    1022    1021    1023
    1023    1021    1024    1024    1001    1003    1025    1024    1021
    1025    1024    1026    1026    1027    1030    1026    1027    1029
    1026    1027    1028    1026    1024    1021    1026     995     996
    1027    1026    1024    1028    1027    1030    1028    1027    1029
    1029    1027    1030    1031    1026    1024    1031    1026    1027
    1032    1031    1026    1032    1031    1033    1033    1031    1026
    1034    1031    1026    1034    1031    1033    1034    1031    1032
    1034     988     992    1035    1034    1031    1035    1034    1036
    1036    1034    1031    1037    1043    1046    1037    1043    1045
    1037    1043    1044    1037    1039    1042    1037    1039    1041
    1037    1039    1040    1038    1037    1043    1038    1037    1039
    1039    1037    1043    1040    1039    1042    1040    1039    1041
    1041    1039    1042    1043    1046    1049    1043    1046    1048
    1043    1046    1047    1044    1043    1046    1044    1043    1045
    1045    1043    1046    1046    1049    1052    1046    1049    1051
    1046    1049    1050    1047    1046    1049    1047    1046    1048
    1048    1046    1049    1049    1052    1058    1049    1052    1054
    1049    1052    1053    1050    1049    1052    1050    1049    1051
    1051    1049    1052    1052    1058    1061    1052    1058    1060
    1052    1058    1059    1052    1054    1057    1052    1054    1056
    1052    1054    1055    1053    1052    1058    1053    1052    1054
    1054    1052    1058    1055    1054    1057    1055    1054    1056
    1056    1054    1057    1059    1058    1061    1059    1058    1060
    1060    1058    1061    1062    1108    1105    1062    1108    1110
    1062    1108    1109    1062    1066    1069    1062    1066    1068
    1062    1066    1067    1062    1064    1065    1063    1062    1066
    1063    1062    1108    1064    1062    1066    1064    1062    1108
    1064    1062    1063    1066    1069    1070    1066    1069    1100
    1067    1066    1069    1067    1066    1068    1068    1066    1069
    1069    1100    1098    1069    1100    1101    1069    1100    1105
    1069    1070    1072    1069    1070    1071    1070    1072    1075
    1070    1072    1074    1070    1072    1073    1071    1070    1072
    1072    1075    1077    1072    1075    1098    1072    1075    1076
    1073    1072    1075    1073    1072    1074    1074    1072    1075
    1075    1098    1095    1075    1098    1100    1075    1098    1099
    1075    1077    1079    1075    1077    1087    1075    1077    1078
    1076    1075    1077    1076    1075    1098    1077    1087    1085
    1077    1087    1088    1077    1087    1092    1077    1079    1082
    1077    1079    1081    1077    1079    1080    1078    1077    1079
    1078    1077    1087    1079    1082    1085    1079    1082    1084
    1079    1082    1083    1080    1079    1082    1080    1079    1081
    1081    1079    1082    1082    1085    1111    1082    1085    1087
    1082    1085    1086    1083    1082    1085    1083    1082    1084
    1084    1082    1085    1085    1111    1117    1085    1111    1113
    1085    1111    1112    1086    1085    1111    1086    1085    1087
    1087    1092    1095    1087    1092    1094    1087    1092    1093
    1087    1088    1091    1087    1088    1090    1087    1088    1089
    1087    1085    1111    1087    1077    1079    1088    1087    1085
    1089    1088    1091    1089    1088    1090    1090    1088    1091
    1092    1095    1098    1092    1095    1097    1092    1095    1096
    1092    1087    1085    1092    1087    1088    1093    1092    1095
    1093    1092    1094    1094    1092    1095    1096    1095    1098
    1096    1095    1097    1097    1095    1098    1098    1075    1077
    1099    1098    1095    1099    1098    1100    1100    1101    1104
    1100    1101    1103    1100    1101    1102    1100    1098    1095
    1100    1069    1070    1101    1100    1098    1102    1101    1104
    1102    1101    1103    1103    1101    1104    1105    1100    1098
    1105    1100    1101    1106    1105    1100    1106    1105    1107
    1107    1105    1100    1108    1105    1100    1108    1105    1107
    1108    1105    1106    1108    1062    1066    1109    1108    1105
    1109    1108    1110    1110    1108    1105    1111    1117    1120
    1111    1117    1119    1111    1117    1118    1111    1113    1116
    1111    1113    1115    1111    1113    1114    1112    1111    1117
    1112    1111    1113    1113    1111    1117    1114    1113    1116
    1114    1113    1115    1115    1113    1116    1117    1120    1123
    1117    1120    1122    1117    1120    1121    1118    1117    1120
    1118    1117    1119    1119    1117    1120    1120    1123    1126
    1120    1123    1125    1120    1123    1124    1121    1120    1123
    1121    1120    1122    1122    1120    1123    1123    1126    1132
    1123    1126    1128    1123    1126    1127    1124    1123    1126
    1124    1123    1125    1125    1123    1126    1126    1132    1135
    1126    1132    1134    1126    1132    1133    1126    1128    1131
    1126    1128    1130    1126    1128    1129    1127    1126    1132
    1127    1126    1128    1128    1126    1132    1129    1128    1131
    1129    1128    1130    1130    1128    1131    1133    1132    1135
    1133    1132    1134    1134    1132    1135    1136    1182    1179
    1136    1182    1184    1136    1182    1183    1136    1140    1143
    1136    1140    1142    1136    1140    1141    1136    1138    1139
    1137    1136    1140    1137    1136    1182    1138    1136    1140
    1138    1136    1182    1138    1136    1137    1140    1143    1144
    1140    1143    1174    1141    1140    1143    1141    1140    1142
    1142    1140    1143    1143    1174    1172    1143    1174    1175
    1143    1174    1179    1143    1144    1146    1143    1144    1145
    1144    1146    1149    1144    1146    1148    1144    1146    1147
    1145    1144    1146    1146    1149    1151    1146    1149    1172
    1146    1149    1150    1147    1146    1149    1147    1146    1148
    1148    1146    1149    1149    1172    1169    1149    1172    1174
    1149    1172    1173    1149    1151    1153    1149    1151    1161
    1149    1151    1152    1150    1149    1151    1150    1149    1172
    1151    1161    1159    1151    1161    1162    1151    1161    1166
    1151    1153    1156    1151    1153    1155    1151    1153    1154
    1152    1151    1153    1152    1151    1161    1153    1156    1159
    1153    1156    1158    1153    1156    1157    1154    1153    1156
    1154    1153    1155    1155    1153    1156    1156    1159    1185
    1156    1159    1161    1156    1159    1160    1157    1156    1159
    1157    1156    1158    1158    1156    1159    1159    1185    1191
    1159    1185    1187    1159    1185    1186    1160    1159    1185
    1160    1159    1161    1161    1166    1169    1161    1166    1168
    1161    1166    1167    1161    1162    1165    1161    1162    1164
    1161    1162    1163    1161    1159    1185    1161    1151    1153
    1162    1161    1159    1163    1162    1165    1163    1162    1164
    1164    1162    1165    1166    1169    1172    1166    1169    1171
    1166    1169    1170    1166    1161    1159    1166    1161    1162
    1167    1166    1169    1167    1166    1168    1168    1166    1169
    1170    1169    1172    1170    1169    1171    1171    1169    1172
    1172    1149    1151    1173    1172    1169    1173    1172    1174
    1174    1175    1178    1174    1175    1177    1174    1175    1176
    1174    1172    1169    1174    1143    1144    1175    1174    1172
    1176    1175    1178    1176    1175    1177    1177    1175    1178
    1179    1174    1172    1179    1174    1175    1180    1179    1174
    1180    1179    1181    1181    1179    1174    1182    1179    1174
    1182    1179    1181    1182    1179    1180    1182    1136    1140
    1183    1182    1179    1183    1182    1184    1184    1182    1179
    1185    1191    1194    1185    1191    1193    1185    1191    1192
    1185    1187    1190    1185    1187    1189    1185    1187    1188
    1186    1185    1191    1186    1185    1187    1187    1185    1191
    1188    1187    1190    1188    1187    1189    1189    1187    1190
    1191    1194    1197    1191    1194    1196    1191    1194    1195
    1192    1191    1194    1192    1191    1193    1193    1191    1194
    1194    1197    1200    1194    1197    1199    1194    1197    1198
    1195    1194    1197    1195    1194    1196    1196    1194    1197
    1197    1200    1206    1197    1200    1202    1197    1200    1201
    1198    1197    1200    1198    1197    1199    1199    1197    1200
    1200    1206    1209    1200    1206    1208    1200    1206    1207
    1200    1202    1205    1200    1202    1204    1200    1202    1203
    1201    1200    1206    1201    1200    1202    1202    1200    1206
    1203    1202    1205    1203    1202    1204    1204    1202    1205
    1207    1206    1209    1207    1206    1208    1208    1206    1209
    1210    1256    1253    1210    1256    1258    1210    1256    1257
    1210    1214    1217    1210    1214    1216    1210    1214    1215
    1210    1212    1213    1211    1210    1214    1211    1210    1256
    1212    1210    1214    1212    1210    1256    1212    1210    1211
    1214    1217    1218    1214    1217    1248    1215    1214    1217
    1215    1214    1216    1216    1214    1217    1217    1248    1246
    1217    1248    1249    1217    1248    1253    1217    1218    1220
    1217    1218    1219    1218    1220    1223    1218    1220    1222
    1218    1220    1221    1219    1218    1220    1220    1223    1225
    1220    1223    1246    1220    1223    1224    1221    1220    1223
    1221    1220    1222    1222    1220    1223    1223    1246    1243
    1223    1246    1248    1223    1246    1247    1223    1225    1227
    1223    1225    1235    1223    1225    1226    1224    1223    1225
    1224    1223    1246    1225    1235    1233    1225    1235    1236
    1225    1235    1240    1225    1227    1230    1225    1227    1229
    1225    1227    1228    1226    1225    1227    1226    1225    1235
    1227    1230    1233    1227    1230    1232    1227    1230    1231
    1228    1227    1230    1228    1227    1229    1229    1227    1230
    1230    1233    1259    1230    1233    1235    1230    1233    1234
    1231    1230    1233    1231    1230    1232    1232    1230    1233
    1233    1259    1265    1233    1259    1261    1233    1259    1260
    1234    1233    1259    1234    1233    1235    1235    1240    1243
    1235    1240    1242    1235    1240    1241    1235    1236    1239
    1235    1236    1238    1235    1236    1237    1235    1233    1259
    1235    1225    1227    1236    1235    1233    1237    1236    1239
    1237    1236    1238    1238    1236    1239    1240    1243    1246
    1240    1243    1245    1240    1243    1244    1240    1235    1233
    1240    1235    1236    1241    1240    1243    1241    1240    1242
    1242    1240    1243    1244    1243    1246    1244    1243    1245
    1245    1243    1246    1246    1223    1225    1247    1246    1243
    1247    1246    1248    1248    1249    1252    1248    1249    1251
    1248    1249    1250    1248    1246    1243    1248    1217    1218
    1249    1248    1246    1250    1249    1252    1250    1249    1251
    1251    1249    1252    1253    1248    1246    1253    1248    1249
    1254    1253    1248    1254    1253    1255    1255    1253    1248
    1256    1253    1248    1256    1253    1255    1256    1253    1254
    1256    1210    1214    1257    1256    1253    1257    1256    1258
    1258    1256    1253    1259    1265    1268    1259    1265    1267
    1259    1265    1266    1259    1261    1264    1259    1261    1263
    1259    1261    1262    1260    1259    1265    1260    1259    1261
    1261    1259    1265    1262    1261    1264    1262    1261    1263
    1263    1261    1264    1265    1268    1271    1265    1268    1270
    1265    1268    1269    1266    1265    1268    1266    1265    1267
    1267    1265    1268    1268    1271    1274    1268    1271    1273
    1268    1271    1272    1269    1268    1271    1269    1268    1270
    1270    1268    1271    1271    1274    1280    1271    1274    1276
    1271    1274    1275    1272    1271    1274    1272    1271    1273
    1273    1271    1274    1274    1280    1283    1274    1280    1282
    1274    1280    1281    1274    1276    1279    1274    1276    1278
    1274    1276    1277    1275    1274    1280    1275    1274    1276
    1276    1274    1280    1277    1276    1279    1277    1276    1278
    1278    1276    1279    1281    1280    1283    1281    1280    1282
    1282    1280    1283    1284    1330    1327    1284    1330    1332
    1284    1330    1331    1284    1288    1291    1284    1288    1290
    1284    1288    1289    1284    1286    1287    1285    1284    1288
    1285    1284    1330    1286    1284    1288    1286    1284    1330
    1286    1284    1285    1288    1291    1292    1288    1291    1322
    1289    1288    1291    1289    1288    1290    1290    1288    1291
    1291    1322    1320    1291    1322    1323    1291    1322    1327
    1291    1292    1294    1291    1292    1293    1292    1294    1297
    1292    1294    1296    1292    1294    1295    1293    1292    1294
    1294    1297    1299    1294    1297    1320    1294    1297    1298
    1295    1294    1297    1295    1294    1296    1296    1294    1297
    1297    1320    1317    1297    1320    1322    1297    1320    1321
    1297    1299    1301    1297    1299    1309    1297    1299    1300
    1298    1297    1299    1298    1297    1320    1299    1309    1307
    1299    1309    1310    1299    1309    1314    1299    1301    1304
    1299    1301    1303    1299    1301    1302    1300    1299    1301
    1300    1299    1309    1301    1304    1307    1301    1304    1306
    1301    1304    1305    1302    1301    1304    1302    1301    1303
    1303    1301    1304    1304    1307    1333    1304    1307    1309
    1304    1307    1308    1305    1304    1307    1305    1304    1306
    1306    1304    1307    1307    1333    1339    1307    1333    1335
    1307    1333    1334    1308    1307    1333    1308    1307    1309
    1309    1314    1317    1309    1314    1316    1309    1314    1315
    1309    1310    1313    1309    1310    1312    1309    1310    1311
    1309    1307    1333    1309    1299    1301    1310    1309    1307
    1311    1310    1313    1311    1310    1312    1312    1310    1313
    1314    1317    1320    1314    1317    1319    1314    1317    1318
    1314    1309    1307    1314    1309    1310    1315    1314    1317
    1315    1314    1316    1316    1314    1317    1318    1317    1320
    1318    1317    1319    1319    1317    1320    1320    1297    1299
    1321    1320    1317    1321    1320    1322    1322    1323    1326
    1322    1323    1325    1322    1323    1324    1322    1320    1317
    1322    1291    1292    1323    1322    1320    1324    1323    1326
    1324    1323    1325    1325    1323    1326    1327    1322    1320
    1327    1322    1323    1328    1327    1322    1328    1327    1329
    1329    1327    1322    1330    1327    1322    1330    1327    1329
    1330    1327    1328    1330    1284    1288    1331    1330    1327
    1331    1330    1332    1332    1330    1327    1333    1339    1342
    1333    1339    1341    1333    1339    1340    1333    1335    1338
    1333    1335    1337    1333    1335    1336    1334    1333    1339
    1334    1333    1335    1335    1333    1339    1336    1335    1338
    1336    1335    1337    1337    1335    1338    1339    1342    1345
    1339    1342    1344    1339    1342    1343    1340    1339    1342
    1340    1339    1341    1341    1339    1342    1342    1345    1348
    1342    1345    1347    1342    1345    1346    1343    1342    1345
    1343    1342    1344    1344    1342    1345    1345    1348    1354
    1345    1348    1350    1345    1348    1349    1346    1345    1348
    1346    1345    1347    1347    1345    1348    1348    1354    1357
    1348    1354    1356    1348    1354    1355    1348    1350    1353
    1348    1350    1352    1348    1350    1351    1349    1348    1354
    1349    1348    1350    1350    1348    1354    1351    1350    1353
    1351    1350    1352    1352    1350    1353    1355    1354    1357
    1355    1354    1356    1356    1354    1357    1358    1404    1401
    1358    1404    1406    1358    1404    1405    1358    1362    1365
    1358    1362    1364    1358    1362    1363    1358    1360    1361
    1359    1358    1362    1359    1358    1404    1360    1358    1362
    1360    1358    1404    1360    1358    1359    1362    1365    1366
    1362    1365    1396    1363    1362    1365    1363    1362    1364
    1364    1362    1365    1365    1396    1394    1365    1396    1397
    1365    1396    1401    1365    1366    1368    1365    1366    1367
    1366    1368    1371    1366    1368    1370    1366    1368    1369
    1367    1366    1368    1368    1371    1373    1368    1371    1394
    1368    1371    1372    1369    1368    1371    1369    1368    1370
    1370    1368    1371    1371    1394    1391    1371    1394    1396
    1371    1394    1395    1371    1373    1375    1371    1373    1383
    1371    1373    1374    1372    1371    1373    1372    1371    1394
    1373    1383    1381    1373    1383    1384    1373    1383    1388
    1373    1375    1378    1373    1375    1377    1373    1375    1376
    1374    1373    1375    1374    1373    1383    1375    1378    1381
    1375    1378    1380    1375    1378    1379    1376    1375    1378
    1376    1375    1377    1377    1375    1378    1378    1381    1407
    1378    1381    1383    1378    1381    1382    1379    1378    1381
    1379    1378    1380    1380    1378    1381    1381    1407    1413
    1381    1407    1409    1381    1407    1408    1382    1381    1407
    1382    1381    1383    1383    1388    1391    1383    1388    1390
    1383    1388    1389    1383    1384    1387    1383    1384    1386
    1383    1384    1385    1383    1381    1407    1383    1373    1375
    1384    1383    1381    1385    1384    1387    1385    1384    1386
    1386    1384    1387    1388    1391    1394    1388    1391    1393
    1388    1391    1392    1388    1383    1381    1388    1383    1384
    1389    1388    1391    1389    1388    1390    1390    1388    1391
    1392    1391    1394    1392    1391    1393    1393    1391    1394
    1394    1371    1373    1395    1394    1391    1395    1394    1396
    1396    1397    1400    1396    1397    1399    1396    1397    1398
    1396    1394    1391    1396    1365    1366    1397    1396    1394
    1398    1397    1400    1398    1397    1399    1399    1397    1400
    1401    1396    1394    1401    1396    1397    1402    1401    1396
    1402    1401    1403    1403    1401    1396    1404    1401    1396
    1404    1401    1403    1404    1401    1402    1404    1358    1362
    1405    1404    1401    1405    1404    1406    1406    1404    1401
    1407    1413    1416    1407    1413    1415    1407    1413    1414
    1407    1409    1412    1407    1409    1411    1407    1409    1410
    1408    1407    1413    1408    1407    1409    1409    1407    1413
    1410    1409    1412    1410    1409    1411    1411    1409    1412
    1413    1416    1419    1413    1416    1418    1413    1416    1417
    1414    1413    1416    1414    1413    1415    1415    1413    1416
    1416    1419    1422    1416    1419    1421    1416    1419    1420
    1417    1416    1419    1417    1416    1418    1418    1416    1419
    1419    1422    1428    1419    1422    1424    1419    1422    1423
    1420    1419    1422    1420    1419    1421    1421    1419    1422
    1422    1428    1431    1422    1428    1430    1422    1428    1429
    1422    1424    1427    1422    1424    1426    1422    1424    1425
    1423    1422    1428    1423    1422    1424    1424    1422    1428
    1425    1424    1427    1425    1424    1426    1426    1424    1427
    1429    1428    1431    1429    1428    1430    1430    1428    1431
    1432    1478    1475    1432    1478    1480    1432    1478    1479
    1432    1436    1439    1432    1436    1438    1432    1436    1437
    1432    1434    1435    1433    1432    1436    1433    1432    1478
    1434    1432    1436    1434    1432    1478    1434    1432    1433
    1436    1439    1440    1436    1439    1470    1437    1436    1439
    1437    1436    1438    1438    1436    1439    1439    1470    1468
    1439    1470    1471    1439    1470    1475    1439    1440    1442
    1439    1440    1441    1440    1442    1445    1440    1442    1444
    1440    1442    1443    1441    1440    1442    1442    1445    1447
    1442    1445    1468    1442    1445    1446    1443    1442    1445
    1443    1442    1444    1444    1442    1445    1445    1468    1465
    1445    1468    1470    1445    1468    1469    1445    1447    1449
    1445    1447    1457    1445    1447    1448    1446    1445    1447
    1446    1445    1468    1447    1457    1455    1447    1457    1458
    1447    1457    1462    1447    1449    1452    1447    1449    1451
    1447    1449    1450    1448    1447    1449    1448    1447    1457
    1449    1452    1455    1449    1452    1454    1449    1452    1453
    1450    1449    1452    1450    1449    1451    1451    1449    1452
    1452    1455    1481    1452    1455    1457    1452    1455    1456
    1453    1452    1455    1453    1452    1454    1454    1452    1455
    1455    1481    1487    1455    1481    1483    1455    1481    1482
    1456    1455    1481    1456    1455    1457    1457    1462    1465
    1457    1462    1464    1457    1462    1463    1457    1458    1461
    1457    1458    1460    1457    1458    1459    1457    1455    1481
    1457    1447    1449    1458    1457    1455    1459    1458    1461
    1459    1458    1460    1460    1458    1461    1462    1465    1468
    1462    1465    1467    1462    1465    1466    1462    1457    1455
    1462    1457    1458    1463    1462    1465    1463    1462    1464
    1464    1462    1465    1466    1465    1468    1466    1465    1467
    1467    1465    1468    1468    1445    1447    1469    1468    1465
    1469    1468    1470    1470    1471    1474    1470    1471    1473
    1470    1471    1472    1470    1468    1465    1470    1439    1440
    1471    1470    1468    1472    1471    1474    1472    1471    1473
    1473    1471    1474    1475    1470    1468    1475    1470    1471
    1476    1475    1470    1476    1475    1477    1477    1475    1470
    1478    1475    1470    1478    1475    1477    1478    1475    1476
    1478    1432    1436    1479    1478    1475    1479    1478    1480
    1480    1478    1475    1481    1487    1490    1481    1487    1489
    1481    1487    1488    1481    1483    1486    1481    1483    1485
    1481    1483    1484    1482    1481    1487    1482    1481    1483
    1483    1481    1487    1484    1483    1486    1484    1483    1485
    1485    1483    1486    1487    1490    1493    1487    1490    1492
    1487    1490    1491    1488    1487    1490    1488    1487    1489
    1489    1487    1490    1490    1493    1496    1490    1493    1495
    1490    1493    1494    1491    1490    1493    1491    1490    1492
    1492    1490    1493    1493    1496    1502    1493    1496    1498
    1493    1496    1497    1494    1493    1496    1494    1493    1495
    1495    1493    1496    1496    1502    1505    1496    1502    1504
    1496    1502    1503    1496    1498    1501    1496    1498    1500
    1496    1498    1499    1497    1496    1502    1497    1496    1498
    1498    1496    1502    1499    1498    1501    1499    1498    1500
    1500    1498    1501    1503    1502    1505    1503    1502    1504
    1504    1502    1505    1506    1552    1549    1506    1552    1554
    1506    1552    1553    1506    1510    1513    1506    1510    1512
    1506    1510    1511    1506    1508    1509    1507    1506    1510
    1507    1506    1552    1508    1506    1510    1508    1506    1552
    1508    1506    1507    1510    1513    1514    1510    1513    1544
    1511    1510    1513    1511    1510    1512    1512    1510    1513
    1513    1544    1542    1513    1544    1545    1513    1544    1549
    1513    1514    1516    1513    1514    1515    1514    1516    1519
    1514    1516    1518    1514    1516    1517    1515    1514    1516
    1516    1519    1521    1516    1519    1542    1516    1519    1520
    1517    1516    1519    1517    1516    1518    1518    1516    1519
    1519    1542    1539    1519    1542    1544    1519    1542    1543
    1519    1521    1523    1519    1521    1531    1519    1521    1522
    1520    1519    1521    1520    1519    1542    1521    1531    1529
    1521    1531    1532    1521    1531    1536    1521    1523    1526
    1521    1523    1525    1521    1523    1524    1522    1521    1523
    1522    1521    1531    1523    1526    1529    1523    1526    1528
    1523    1526    1527    1524    1523    1526    1524    1523    1525
    1525    1523    1526    1526    1529    1555    1526    1529    1531
    1526    1529    1530    1527    1526    1529    1527    1526    1528
    1528    1526    1529    1529    1555    1561    1529    1555    1557
    1529    1555    1556    1530    1529    1555    1530    1529    1531
    1531    1536    1539    1531    1536    1538    1531    1536    1537
    1531    1532    1535    1531    1532    1534    1531    1532    1533
    1531    1529    1555    1531    1521    1523    1532    1531    1529
    1533    1532    1535    1533    1532    1534    1534    1532    1535
    1536    1539    1542    1536    1539    1541    1536    1539    1540
    1536    1531    1529    1536    1531    1532    1537    1536    1539
    1537    1536    1538    1538    1536    1539    1540    1539    1542
    1540    1539    1541    1541    1539    1542    1542    1519    1521
    1543    1542    1539    1543    1542    1544    1544    1545    1548
    1544    1545    1547    1544    1545    1546    1544    1542    1539
    1544    1513    1514    1545    1544    1542    1546    1545    1548
    1546    1545    1547    1547    1545    1548    1549    1544    1542
    1549    1544    1545    1550    1549    1544    1550    1549    1551
    1551    1549    1544    1552    1549    1544    1552    1549    1551
    1552    1549    1550    1552    1506    1510    1553    1552    1549
    1553    1552    1554    1554    1552    1549    1555    1561    1564
    1555    1561    1563    1555    1561    1562    1555    1557    1560
    1555    1557    1559    1555    1557    1558    1556    1555    1561
    1556    1555    1557    1557    1555    1561    1558    1557    1560
    1558    1557    1559    1559    1557    1560    1561    1564    1567
    1561    1564    1566    1561    1564    1565    1562    1561    1564
    1562    1561    1563    1563    1561    1564    1564    1567    1570
    1564    1567    1569    1564    1567    1568    1565    1564    1567
    1565    1564    1566    1566    1564    1567    1567    1570    1576
    1567    1570    1572    1567    1570    1571    1568    1567    1570
    1568    1567    1569    1569    1567    1570    1570    1576    1579
    1570    1576    1578    1570    1576    1577    1570    1572    1575
    1570    1572    1574    1570    1572    1573    1571    1570    1576
    1571    1570    1572    1572    1570    1576    1573    1572    1575
    1573    1572    1574    1574    1572    1575    1577    1576    1579
    1577    1576    1578    1578    1576    1579    1580    1626    1623
    1580    1626    1628    1580    1626    1627    1580    1584    1587
    1580    1584    1586    1580    1584    1585    1580    1582    1583
    1581    1580    1584    1581    1580    1626    1582    1580    1584
    1582    1580    1626    1582    1580    1581    1584    1587    1588
    1584    1587    1618    1585    1584    1587    1585    1584    1586
    1586    1584    1587    1587    1618    1616    1587    1618    1619
    1587    1618    1623    1587    1588    1590    1587    1588    1589
    1588    1590    1593    1588    1590    1592    1588    1590    1591
    1589    1588    1590    1590    1593    1595    1590    1593    1616
    1590    1593    1594    1591    1590    1593    1591    1590    1592
    1592    1590    1593    1593    1616    1613    1593    1616    1618
    1593    1616    1617    1593    1595    1597    1593    1595    1605
    1593    1595    1596    1594    1593    1595    1594    1593    1616
    1595    1605    1603    1595    1605    1606    1595    1605    1610
    1595    1597    1600    1595    1597    1599    1595    1597    1598
    1596    1595    1597    1596    1595    1605    1597    1600    1603
    1597    1600    1602    1597    1600    1601    1598    1597    1600
    1598    1597    1599    1599    1597    1600    1600    1603    1629
    1600    1603    1605    1600    1603    1604    1601    1600    1603
    1601    1600    1602    1602    1600    1603    1603    1629    1635
    1603    1629    1631    1603    1629    1630    1604    1603    1629
    1604    1603    1605    1605    1610    1613    1605    1610    1612
    1605    1610    1611    1605    1606    1609    1605    1606    1608
    1605    1606    1607    1605    1603    1629    1605    1595    1597
    1606    1605    1603    1607    1606    1609    1607    1606    1608
    1608    1606    1609    1610    1613    1616    1610    1613    1615
    1610    1613    1614    1610    1605    1603    1610    1605    1606
    1611    1610    1613    1611    1610    1612    1612    1610    1613
    1614    1613    1616    1614    1613    1615    1615    1613    1616
    1616    1593    1595    1617    1616    1613    1617    1616    1618
    1618    1619    1622    1618    1619    1621    1618    1619    1620
    1618    1616    1613    1618    1587    1588    1619    1618    1616
    1620    1619    1622    1620    1619    1621    1621    1619    1622
    1623    1618    1616    1623    1618    1619    1624    1623    1618
    1624    1623    1625    1625    1623    1618    1626    1623    1618
    1626    1623    1625    1626    1623    1624    1626    1580    1584
    1627    1626    1623    1627    1626    1628    1628    1626    1623
    1629    1635    1638    1629    1635    1637    1629    1635    1636
    1629    1631    1634    1629    1631    1633    1629    1631    1632
    1630    1629    1635    1630    1629    1631    1631    1629    1635
    1632    1631    1634    1632    1631    1633    1633    1631    1634
    1635    1638    1641    1635    1638    1640    1635    1638    1639
    1636    1635    1638    1636    1635    1637    1637    1635    1638
    1638    1641    1644    1638    1641    1643    1638    1641    1642
    1639    1638    1641    1639    1638    1640    1640    1638    1641
    1641    1644    1650    1641    1644    1646    1641    1644    1645
    1642    1641    1644    1642    1641    1643    1643    1641    1644
    1644    1650    1653    1644    1650    1652    1644    1650    1651
    1644    1646    1649    1644    1646    1648    1644    1646    1647
    1645    1644    1650    1645    1644    1646    1646    1644    1650
    1647    1646    1649    1647    1646    1648    1648    1646    1649
    1651    1650    1653    1651    1650    1652    1652    1650    1653
    1654    1700    1697    1654    1700    1702    1654    1700    1701
    1654    1658    1661    1654    1658    1660    1654    1658    1659
    1654    1656    1657    1655    1654    1658    1655    1654    1700
    1656    1654    1658    1656    1654    1700    1656    1654    1655
    1658    1661    1662    1658    1661    1692    1659    1658    1661
    1659    1658    1660    1660    1658    1661    1661    1692    1690
    1661    1692    1693    1661    1692    1697    1661    1662    1664
    1661    1662    1663    1662    1664    1667    1662    1664    1666
    1662    1664    1665    1663    1662    1664    1664    1667    1669
    1664    1667    1690    1664    1667    1668    1665    1664    1667
    1665    1664    1666    1666    1664    1667    1667    1690    1687
    1667    1690    1692    1667    1690    1691    1667    1669    1671
    1667    1669    1679    1667    1669    1670    1668    1667    1669
    1668    1667    1690    1669    1679    1677    1669    1679    1680
    1669    1679    1684    1669    1671    1674    1669    1671    1673
    1669    1671    1672    1670    1669    1671    1670    1669    1679
    1671    1674    1677    1671    1674    1676    1671    1674    1675
    1672    1671    1674    1672    1671    1673    1673    1671    1674
    1674    1677    1703    1674    1677    1679    1674    1677    1678
    1675    1674    1677    1675    1674    1676    1676    1674    1677
    1677    1703    1709    1677    1703    1705    1677    1703    1704
    1678    1677    1703    1678    1677    1679    1679    1684    1687
    1679    1684    1686    1679    1684    1685    1679    1680    1683
    1679    1680    1682    1679    1680    1681    1679    1677    1703
    1679    1669    1671    1680    1679    1677    1681    1680    1683
    1681    1680    1682    1682    1680    1683    1684    1687    1690
    1684    1687    1689    1684    1687    1688    1684    1679    1677
    1684    1679    1680    1685    1684    1687    1685    1684    1686
    1686    1684    1687    1688    1687    1690    1688    1687    1689
    1689    1687    1690    1690    1667    1669    1691    1690    1687
    1691    1690    1692    1692    1693    1696    1692    1693    1695
    1692    1693    1694    1692    1690    1687    1692    1661    1662
    1693    1692    1690    1694    1693    1696    1694    1693    1695
    1695    1693    1696    1697    1692    1690    1697    1692    1693
    1698    1697    1692    1698    1697    1699    1699    1697    1692
    1700    1697    1692    1700    1697    1699    1700    1697    1698
    1700    1654    1658    1701    1700    1697    1701    1700    1702
    1702    1700    1697    1703    1709    1712    1703    1709    1711
    1703    1709    1710    1703    1705    1708    1703    1705    1707
    1703    1705    1706    1704    1703    1709    1704    1703    1705
    1705    1703    1709    1706    1705    1708    1706    1705    1707
    1707    1705    1708    1709    1712    1715    1709    1712    1714
    1709    1712    1713    1710    1709    1712    1710    1709    1711
    1711    1709    1712    1712    1715    1718    1712    1715    1717
    1712    1715    1716    1713    1712    1715    1713    1712    1714
    1714    1712    1715    1715    1718    1724    1715    1718    1720
    1715    1718    1719    1716    1715    1718    1716    1715    1717
    1717    1715    1718    1718    1724    1727    1718    1724    1726
    1718    1724    1725    1718    1720    1723    1718    1720    1722
    1718    1720    1721    1719    1718    1724    1719    1718    1720
    1720    1718    1724    1721    1720    1723    1721    1720    1722
    1722    1720    1723    1725    1724    1727    1725    1724    1726
    1726    1724    1727    1728    1774    1771    1728    1774    1776
    1728    1774    1775    1728    1732    1735    1728    1732    1734
    1728    1732    1733    1728    1730    1731    1729    1728    1732
    1729    1728    1774    1730    1728    1732    1730    1728    1774
    1730    1728    1729    1732    1735    1736    1732    1735    1766
    1733    1732    1735    1733    1732    1734    1734    1732    1735
    1735    1766    1764    1735    1766    1767    1735    1766    1771
    1735    1736    1738    1735    1736    1737    1736    1738    1741
    1736    1738    1740    1736    1738    1739    1737    1736    1738
    1738    1741    1743    1738    1741    1764    1738    1741    1742
    1739    1738    1741    1739    1738    1740    1740    1738    1741
    1741    1764    1761    1741    1764    1766    1741    1764    1765
    1741    1743    1745    1741    1743    1753    1741    1743    1744
    1742    1741    1743    1742    1741    1764    1743    1753    1751
    1743    1753    1754    1743    1753    1758    1743    1745    1748
    1743    1745    1747    1743    1745    1746    1744    1743    1745
    1744    1743    1753    1745    1748    1751    1745    1748    1750
    1745    1748    1749    1746    1745    1748    1746    1745    1747
    1747    1745    1748    1748    1751    1777    1748    1751    1753
    1748    1751    1752    1749    1748    1751    1749    1748    1750
    1750    1748    1751    1751    1777    1783    1751    1777    1779
    1751    1777    1778    1752    1751    1777    1752    1751    1753
    1753    1758    1761    1753    1758    1760    1753    1758    1759
    1753    1754    1757    1753    1754    1756    1753    1754    1755
    1753    1751    1777    1753    1743    1745    1754    1753    1751
    1755    1754    1757    1755    1754    1756    1756    1754    1757
    1758    1761    1764    1758    1761    1763    1758    1761    1762
    1758    1753    1751    1758    1753    1754    1759    1758    1761
    1759    1758    1760    1760    1758    1761    1762    1761    1764
    1762    1761    1763    1763    1761    1764    1764    1741    1743
    1765    1764    1761    1765    1764    1766    1766    1767    1770
    1766    1767    1769    1766    1767    1768    1766    1764    1761
    1766    1735    1736    1767    1766    1764    1768    1767    1770
    1768    1767    1769    1769    1767    1770    1771    1766    1764
    1771    1766    1767    1772    1771    1766    1772    1771    1773
    1773    1771    1766    1774    1771    1766    1774    1771    1773
    1774    1771    1772    1774    1728    1732    1775    1774    1771
    1775    1774    1776    1776    1774    1771    1777    1783    1786
    1777    1783    1785    1777    1783    1784    1777    1779    1782
    1777    1779    1781    1777    1779    1780    1778    1777    1783
    1778    1777    1779    1779    1777    1783    1780    1779    1782
    1780    1779    1781    1781    1779    1782    1783    1786    1789
    1783    1786    1788    1783    1786    1787    1784    1783    1786
    1784    1783    1785    1785    1783    1786    1786    1789    1792
    1786    1789    1791    1786    1789    1790    1787    1786    1789
    1787    1786    1788    1788    1786    1789    1789    1792    1798
    1789    1792    1794    1789    1792    1793    1790    1789    1792
    1790    1789    1791    1791    1789    1792    1792    1798    1801
    1792    1798    1800    1792    1798    1799    1792    1794    1797
    1792    1794    1796    1792    1794    1795    1793    1792    1798
    1793    1792    1794    1794    1792    1798    1795    1794    1797
    1795    1794    1796    1796    1794    1797    1799    1798    1801
    1799    1798    1800    1800    1798    1801    1802    1811    1814
    1802    1811    1813    1802    1811    1812    1802    1807    1810
    1802    1807    1809    1802    1807    1808    1802    1803    1806
    1802    1803    1805    1802    1803    1804    1804    1803    1806
    1804    1803    1805    1805    1803    1806    1807    1802    1803
    1808    1807    1810    1808    1807    1809    1809    1807    1810
    1811    1802    1803    1811    1802    1807    1812    1811    1814
    1812    1811    1813    1813    1811    1814    1815    1802    1803
    1815    1802    1807    1815    1802    1811    1816    1815    1802
    1816    1815    1817    1817    1815    1802    1818    1815    1802
    1818    1815    1817    1818    1815    1816    1819    1818    1815
    1819    1818    1820    1820    1818    1815    1821    1825    1818
    1822    1821    1823    1824    1821    1823    1824    1821    1822
    1824    1821    1825    1825    1821    1823    1825    1821    1822
    1825    1818    1815    1825    1818    1820    1825    1818    1819
    1826    1831    1829    1826    1824    1821    1827    1826    1824
    1827    1826    1828    1828    1826    1824    1829    1845    1846
    1829    1845    1847    1830    1829    1845    1831    1829    1845
    1831    1829    1830    1831    1826    1824    1831    1826    1828
    1831    1826    1827    1832    1831    1829    1832    1831    1826
    1833    1837    1839    1833    1835    1836    1833    1831    1829
    1833    1831    1826    1833    1831    1832    1834    1833    1831
    1834    1833    1835    1835    1833    1831    1837    1833    1831
    1837    1833    1835    1837    1833    1834    1838    1837    1839
    1838    1837    1833    1840    1839    1837    1841    1839    1837
    1841    1839    1840    1842    1841    1839    1842    1841    1843
    1843    1841    1839    1844    1841    1839    1844    1841    1843
    1844    1841    1842    1845    1847    1850    1845    1847    1849
    1845    1847    1848    1847    1850    1853    1847    1850    1852
    1847    1850    1851    1847    1845    1846    1848    1847    1850
    1848    1847    1849    1849    1847    1850    1850    1853    1856
    1850    1853    1855    1850    1853    1854    1851    1850    1853
    1851    1850    1852    1852    1850    1853    1853    1856    1859
    1853    1856    1858    1853    1856    1857    1854    1853    1856
    1854    1853    1855    1855    1853    1856    1856    1859    1861
    1856    1859    1860    1857    1856    1859    1857    1856    1858
    1858    1856    1859    1860    1859    1861    1862    1859    1861
    1862    1859    1860    1862    1859    1856    1863    1875    1878
    1863    1875    1877    1863    1875    1876    1863    1871    1874
    1863    1871    1873    1863    1871    1872    1863    1867    1870
    1863    1867    1869    1863    1867    1868    1863    1864    1879
    1863    1864    1866    1863    1864    1865    1864    1879    1885
    1864    1879    1881    1864    1879    1880    1865    1864    1879
    1865    1864    1866    1866    1864    1879    1867    1863    1864
    1867    1863    1875    1867    1863    1871    1868    1867    1870
    1868    1867    1869    1869    1867    1870    1871    1863    1864
    1871    1863    1875    1872    1871    1874    1872    1871    1873
    1873    1871    1874    1875    1863    1864    1876    1875    1878
    1876    1875    1877    1877    1875    1878    1879    1885    1882
    1880    1879    1885    1880    1879    1881    1881    1879    1885
    1883    1882    1884    1885    1882    1884    1885    1882    1883
    1885    1882    1886    1886    1887    1890    1886    1887    1889
    1886    1887    1888    1886    1882    1884    1886    1882    1883
    1887    1890    1892    1887    1890    1898    1887    1890    1891
    1887    1886    1882    1888    1887    1890    1888    1887    1889
    1889    1887    1890    1890    1898    1901    1890    1898    1900
    1890    1898    1899    1890    1892    1893    1891    1890    1892
    1891    1890    1898    1892    1893    1894    1892    1893    1895
    1893    1895    1907    1893    1895    1897    1893    1895    1896
    1895    1907    1910    1895    1907    1909    1895    1907    1908
    1895    1893    1894    1896    1895    1907    1896    1895    1897
    1897    1895    1907    1898    1901    1902    1898    1890    1892
    1899    1898    1901    1899    1898    1900    1900    1898    1901
    1901    1902    1903    1901    1902    1904    1902    1904    1920
    1902    1904    1906    1902    1904    1905    1904    1920    1923
    1904    1920    1922    1904    1920    1921    1904    1902    1903
    1905    1904    1920    1905    1904    1906    1906    1904    1920
    1907    1910    1913    1907    1910    1912    1907    1910    1911
    1908    1907    1910    1908    1907    1909    1909    1907    1910
    1910    1913    1916    1910    1913    1915    1910    1913    1914
    1911    1910    1913    1911    1910    1912    1912    1910    1913
    1913    1916    1918    1913    1916    1917    1914    1913    1916
    1914    1913    1915    1915    1913    1916    1917    1916    1918
    1919    1916    1918    1919    1916    1917    1919    1916    1913
    1920    1923    1926    1920    1923    1925    1920    1923    1924
    1921    1920    1923    1921    1920    1922    1922    1920    1923
    1923    1926    1929    1923    1926    1928    1923    1926    1927
    1924    1923    1926    1924    1923    1925    1925    1923    1926
    1926    1929    1931    1926    1929    1930    1927    1926    1929
    1927    1926    1928    1928    1926    1929    1930    1929    1931
    1932    1929    1931    1932    1929    1930    1932    1929    1926
    1933    1937    1942    1933    1937    1938    1933    1937    1939
    1934    1933    1937    1934    1933    1936    1934    1933    1935
    1935    1933    1937    1935    1933    1936    1936    1933    1937
    1937    1942    1948    1937    1942    1944    1937    1942    1943
    1937    1939    1940    1938    1937    1942    1939    1937    1942
    1939    1937    1938    1941    1939    1940    1941    1939    1937
    1942    1948    1945    1943    1942    1948    1943    1942    1944
    1944    1942    1948    1946    1945    1947    1948    1945    1947
    1948    1945    1946    1948    1945    1949    1949    1950    1953
    1949    1950    1952    1949    1950    1951    1949    1945    1947
    1949    1945    1946    1950    1953    1955    1950    1953    1961
    1950    1953    1954    1950    1949    1945    1951    1950    1953
    1951    1950    1952    1952    1950    1953    1953    1961    1964
    1953    1961    1963    1953    1961    1962    1953    1955    1956
    1954    1953    1955    1954    1953    1961    1955    1956    1957
    1955    1956    1958    1956    1958    1970    1956    1958    1960
    1956    1958    1959    1958    1970    1973    1958    1970    1972
    1958    1970    1971    1958    1956    1957    1959    1958    1970
    1959    1958    1960    1960    1958    1970    1961    1964    1965
    1961    1953    1955    1962    1961    1964    1962    1961    1963
    1963    1961    1964    1964    1965    1966    1964    1965    1967
    1965    1967    1983    1965    1967    1969    1965    1967    1968
    1967    1983    1986    1967    1983    1985    1967    1983    1984
    1967    1965    1966    1968    1967    1983    1968    1967    1969
    1969    1967    1983    1970    1973    1976    1970    1973    1975
    1970    1973    1974    1971    1970    1973    1971    1970    1972
    1972    1970    1973    1973    1976    1979    1973    1976    1978
    1973    1976    1977    1974    1973    1976    1974    1973    1975
    1975    1973    1976    1976    1979    1981    1976    1979    1980
    1977    1976    1979    1977    1976    1978    1978    1976    1979
    1980    1979    1981    1982    1979    1981    1982    1979    1980
    1982    1979    1976    1983    1986    1989    1983    1986    1988
    1983    1986    1987    1984    1983    1986    1984    1983    1985
    1985    1983    1986    1986    1989    1992    1986    1989    1991
    1986    1989    1990    1987    1986    1989    1987    1986    1988
    1988    1986    1989    1989    1992    1994    1989    1992    1993
    1990    1989    1992    1990    1989    1991    1991    1989    1992
    1993    1992    1994    1995    1992    1994    1995    1992    1993
    1995    1992    1989    1996    2005    2008    1996    2005    2007
    1996    2005    2006    1996    2001    2004    1996    2001    2003
    1996    2001    2002    1996    1997    2000    1996    1997    1999
    1996    1997    1998    1998    1997    2000    1998    1997    1999
    1999    1997    2000    2001    1996    1997    2002    2001    2004
    2002    2001    2003    2003    2001    2004    2005    1996    1997
    2005    1996    2001    2006    2005    2008    2006    2005    2007
    2007    2005    2008    2009    1996    1997    2009    1996    2001
    2009    1996    2005    2010    2009    1996    2010    2009    2011
    2011    2009    1996    2012    2009    1996    2012    2009    2011
    2012    2009    2010    2013    2012    2009    2013    2012    2014
    2014    2012    2009    2015    2019    2012    2016    2015    2017
    2018    2015    2017    2018    2015    2016    2018    2015    2019
    2019    2015    2017    2019    2015    2016    2019    2012    2009
    2019    2012    2014    2019    2012    2013    2020    2025    2023
    2020    2018    2015    2021    2020    2018    2021    2020    2022
    2022    2020    2018    2023    2039    2040    2023    2039    2041
    2024    2023    2039    2025    2023    2039    2025    2023    2024
    2025    2020    2018    2025    2020    2022    2025    2020    2021
    2026    2025    2023    2026    2025    2020    2027    2031    2033
    2027    2029    2030    2027    2025    2023    2027    2025    2020
    2027    2025    2026    2028    2027    2025    2028    2027    2029
    2029    2027    2025    2031    2027    2025    2031    2027    2029
    2031    2027    2028    2032    2031    2033    2032    2031    2027
    2034    2033    2031    2035    2033    2031    2035    2033    2034
    2036    2035    2033    2036    2035    2037    2037    2035    2033
    2038    2035    2033    2038    2035    2037    2038    2035    2036
    2039    2041    2044    2039    2041    2043    2039    2041    2042
    2041    2044    2047    2041    2044    2046    2041    2044    2045
    2041    2039    2040    2042    2041    2044    2042    2041    2043
    2043    2041    2044    2044    2047    2050    2044    2047    2049
    2044    2047    2048    2045    2044    2047    2045    2044    2046
    2046    2044    2047    2047    2050    2053    2047    2050    2052
    2047    2050    2051    2048    2047    2050    2048    2047    2049
    2049    2047    2050    2050    2053    2055    2050    2053    2054
    2051    2050    2053    2051    2050    2052    2052    2050    2053
    2054    2053    2055    2056    2053    2055    2056    2053    2054
    2056    2053    2050    2057    2069    2072    2057    2069    2071
    2057    2069    2070    2057    2065    2068    2057    2065    2067
    2057    2065    2066    2057    2061    2064    2057    2061    2063
    2057    2061    2062    2057    2058    2073    2057    2058    2060
    2057    2058    2059    2058    2073    2079    2058    2073    2075
    2058    2073    2074    2059    2058    2073    2059    2058    2060
    2060    2058    2073    2061    2057    2058    2061    2057    2069
    2061    2057    2065    2062    2061    2064    2062    2061    2063
    2063    2061    2064    2065    2057    2058    2065    2057    2069
    2066    2065    2068    2066    2065    2067    2067    2065    2068
    2069    2057    2058    2070    2069    2072    2070    2069    2071
    2071    2069    2072    2073    2079    2076    2074    2073    2079
    2074    2073    2075    2075    2073    2079    2077    2076    2078
    2079    2076    2078    2079    2076    2077    2079    2076    2080
    2080    2081    2084    2080    2081    2083    2080    2081    2082
    2080    2076    2078    2080    2076    2077    2081    2084    2086
    2081    2084    2092    2081    2084    2085    2081    2080    2076
    2082    2081    2084    2082    2081    2083    2083    2081    2084
    2084    2092    2095    2084    2092    2094    2084    2092    2093
    2084    2086    2087    2085    2084    2086    2085    2084    2092
    2086    2087    2088    2086    2087    2089    2087    2089    2101
    2087    2089    2091    2087    2089    2090    2089    2101    2104
    2089    2101    2103    2089    2101    2102    2089    2087    2088
    2090    2089    2101    2090    2089    2091    2091    2089    2101
    2092    2095    2096    2092    2084    2086    2093    2092    2095
    2093    2092    2094    2094    2092    2095    2095    2096    2097
    2095    2096    2098    2096    2098    2114    2096    2098    2100
    2096    2098    2099    2098    2114    2117    2098    2114    2116
    2098    2114    2115    2098    2096    2097    2099    2098    2114
    2099    2098    2100    2100    2098    2114    2101    2104    2107
    2101    2104    2106    2101    2104    2105    2102    2101    2104
    2102    2101    2103    2103    2101    2104    2104    2107    2110
    2104    2107    2109    2104    2107    2108    2105    2104    2107
    2105    2104    2106    2106    2104    2107    2107    2110    2112
    2107    2110    2111    2108    2107    2110    2108    2107    2109
    2109    2107    2110    2111    2110    2112    2113    2110    2112
    2113    2110    2111    2113    2110    2107    2114    2117    2120
    2114    2117    2119    2114    2117    2118    2115    2114    2117
    2115    2114    2116    2116    2114    2117    2117    2120    2123
    2117    2120    2122    2117    2120    2121    2118    2117    2120
    2118    2117    2119    2119    2117    2120    2120    2123    2125
    2120    2123    2124    2121    2120    2123    2121    2120    2122
    2122    2120    2123    2124    2123    2125    2126    2123    2125
    2126    2123    2124    2126    2123    2120    2127    2131    2134
    2127    2131    2133    2127    2131    2132    2128    2127    2131
    2128    2127    2130    2128    2127    2129    2129    2127    2131
    2129    2127    2130    2130    2127    2131    2131    2134    2141
    2131    2134    2136    2131    2134    2135    2132    2131    2134
    2132    2131    2133    2133    2131    2134    2134    2141    2137
    2135    2134    2141    2135    2134    2136    2136    2134    2141
    2137    2140    2142    2138    2137    2139    2140    2137    2139
    2140    2137    2138    2141    2137    2139    2141    2137    2138
    2141    2137    2140    2142    2145    2147    2142    2145    2153
    2142    2145    2146    2143    2142    2140    2143    2142    2145
    2143    2142    2144    2144    2142    2140    2144    2142    2145
    2145    2153    2156    2145    2153    2155    2145    2153    2154
    2145    2147    2148    2145    2142    2140    2146    2145    2147
    2146    2145    2153    2147    2148    2149    2147    2148    2150
    2148    2150    2162    2148    2150    2152    2148    2150    2151
    2150    2162    2165    2150    2162    2164    2150    2162    2163
    2150    2148    2149    2151    2150    2162    2151    2150    2152
    2152    2150    2162    2153    2156    2157    2153    2145    2147
    2154    2153    2156    2154    2153    2155    2155    2153    2156
    2156    2157    2158    2156    2157    2159    2157    2159    2175
    2157    2159    2161    2157    2159    2160    2159    2175    2178
    2159    2175    2177    2159    2175    2176    2159    2157    2158
    2160    2159    2175    2160    2159    2161    2161    2159    2175
    2162    2165    2168    2162    2165    2167    2162    2165    2166
    2163    2162    2165    2163    2162    2164    2164    2162    2165
    2165    2168    2171    2165    2168    2170    2165    2168    2169
    2166    2165    2168    2166    2165    2167    2167    2165    2168
    2168    2171    2173    2168    2171    2172    2169    2168    2171
    2169    2168    2170    2170    2168    2171    2172    2171    2173
    2174    2171    2173    2174    2171    2172    2174    2171    2168
    2175    2178    2181    2175    2178    2180    2175    2178    2179
    2176    2175    2178    2176    2175    2177    2177    2175    2178
    2178    2181    2184    2178    2181    2183    2178    2181    2182
    2179    2178    2181    2179    2178    2180    2180    2178    2181
    2181    2184    2186    2181    2184    2185    2182    2181    2184
    2182    2181    2183    2183    2181    2184    2185    2184    2186
    2187    2184    2186    2187    2184    2185    2187    2184    2181
    2188    2192    2197    2188    2192    2193    2188    2192    2194
    2189    2188    2192    2189    2188    2191    2189    2188    2190
    2190    2188    2192    2190    2188    2191    2191    2188    2192
    2192    2197    2203    2192    2197    2199    2192    2197    2198
    2192    2194    2195    2193    2192    2197    2194    2192    2197
    2194    2192    2193    2196    2194    2195    2196    2194    2192
    2197    2203    2200    2198    2197    2203    2198    2197    2199
    2199    2197    2203    2201    2200    2202    2203    2200    2202
    2203    2200    2201    2203    2200    2204    2204    2205    2208
    2204    2205    2207    2204    2205    2206    2204    2200    2202
    2204    2200    2201    2205    2208    2210    2205    2208    2216
    2205    2208    2209    2205    2204    2200    2206    2205    2208
    2206    2205    2207    2207    2205    2208    2208    2216    2219
    2208    2216    2218    2208    2216    2217    2208    2210    2211
    2209    2208    2210    2209    2208    2216    2210    2211    2212
    2210    2211    2213    2211    2213    2225    2211    2213    2215
    2211    2213    2214    2213    2225    2228    2213    2225    2227
    2213    2225    2226    2213    2211    2212    2214    2213    2225
    2214    2213    2215    2215    2213    2225    2216    2219    2220
    2216    2208    2210    2217    2216    2219    2217    2216    2218
    2218    2216    2219    2219    2220    2221    2219    2220    2222
    2220    2222    2238    2220    2222    2224    2220    2222    2223
    2222    2238    2241    2222    2238    2240    2222    2238    2239
    2222    2220    2221    2223    2222    2238    2223    2222    2224
    2224    2222    2238    2225    2228    2231    2225    2228    2230
    2225    2228    2229    2226    2225    2228    2226    2225    2227
    2227    2225    2228    2228    2231    2234    2228    2231    2233
    2228    2231    2232    2229    2228    2231    2229    2228    2230
    2230    2228    2231    2231    2234    2236    2231    2234    2235
    2232    2231    2234    2232    2231    2233    2233    2231    2234
    2235    2234    2236    2237    2234    2236    2237    2234    2235
    2237    2234    2231    2238    2241    2244    2238    2241    2243
    2238    2241    2242    2239    2238    2241    2239    2238    2240
    2240    2238    2241    2241    2244    2247    2241    2244    2246
    2241    2244    2245    2242    2241    2244    2242    2241    2243
    2243    2241    2244    2244    2247    2249    2244    2247    2248
    2245    2244    2247    2245    2244    2246    2246    2244    2247
    2248    2247    2249    2250    2247    2249    2250    2247    2248
    2250    2247    2244    2251    2255    2258    2251    2255    2257
    2251    2255    2256    2252    2251    2255    2252    2251    2254
    2252    2251    2253    2253    2251    2255    2253    2251    2254
    2254    2251    2255    2255    2258    2265    2255    2258    2260
    2255    2258    2259    2256    2255    2258    2256    2255    2257
    2257    2255    2258    2258    2265    2261    2259    2258    2265
    2259    2258    2260    2260    2258    2265    2261    2264    2266
    2262    2261    2263    2264    2261    2263    2264    2261    2262
    2265    2261    2263    2265    2261    2262    2265    2261    2264
    2266    2269    2271    2266    2269    2277    2266    2269    2270
    2267    2266    2264    2267    2266    2269    2267    2266    2268
    2268    2266    2264    2268    2266    2269    2269    2277    2280
    2269    2277    2279    2269    2277    2278    2269    2271    2272
    2269    2266    2264    2270    2269    2271    2270    2269    2277
    2271    2272    2273    2271    2272    2274    2272    2274    2286
    2272    2274    2276    2272    2274    2275    2274    2286    2289
    2274    2286    2288    2274    2286    2287    2274    2272    2273
    2275    2274    2286    2275    2274    2276    2276    2274    2286
    2277    2280    2281    2277    2269    2271    2278    2277    2280
    2278    2277    2279    2279    2277    2280    2280    2281    2282
    2280    2281    2283    2281    2283    2299    2281    2283    2285
    2281    2283    2284    2283    2299    2302    2283    2299    2301
    2283    2299    2300    2283    2281    2282    2284    2283    2299
    2284    2283    2285    2285    2283    2299    2286    2289    2292
    2286    2289    2291    2286    2289    2290    2287    2286    2289
    2287    2286    2288    2288    2286    2289    2289    2292    2295
    2289    2292    2294    2289    2292    2293    2290    2289    2292
    2290    2289    2291    2291    2289    2292    2292    2295    2297
    2292    2295    2296    2293    2292    2295    2293    2292    2294
    2294    2292    2295    2296    2295    2297    2298    2295    2297
    2298    2295    2296    2298    2295    2292    2299    2302    2305
    2299    2302    2304    2299    2302    2303    2300    2299    2302
    2300    2299    2301    2301    2299    2302    2302    2305    2308
    2302    2305    2307    2302    2305    2306    2303    2302    2305
    2303    2302    2304    2304    2302    2305    2305    2308    2310
    2305    2308    2309    2306    2305    2308    2306    2305    2307
    2307    2305    2308    2309    2308    2310    2311    2308    2310
    2311    2308    2309    2311    2308    2305    2312    2316    2321
    2312    2316    2317    2312    2316    2318    2313    2312    2316
    2313    2312    2315    2313    2312    2314    2314    2312    2316
    2314    2312    2315    2315    2312    2316    2316    2321    2327
    2316    2321    2323    2316    2321    2322    2316    2318    2319
    2317    2316    2321    2318    2316    2321    2318    2316    2317
    2320    2318    2319    2320    2318    2316    2321    2327    2324
    2322    2321    2327    2322    2321    2323    2323    2321    2327
    2325    2324    2326    2327    2324    2326    2327    2324    2325
    2327    2324    2328    2328    2329    2332    2328    2329    2331
    2328    2329    2330    2328    2324    2326    2328    2324    2325
    2329    2332    2334    2329    2332    2340    2329    2332    2333
    2329    2328    2324    2330    2329    2332    2330    2329    2331
    2331    2329    2332    2332    2340    2343    2332    2340    2342
    2332    2340    2341    2332    2334    2335    2333    2332    2334
    2333    2332    2340    2334    2335    2336    2334    2335    2337
    2335    2337    2349    2335    2337    2339    2335    2337    2338
    2337    2349    2352    2337    2349    2351    2337    2349    2350
    2337    2335    2336    2338    2337    2349    2338    2337    2339
    2339    2337    2349    2340    2343    2344    2340    2332    2334
    2341    2340    2343    2341    2340    2342    2342    2340    2343
    2343    2344    2345    2343    2344    2346    2344    2346    2362
    2344    2346    2348    2344    2346    2347    2346    2362    2365
    2346    2362    2364    2346    2362    2363    2346    2344    2345
    2347    2346    2362    2347    2346    2348    2348    2346    2362
    2349    2352    2355    2349    2352    2354    2349    2352    2353
    2350    2349    2352    2350    2349    2351    2351    2349    2352
    2352    2355    2358    2352    2355    2357    2352    2355    2356
    2353    2352    2355    2353    2352    2354    2354    2352    2355
    2355    2358    2360    2355    2358    2359    2356    2355    2358
    2356    2355    2357    2357    2355    2358    2359    2358    2360
    2361    2358    2360    2361    2358    2359    2361    2358    2355
    2362    2365    2368    2362    2365    2367    2362    2365    2366
    2363    2362    2365    2363    2362    2364    2364    2362    2365
    2365    2368    2371    2365    2368    2370    2365    2368    2369
    2366    2365    2368    2366    2365    2367    2367    2365    2368
    2368    2371    2373    2368    2371    2372    2369    2368    2371
    2369    2368    2370    2370    2368    2371    2372    2371    2373
    2374    2371    2373    2374    2371    2372    2374    2371    2368
    2375    2387    2390    2375    2387    2389    2375    2387    2388
    2375    2383    2386    2375    2383    2385    2375    2383    2384
    2375    2379    2382    2375    2379    2381    2375    2379    2380
    2375    2376    2391    2375    2376    2378    2375    2376    2377
    2376    2391    2397    2376    2391    2393    2376    2391    2392
    2377    2376    2391    2377    2376    2378    2378    2376    2391
    2379    2375    2376    2379    2375    2387    2379    2375    2383
    2380    2379    2382    2380    2379    2381    2381    2379    2382
    2383    2375    2376    2383    2375    2387    2384    2383    2386
    2384    2383    2385    2385    2383    2386    2387    2375    2376
    2388    2387    2390    2388    2387    2389    2389    2387    2390
    2391    2397    2394    2392    2391    2397    2392    2391    2393
    2393    2391    2397    2395    2394    2396    2397    2394    2396
    2397    2394    2395    2397    2394    2398    2398    2399    2402
    2398    2399    2401    2398    2399    2400    2398    2394    2396
    2398    2394    2395    2399    2402    2404    2399    2402    2410
    2399    2402    2403    2399    2398    2394    2400    2399    2402
    2400    2399    2401    2401    2399    2402    2402    2410    2413
    2402    2410    2412    2402    2410    2411    2402    2404    2405
    2403    2402    2404    2403    2402    2410    2404    2405    2406
    2404    2405    2407    2405    2407    2419    2405    2407    2409
    2405    2407    2408    2407    2419    2422    2407    2419    2421
    2407    2419    2420    2407    2405    2406    2408    2407    2419
    2408    2407    2409    2409    2407    2419    2410    2413    2414
    2410    2402    2404    2411    2410    2413    2411    2410    2412
    2412    2410    2413    2413    2414    2415    2413    2414    2416
    2414    2416    2432    2414    2416    2418    2414    2416    2417
    2416    2432    2435    2416    2432    2434    2416    2432    2433
    2416    2414    2415    2417    2416    2432    2417    2416    2418
    2418    2416    2432    2419    2422    2425    2419    2422    2424
    2419    2422    2423    2420    2419    2422    2420    2419    2421
    2421    2419    2422    2422    2425    2428    2422    2425    2427
    2422    2425    2426    2423    2422    2425    2423    2422    2424
    2424    2422    2425    2425    2428    2430    2425    2428    2429
    2426    2425    2428    2426    2425    2427    2427    2425    2428
    2429    2428    2430    2431    2428    2430    2431    2428    2429
    2431    2428    2425    2432    2435    2438    2432    2435    2437
    2432    2435    2436    2433    2432    2435    2433    2432    2434
    2434    2432    2435    2435    2438    2441    2435    2438    2440
    2435    2438    2439    2436    2435    2438    2436    2435    2437
    2437    2435    2438    2438    2441    2443    2438    2441    2442
    2439    2438    2441    2439    2438    2440    2440    2438    2441
    2442    2441    2443    2444    2441    2443    2444    2441    2442
    2444    2441    2438    2445    2449    2452    2445    2449    2451
    2445    2449    2450    2446    2445    2449    2446    2445    2448
    2446    2445    2447    2447    2445    2449    2447    2445    2448
    2448    2445    2449    2449    2452    2459    2449    2452    2454
    2449    2452    2453    2450    2449    2452    2450    2449    2451
    2451    2449    2452    2452    2459    2455    2453    2452    2459
    2453    2452    2454    2454    2452    2459    2455    2458    2460
    2456    2455    2457    2458    2455    2457    2458    2455    2456
    2459    2455    2457    2459    2455    2456    2459    2455    2458
    2460    2463    2465    2460    2463    2471    2460    2463    2464
    2461    2460    2458    2461    2460    2463    2461    2460    2462
    2462    2460    2458    2462    2460    2463    2463    2471    2474
    2463    2471    2473    2463    2471    2472    2463    2465    2466
    2463    2460    2458    2464    2463    2465    2464    2463    2471
    2465    2466    2467    2465    2466    2468    2466    2468    2480
    2466    2468    2470    2466    2468    2469    2468    2480    2483
    2468    2480    2482    2468    2480    2481    2468    2466    2467
    2469    2468    2480    2469    2468    2470    2470    2468    2480
    2471    2474    2475    2471    2463    2465    2472    2471    2474
    2472    2471    2473    2473    2471    2474    2474    2475    2476
    2474    2475    2477    2475    2477    2493    2475    2477    2479
    2475    2477    2478    2477    2493    2496    2477    2493    2495
    2477    2493    2494    2477    2475    2476    2478    2477    2493
    2478    2477    2479    2479    2477    2493    2480    2483    2486
    2480    2483    2485    2480    2483    2484    2481    2480    2483
    2481    2480    2482    2482    2480    2483    2483    2486    2489
    2483    2486    2488    2483    2486    2487    2484    2483    2486
    2484    2483    2485    2485    2483    2486    2486    2489    2491
    2486    2489    2490    2487    2486    2489    2487    2486    2488
    2488    2486    2489    2490    2489    2491    2492    2489    2491
    2492    2489    2490    2492    2489    2486    2493    2496    2499
    2493    2496    2498    2493    2496    2497    2494    2493    2496
    2494    2493    2495    2495    2493    2496    2496    2499    2502
    2496    2499    2501    2496    2499    2500    2497    2496    2499
    2497    2496    2498    2498    2496    2499    2499    2502    2504
    2499    2502    2503    2500    2499    2502    2500    2499    2501
    2501    2499    2502    2503    2502    2504    2505    2502    2504
    2505    2502    2503    2505    2502    2499    2506    2518    2521
    2506    2518    2520    2506    2518    2519    2506    2514    2517
    2506    2514    2516    2506    2514    2515    2506    2510    2513
    2506    2510    2512    2506    2510    2511    2506    2507    2522
    2506    2507    2509    2506    2507    2508    2507    2522    2528
    2507    2522    2524    2507    2522    2523    2508    2507    2522
    2508    2507    2509    2509    2507    2522    2510    2506    2507
    2510    2506    2518    2510    2506    2514    2511    2510    2513
    2511    2510    2512    2512    2510    2513    2514    2506    2507
    2514    2506    2518    2515    2514    2517    2515    2514    2516
    2516    2514    2517    2518    2506    2507    2519    2518    2521
    2519    2518    2520    2520    2518    2521    2522    2528    2525
    2523    2522    2528    2523    2522    2524    2524    2522    2528
    2526    2525    2527    2528    2525    2527    2528    2525    2526
    2528    2525    2529    2529    2530    2533    2529    2530    2532
    2529    2530    2531    2529    2525    2527    2529    2525    2526
    2530    2533    2535    2530    2533    2541    2530    2533    2534
    2530    2529    2525    2531    2530    2533    2531    2530    2532
    2532    2530    2533    2533    2541    2544    2533    2541    2543
    2533    2541    2542    2533    2535    2536    2534    2533    2535
    2534    2533    2541    2535    2536    2537    2535    2536    2538
    2536    2538    2550    2536    2538    2540    2536    2538    2539
    2538    2550    2553    2538    2550    2552    2538    2550    2551
    2538    2536    2537    2539    2538    2550    2539    2538    2540
    2540    2538    2550    2541    2544    2545    2541    2533    2535
    2542    2541    2544    2542    2541    2543    2543    2541    2544
    2544    2545    2546    2544    2545    2547    2545    2547    2563
    2545    2547    2549    2545    2547    2548    2547    2563    2566
    2547    2563    2565    2547    2563    2564    2547    2545    2546
    2548    2547    2563    2548    2547    2549    2549    2547    2563
    2550    2553    2556    2550    2553    2555    2550    2553    2554
    2551    2550    2553    2551    2550    2552    2552    2550    2553
    2553    2556    2559    2553    2556    2558    2553    2556    2557
    2554    2553    2556    2554    2553    2555    2555    2553    2556
    2556    2559    2561    2556    2559    2560    2557    2556    2559
    2557    2556    2558    2558    2556    2559    2560    2559    2561
    2562    2559    2561    2562    2559    2560    2562    2559    2556
    2563    2566    2569    2563    2566    2568    2563    2566    2567
    2564    2563    2566    2564    2563    2565    2565    2563    2566
    2566    2569    2572    2566    2569    2571    2566    2569    2570
    2567    2566    2569    2567    2566    2568    2568    2566    2569
    2569    2572    2574    2569    2572    2573    2570    2569    2572
    2570    2569    2571    2571    2569    2572    2573    2572    2574
    2575    2572    2574    2575    2572    2573    2575    2572    2569
    2576    2580    2585    2576    2580    2581    2576    2580    2582
    2577    2576    2580    2577    2576    2579    2577    2576    2578
    2578    2576    2580    2578    2576    2579    2579    2576    2580
    2580    2585    2591    2580    2585    2587    2580    2585    2586
    2580    2582    2583    2581    2580    2585    2582    2580    2585
    2582    2580    2581    2584    2582    2583    2584    2582    2580
    2585    2591    2588    2586    2585    2591    2586    2585    2587
    2587    2585    2591    2589    2588    2590    2591    2588    2590
    2591    2588    2589    2591    2588    2592    2592    2593    2596
    2592    2593    2595    2592    2593    2594    2592    2588    2590
    2592    2588    2589    2593    2596    2598    2593    2596    2604
    2593    2596    2597    2593    2592    2588    2594    2593    2596
    2594    2593    2595    2595    2593    2596    2596    2604    2607
    2596    2604    2606    2596    2604    2605    2596    2598    2599
    2597    2596    2598    2597    2596    2604    2598    2599    2600
    2598    2599    2601    2599    2601    2613    2599    2601    2603
    2599    2601    2602    2601    2613    2616    2601    2613    2615
    2601    2613    2614    2601    2599    2600    2602    2601    2613
    2602    2601    2603    2603    2601    2613    2604    2607    2608
    2604    2596    2598    2605    2604    2607    2605    2604    2606
    2606    2604    2607    2607    2608    2609    2607    2608    2610
    2608    2610    2626    2608    2610    2612    2608    2610    2611
    2610    2626    2629    2610    2626    2628    2610    2626    2627
    2610    2608    2609    2611    2610    2626    2611    2610    2612
    2612    2610    2626    2613    2616    2619    2613    2616    2618
    2613    2616    2617    2614    2613    2616    2614    2613    2615
    2615    2613    2616    2616    2619    2622    2616    2619    2621
    2616    2619    2620    2617    2616    2619    2617    2616    2618
    2618    2616    2619    2619    2622    2624    2619    2622    2623
    2620    2619    2622    2620    2619    2621    2621    2619    2622
    2623    2622    2624    2625    2622    2624    2625    2622    2623
    2625    2622    2619    2626    2629    2632    2626    2629    2631
    2626    2629    2630    2627    2626    2629    2627    2626    2628
    2628    2626    2629    2629    2632    2635    2629    2632    2634
    2629    2632    2633    2630    2629    2632    2630    2629    2631
    2631    2629    2632    2632    2635    2637    2632    2635    2636
    2633    2632    2635    2633    2632    2634    2634    2632    2635
    2636    2635    2637    2638    2635    2637    2638    2635    2636
    2638    2635    2632    2639    2648    2651    2639    2648    2650
    2639    2648    2649    2639    2644    2647    2639    2644    2646
    2639    2644    2645    2639    2640    2643    2639    2640    2642
    2639    2640    2641    2641    2640    2643    2641    2640    2642
    2642    2640    2643    2644    2639    2640    2645    2644    2647
    2645    2644    2646    2646    2644    2647    2648    2639    2640
    2648    2639    2644    2649    2648    2651    2649    2648    2650
    2650    2648    2651    2652    2639    2640    2652    2639    2644
    2652    2639    2648    2653    2652    2639    2653    2652    2654
    2654    2652    2639    2655    2652    2639    2655    2652    2654
    2655    2652    2653    2656    2655    2652    2656    2655    2657
    2657    2655    2652    2658    2662    2655    2659    2658    2660
    2661    2658    2660    2661    2658    2659    2661    2658    2662
    2662    2658    2660    2662    2658    2659    2662    2655    2652
    2662    2655    2657    2662    2655    2656    2663    2668    2666
    2663    2661    2658    2664    2663    2661    2664    2663    2665
    2665    2663    2661    2666    2682    2683    2666    2682    2684
    2667    2666    2682    2668    2666    2682    2668    2666    2667
    2668    2663    2661    2668    2663    2665    2668    2663    2664
    2669    2668    2666    2669    2668    2663    2670    2674    2676
    2670    2672    2673    2670    2668    2666    2670    2668    2663
    2670    2668    2669    2671    2670    2668    2671    2670    2672
    2672    2670    2668    2674    2670    2668    2674    2670    2672
    2674    2670    2671    2675    2674    2676    2675    2674    2670
    2677    2676    2674    2678    2676    2674    2678    2676    2677
    2679    2678    2676    2679    2678    2680    2680    2678    2676
    2681    2678    2676    2681    2678    2680    2681    2678    2679
    2682    2684    2687    2682    2684    2686    2682    2684    2685
    2684    2687    2690    2684    2687    2689    2684    2687    2688
    2684    2682    2683    2685    2684    2687    2685    2684    2686
    2686    2684    2687    2687    2690    2693    2687    2690    2692
    2687    2690    2691    2688    2687    2690    2688    2687    2689
    2689    2687    2690    2690    2693    2696    2690    2693    2695
    2690    2693    2694    2691    2690    2693    2691    2690    2692
    2692    2690    2693    2693    2696    2698    2693    2696    2697
    2694    2693    2696    2694    2693    2695    2695    2693    2696
    2697    2696    2698    2699    2696    2698    2699    2696    2697
    2699    2696    2693    2700    2712    2715    2700    2712    2714
    2700    2712    2713    2700    2708    2711    2700    2708    2710
    2700    2708    2709    2700    2704    2707    2700    2704    2706
    2700    2704    2705    2700    2701    2716    2700    2701    2703
    2700    2701    2702    2701    2716    2722    2701    2716    2718
    2701    2716    2717    2702    2701    2716    2702    2701    2703
    2703    2701    2716    2704    2700    2701    2704    2700    2712
    2704    2700    2708    2705    2704    2707    2705    2704    2706
    2706    2704    2707    2708    2700    2701    2708    2700    2712
    2709    2708    2711    2709    2708    2710    2710    2708    2711
    2712    2700    2701    2713    2712    2715    2713    2712    2714
    2714    2712    2715    2716    2722    2719    2717    2716    2722
    2717    2716    2718    2718    2716    2722    2720    2719    2721
    2722    2719    2721    2722    2719    2720    2722    2719    2723
    2723    2724    2727    2723    2724    2726    2723    2724    2725
    2723    2719    2721    2723    2719    2720    2724    2727    2729
    2724    2727    2735    2724    2727    2728    2724    2723    2719
    2725    2724    2727    2725    2724    2726    2726    2724    2727
    2727    2735    2738    2727    2735    2737    2727    2735    2736
    2727    2729    2730    2728    2727    2729    2728    2727    2735
    2729    2730    2731    2729    2730    2732    2730    2732    2744
    2730    2732    2734    2730    2732    2733    2732    2744    2747
    2732    2744    2746    2732    2744    2745    2732    2730    2731
    2733    2732    2744    2733    2732    2734    2734    2732    2744
    2735    2738    2739    2735    2727    2729    2736    2735    2738
    2736    2735    2737    2737    2735    2738    2738    2739    2740
    2738    2739    2741    2739    2741    2757    2739    2741    2743
    2739    2741    2742    2741    2757    2760    2741    2757    2759
    2741    2757    2758    2741    2739    2740    2742    2741    2757
    2742    2741    2743    2743    2741    2757    2744    2747    2750
    2744    2747    2749    2744    2747    2748    2745    2744    2747
    2745    2744    2746    2746    2744    2747    2747    2750    2753
    2747    2750    2752    2747    2750    2751    2748    2747    2750
    2748    2747    2749    2749    2747    2750    2750    2753    2755
    2750    2753    2754    2751    2750    2753    2751    2750    2752
    2752    2750    2753    2754    2753    2755    2756    2753    2755
    2756    2753    2754    2756    2753    2750    2757    2760    2763
    2757    2760    2762    2757    2760    2761    2758    2757    2760
    2758    2757    2759    2759    2757    2760    2760    2763    2766
    2760    2763    2765    2760    2763    2764    2761    2760    2763
    2761    2760    2762    2762    2760    2763    2763    2766    2768
    2763    2766    2767    2764    2763    2766    2764    2763    2765
    2765    2763    2766    2767    2766    2768    2769    2766    2768
    2769    2766    2767    2769    2766    2763    2770    2774    2779
    2770    2774    2775    2770    2774    2776    2771    2770    2774
    2771    2770    2773    2771    2770    2772    2772    2770    2774
    2772    2770    2773    2773    2770    2774    2774    2779    2785
    2774    2779    2781    2774    2779    2780    2774    2776    2777
    2775    2774    2779    2776    2774    2779    2776    2774    2775
    2778    2776    2777    2778    2776    2774    2779    2785    2782
    2780    2779    2785    2780    2779    2781    2781    2779    2785
    2783    2782    2784    2785    2782    2784    2785    2782    2783
    2785    2782    2786    2786    2787    2790    2786    2787    2789
    2786    2787    2788    2786    2782    2784    2786    2782    2783
    2787    2790    2792    2787    2790    2798    2787    2790    2791
    2787    2786    2782    2788    2787    2790    2788    2787    2789
    2789    2787    2790    2790    2798    2801    2790    2798    2800
    2790    2798    2799    2790    2792    2793    2791    2790    2792
    2791    2790    2798    2792    2793    2794    2792    2793    2795
    2793    2795    2807    2793    2795    2797    2793    2795    2796
    2795    2807    2810    2795    2807    2809    2795    2807    2808
    2795    2793    2794    2796    2795    2807    2796    2795    2797
    2797    2795    2807    2798    2801    2802    2798    2790    2792
    2799    2798    2801    2799    2798    2800    2800    2798    2801
    2801    2802    2803    2801    2802    2804    2802    2804    2820
    2802    2804    2806    2802    2804    2805    2804    2820    2823
    2804    2820    2822    2804    2820    2821    2804    2802    2803
    2805    2804    2820    2805    2804    2806    2806    2804    2820
    2807    2810    2813    2807    2810    2812    2807    2810    2811
    2808    2807    2810    2808    2807    2809    2809    2807    2810
    2810    2813    2816    2810    2813    2815    2810    2813    2814
    2811    2810    2813    2811    2810    2812    2812    2810    2813
    2813    2816    2818    2813    2816    2817    2814    2813    2816
    2814    2813    2815    2815    2813    2816    2817    2816    2818
    2819    2816    2818    2819    2816    2817    2819    2816    2813
    2820    2823    2826    2820    2823    2825    2820    2823    2824
    2821    2820    2823    2821    2820    2822    2822    2820    2823
    2823    2826    2829    2823    2826    2828    2823    2826    2827
    2824    2823    2826    2824    2823    2825    2825    2823    2826
    2826    2829    2831    2826    2829    2830    2827    2826    2829
    2827    2826    2828    2828    2826    2829    2830    2829    2831
    2832    2829    2831    2832    2829    2830    2832    2829    2826
    2833    2842    2845    2833    2842    2844    2833    2842    2843
    2833    2838    2841    2833    2838    2840    2833    2838    2839
    2833    2834    2837    2833    2834    2836    2833    2834    2835
    2835    2834    2837    2835    2834    2836    2836    2834    2837
    2838    2833    2834    2839    2838    2841    2839    2838    2840
    2840    2838    2841    2842    2833    2834    2842    2833    2838
    2843    2842    2845    2843    2842    2844    2844    2842    2845
    2846    2833    2834    2846    2833    2838    2846    2833    2842
    2847    2846    2833    2847    2846    2848    2848    2846    2833
    2849    2846    2833    2849    2846    2848    2849    2846    2847
    2850    2849    2846    2850    2849    2851    2851    2849    2846
    2852    2856    2849    2853    2852    2854    2855    2852    2854
    2855    2852    2853    2855    2852    2856    2856    2852    2854
    2856    2852    2853    2856    2849    2846    2856    2849    2851
    2856    2849    2850    2857    2862    2860    2857    2855    2852
    2858    2857    2855    2858    2857    2859    2859    2857    2855
    2860    2876    2877    2860    2876    2878    2861    2860    2876
    2862    2860    2876    2862    2860    2861    2862    2857    2855
    2862    2857    2859    2862    2857    2858    2863    2862    2860
    2863    2862    2857    2864    2868    2870    2864    2866    2867
    2864    2862    2860    2864    2862    2857    2864    2862    2863
    2865    2864    2862    2865    2864    2866    2866    2864    2862
    2868    2864    2862    2868    2864    2866    2868    2864    2865
    2869    2868    2870    2869    2868    2864    2871    2870    2868
    2872    2870    2868    2872    2870    2871    2873    2872    2870
    2873    2872    2874    2874    2872    2870    2875    2872    2870
    2875    2872    2874    2875    2872    2873    2876    2878    2881
    2876    2878    2880    2876    2878    2879    2878    2881    2884
    2878    2881    2883    2878    2881    2882    2878    2876    2877
    2879    2878    2881    2879    2878    2880    2880    2878    2881
    2881    2884    2887    2881    2884    2886    2881    2884    2885
    2882    2881    2884    2882    2881    2883    2883    2881    2884
    2884    2887    2890    2884    2887    2889    2884    2887    2888
    2885    2884    2887    2885    2884    2886    2886    2884    2887
    2887    2890    2892    2887    2890    2891    2888    2887    2890
    2888    2887    2889    2889    2887    2890    2891    2890    2892
    2893    2890    2892    2893    2890    2891    2893    2890    2887
    2894    2906    2909    2894    2906    2908    2894    2906    2907
    2894    2902    2905    2894    2902    2904    2894    2902    2903
    2894    2898    2901    2894    2898    2900    2894    2898    2899
    2894    2895    2910    2894    2895    2897    2894    2895    2896
    2895    2910    2916    2895    2910    2912    2895    2910    2911
    2896    2895    2910    2896    2895    2897    2897    2895    2910
    2898    2894    2895    2898    2894    2906    2898    2894    2902
    2899    2898    2901    2899    2898    2900    2900    2898    2901
    2902    2894    2895    2902    2894    2906    2903    2902    2905
    2903    2902    2904    2904    2902    2905    2906    2894    2895
    2907    2906    2909    2907    2906    2908    2908    2906    2909
    2910    2916    2913    2911    2910    2916    2911    2910    2912
    2912    2910    2916    2914    2913    2915    2916    2913    2915
    2916    2913    2914    2916    2913    2917    2917    2918    2921
    2917    2918    2920    2917    2918    2919    2917    2913    2915
    2917    2913    2914    2918    2921    2923    2918    2921    2929
    2918    2921    2922    2918    2917    2913    2919    2918    2921
    2919    2918    2920    2920    2918    2921    2921    2929    2932
    2921    2929    2931    2921    2929    2930    2921    2923    2924
    2922    2921    2923    2922    2921    2929    2923    2924    2925
    2923    2924    2926    2924    2926    2938    2924    2926    2928
    2924    2926    2927    2926    2938    2941    2926    2938    2940
    2926    2938    2939    2926    2924    2925    2927    2926    2938
    2927    2926    2928    2928    2926    2938    2929    2932    2933
    2929    2921    2923    2930    2929    2932    2930    2929    2931
    2931    2929    2932    2932    2933    2934    2932    2933    2935
    2933    2935    2951    2933    2935    2937    2933    2935    2936
    2935    2951    2954    2935    2951    2953    2935    2951    2952
    2935    2933    2934    2936    2935    2951    2936    2935    2937
    2937    2935    2951    2938    2941    2944    2938    2941    2943
    2938    2941    2942    2939    2938    2941    2939    2938    2940
    2940    2938    2941    2941    2944    2947    2941    2944    2946
    2941    2944    2945    2942    2941    2944    2942    2941    2943
    2943    2941    2944    2944    2947    2949    2944    2947    2948
    2945    2944    2947    2945    2944    2946    2946    2944    2947
    2948    2947    2949    2950    2947    2949    2950    2947    2948
    2950    2947    2944    2951    2954    2957    2951    2954    2956
    2951    2954    2955    2952    2951    2954    2952    2951    2953
    2953    2951    2954    2954    2957    2960    2954    2957    2959
    2954    2957    2958    2955    2954    2957    2955    2954    2956
    2956    2954    2957    2957    2960    2962    2957    2960    2961
    2958    2957    2960    2958    2957    2959    2959    2957    2960
    2961    2960    2962    2963    2960    2962    2963    2960    2961
    2963    2960    2957    2964    2973    2976    2964    2973    2975
    2964    2973    2974    2964    2969    2972    2964    2969    2971
    2964    2969    2970    2964    2965    2968    2964    2965    2967
    2964    2965    2966    2966    2965    2968    2966    2965    2967
    2967    2965    2968    2969    2964    2965    2970    2969    2972
    2970    2969    2971    2971    2969    2972    2973    2964    2965
    2973    2964    2969    2974    2973    2976    2974    2973    2975
    2975    2973    2976    2977    2964    2965    2977    2964    2969
    2977    2964    2973    2978    2977    2964    2978    2977    2979
    2979    2977    2964    2980    2977    2964    2980    2977    2979
    2980    2977    2978    2981    2980    2977    2981    2980    2982
    2982    2980    2977    2983    2987    2980    2984    2983    2985
    2986    2983    2985    2986    2983    2984    2986    2983    2987
    2987    2983    2985    2987    2983    2984    2987    2980    2977
    2987    2980    2982    2987    2980    2981    2988    2993    2991
    2988    2986    2983    2989    2988    2986    2989    2988    2990
    2990    2988    2986    2991    3007    3008    2991    3007    3009
    2992    2991    3007    2993    2991    3007    2993    2991    2992
    2993    2988    2986    2993    2988    2990    2993    2988    2989
    2994    2993    2991    2994    2993    2988    2995    2999    3001
    2995    2997    2998    2995    2993    2991    2995    2993    2988
    2995    2993    2994    2996    2995    2993    2996    2995    2997
    2997    2995    2993    2999    2995    2993    2999    2995    2997
    2999    2995    2996    3000    2999    3001    3000    2999    2995
    3002    3001    2999    3003    3001    2999    3003    3001    3002
    3004    3003    3001    3004    3003    3005    3005    3003    3001
    3006    3003    3001    3006    3003    3005    3006    3003    3004
    3007    3009    3012    3007    3009    3011    3007    3009    3010
    3009    3012    3015    3009    3012    3014    3009    3012    3013
    3009    3007    3008    3010    3009    3012    3010    3009    3011
    3011    3009    3012    3012    3015    3018    3012    3015    3017
    3012    3015    3016    3013    3012    3015    3013    3012    3014
    3014    3012    3015    3015    3018    3021    3015    3018    3020
    3015    3018    3019    3016    3015    3018    3016    3015    3017
    3017    3015    3018    3018    3021    3023    3018    3021    3022
    3019    3018    3021    3019    3018    3020    3020    3018    3021
    3022    3021    3023    3024    3021    3023    3024    3021    3022
    3024    3021    3018    3025    3029    3032    3025    3029    3031
    3025    3029    3030    3026    3025    3029    3026    3025    3028
    3026    3025    3027    3027    3025    3029    3027    3025    3028
    3028    3025    3029    3029    3032    3039    3029    3032    3034
    3029    3032    3033    3030    3029    3032    3030    3029    3031
    3031    3029    3032    3032    3039    3035    3033    3032    3039
    3033    3032    3034    3034    3032    3039    3035    3038    3040
    3036    3035    3037    3038    3035    3037    3038    3035    3036
    3039    3035    3037    3039    3035    3036    3039    3035    3038
    3040    3043    3045    3040    3043    3051    3040    3043    3044
    3041    3040    3038    3041    3040    3043    3041    3040    3042
    3042    3040    3038    3042    3040    3043    3043    3051    3054
    3043    3051    3053    3043    3051    3052    3043    3045    3046
    3043    3040    3038    3044    3043    3045    3044    3043    3051
    3045    3046    3047    3045    3046    3048    3046    3048    3060
    3046    3048    3050    3046    3048    3049    3048    3060    3063
    3048    3060    3062    3048    3060    3061    3048    3046    3047
    3049    3048    3060    3049    3048    3050    3050    3048    3060
    3051    3054    3055    3051    3043    3045    3052    3051    3054
    3052    3051    3053    3053    3051    3054    3054    3055    3056
    3054    3055    3057    3055    3057    3073    3055    3057    3059
    3055    3057    3058    3057    3073    3076    3057    3073    3075
    3057    3073    3074    3057    3055    3056    3058    3057    3073
    3058    3057    3059    3059    3057    3073    3060    3063    3066
    3060    3063    3065    3060    3063    3064    3061    3060    3063
    3061    3060    3062    3062    3060    3063    3063    3066    3069
    3063    3066    3068    3063    3066    3067    3064    3063    3066
    3064    3063    3065    3065    3063    3066    3066    3069    3071
    3066    3069    3070    3067    3066    3069    3067    3066    3068
    3068    3066    3069    3070    3069    3071    3072    3069    3071
    3072    3069    3070    3072    3069    3066    3073    3076    3079
    3073    3076    3078    3073    3076    3077    3074    3073    3076
    3074    3073    3075    3075    3073    3076    3076    3079    3082
    3076    3079    3081    3076    3079    3080    3077    3076    3079
    3077    3076    3078    3078    3076    3079    3079    3082    3084
    3079    3082    3083    3080    3079    3082    3080    3079    3081
    3081    3079    3082    3083    3082    3084    3085    3082    3084
    3085    3082    3083    3085    3082    3079    3086    3098    3101
    3086    3098    3100    3086    3098    3099    3086    3094    3097
    3086    3094    3096    3086    3094    3095    3086    3090    3093
    3086    3090    3092    3086    3090    3091    3086    3087    3102
    3086    3087    3089    3086    3087    3088    3087    3102    3108
    3087    3102    3104    3087    3102    3103    3088    3087    3102
    3088    3087    3089    3089    3087    3102    3090    3086    3087
    3090    3086    3098    3090    3086    3094    3091    3090    3093
    3091    3090    3092    3092    3090    3093    3094    3086    3087
    3094    3086    3098    3095    3094    3097    3095    3094    3096
    3096    3094    3097    3098    3086    3087    3099    3098    3101
    3099    3098    3100    3100    3098    3101    3102    3108    3105
    3103    3102    3108    3103    3102    3104    3104    3102    3108
    3106    3105    3107    3108    3105    3107    3108    3105    3106
    3108    3105    3109    3109    3110    3113    3109    3110    3112
    3109    3110    3111    3109    3105    3107    3109    3105    3106
    3110    3113    3115    3110    3113    3121    3110    3113    3114
    3110    3109    3105    3111    3110    3113    3111    3110    3112
    3112    3110    3113    3113    3121    3124    3113    3121    3123
    3113    3121    3122    3113    3115    3116    3114    3113    3115
    3114    3113    3121    3115    3116    3117    3115    3116    3118
    3116    3118    3130    3116    3118    3120    3116    3118    3119
    3118    3130    3133    3118    3130    3132    3118    3130    3131
    3118    3116    3117    3119    3118    3130    3119    3118    3120
    3120    3118    3130    3121    3124    3125    3121    3113    3115
    3122    3121    3124    3122    3121    3123    3123    3121    3124
    3124    3125    3126    3124    3125    3127    3125    3127    3143
    3125    3127    3129    3125    3127    3128    3127    3143    3146
    3127    3143    3145    3127    3143    3144    3127    3125    3126
    3128    3127    3143    3128    3127    3129    3129    3127    3143
    3130    3133    3136    3130    3133    3135    3130    3133    3134
    3131    3130    3133    3131    3130    3132    3132    3130    3133
    3133    3136    3139    3133    3136    3138    3133    3136    3137
    3134    3133    3136    3134    3133    3135    3135    3133    3136
    3136    3139    3141    3136    3139    3140    3137    3136    3139
    3137    3136    3138    3138    3136    3139    3140    3139    3141
    3142    3139    3141    3142    3139    3140    3142    3139    3136
    3143    3146    3149    3143    3146    3148    3143    3146    3147
    3144    3143    3146    3144    3143    3145    3145    3143    3146
    3146    3149    3152    3146    3149    3151    3146    3149    3150
    3147    3146    3149    3147    3146    3148    3148    3146    3149
    3149    3152    3154    3149    3152    3153    3150    3149    3152
    3150    3149    3151    3151    3149    3152    3153    3152    3154
    3155    3152    3154    3155    3152    3153    3155    3152    3149
    3156    3168    3171    3156    3168    3170    3156    3168    3169
    3156    3164    3167    3156    3164    3166    3156    3164    3165
    3156    3160    3163    3156    3160    3162    3156    3160    3161
    3156    3157    3172    3156    3157    3159    3156    3157    3158
    3157    3172    3178    3157    3172    3174    3157    3172    3173
    3158    3157    3172    3158    3157    3159    3159    3157    3172
    3160    3156    3157    3160    3156    3168    3160    3156    3164
    3161    3160    3163    3161    3160    3162    3162    3160    3163
    3164    3156    3157    3164    3156    3168    3165    3164    3167
    3165    3164    3166    3166    3164    3167    3168    3156    3157
    3169    3168    3171    3169    3168    3170    3170    3168    3171
    3172    3178    3175    3173    3172    3178    3173    3172    3174
    3174    3172    3178    3176    3175    3177    3178    3175    3177
    3178    3175    3176    3178    3175    3179    3179    3180    3183
    3179    3180    3182    3179    3180    3181    3179    3175    3177
    3179    3175    3176    3180    3183    3185    3180    3183    3191
    3180    3183    3184    3180    3179    3175    3181    3180    3183
    3181    3180    3182    3182    3180    3183    3183    3191    3194
    3183    3191    3193    3183    3191    3192    3183    3185    3186
    3184    3183    3185    3184    3183    3191    3185    3186    3187
    3185    3186    3188    3186    3188    3200    3186    3188    3190
    3186    3188    3189    3188    3200    3203    3188    3200    3202
    3188    3200    3201    3188    3186    3187    3189    3188    3200
    3189    3188    3190    3190    3188    3200    3191    3194    3195
    3191    3183    3185    3192    3191    3194    3192    3191    3193
    3193    3191    3194    3194    3195    3196    3194    3195    3197
    3195    3197    3213    3195    3197    3199    3195    3197    3198
    3197    3213    3216    3197    3213    3215    3197    3213    3214
    3197    3195    3196    3198    3197    3213    3198    3197    3199
    3199    3197    3213    3200    3203    3206    3200    3203    3205
    3200    3203    3204    3201    3200    3203    3201    3200    3202
    3202    3200    3203    3203    3206    3209    3203    3206    3208
    3203    3206    3207    3204    3203    3206    3204    3203    3205
    3205    3203    3206    3206    3209    3211    3206    3209    3210
    3207    3206    3209    3207    3206    3208    3208    3206    3209
    3210    3209    3211    3212    3209    3211    3212    3209    3210
    3212    3209    3206    3213    3216    3219    3213    3216    3218
    3213    3216    3217    3214    3213    3216    3214    3213    3215
    3215    3213    3216    3216    3219    3222    3216    3219    3221
    3216    3219    3220    3217    3216    3219    3217    3216    3218
    3218    3216    3219    3219    3222    3224    3219    3222    3223
    3220    3219    3222    3220    3219    3221    3221    3219    3222
    3223    3222    3224    3225    3222    3224    3225    3222    3223
    3225    3222    3219    3226    3230    3233    3226    3230    3232
    3226    3230    3231    3227    3226    3230    3227    3226    3229
    3227    3226    3228    3228    3226    3230    3228    3226    3229
    3229    3226    3230    3230    3233    3240    3230    3233    3235
    3230    3233    3234    3231    3230    3233    3231    3230    3232
    3232    3230    3233    3233    3240    3236    3234    3233    3240
    3234    3233    3235    3235    3233    3240    3236    3239    3241
    3237    3236    3238    3239    3236    3238    3239    3236    3237
    3240    3236    3238    3240    3236    3237    3240    3236    3239
    3241    3244    3246    3241    3244    3252    3241    3244    3245
    3242    3241    3239    3242    3241    3244    3242    3241    3243
    3243    3241    3239    3243    3241    3244    3244    3252    3255
    3244    3252    3254    3244    3252    3253    3244    3246    3247
    3244    3241    3239    3245    3244    3246    3245    3244    3252
    3246    3247    3248    3246    3247    3249    3247    3249    3261
    3247    3249    3251    3247    3249    3250    3249    3261    3264
    3249    3261    3263    3249    3261    3262    3249    3247    3248
    3250    3249    3261    3250    3249    3251    3251    3249    3261
    3252    3255    3256    3252    3244    3246    3253    3252    3255
    3253    3252    3254    3254    3252    3255    3255    3256    3257
    3255    3256    3258    3256    3258    3274    3256    3258    3260
    3256    3258    3259    3258    3274    3277    3258    3274    3276
    3258    3274    3275    3258    3256    3257    3259    3258    3274
    3259    3258    3260    3260    3258    3274    3261    3264    3267
    3261    3264    3266    3261    3264    3265    3262    3261    3264
    3262    3261    3263    3263    3261    3264    3264    3267    3270
    3264    3267    3269    3264    3267    3268    3265    3264    3267
    3265    3264    3266    3266    3264    3267    3267    3270    3272
    3267    3270    3271    3268    3267    3270    3268    3267    3269
    3269    3267    3270    3271    3270    3272    3273    3270    3272
    3273    3270    3271    3273    3270    3267    3274    3277    3280
    3274    3277    3279    3274    3277    3278    3275    3274    3277
    3275    3274    3276    3276    3274    3277    3277    3280    3283
    3277    3280    3282    3277    3280    3281    3278    3277    3280
    3278    3277    3279    3279    3277    3280    3280    3283    3285
    3280    3283    3284    3281    3280    3283    3281    3280    3282
    3282    3280    3283    3284    3283    3285    3286    3283    3285
    3286    3283    3284    3286    3283    3280    3287    3299    3302
    3287    3299    3301    3287    3299    3300    3287    3295    3298
    3287    3295    3297    3287    3295    3296    3287    3291    3294
    3287    3291    3293    3287    3291    3292    3287    3288    3303
    3287    3288    3290    3287    3288    3289    3288    3303    3309
    3288    3303    3305    3288    3303    3304    3289    3288    3303
    3289    3288    3290    3290    3288    3303    3291    3287    3288
    3291    3287    3299    3291    3287    3295    3292    3291    3294
    3292    3291    3293    3293    3291    3294    3295    3287    3288
    3295    3287    3299    3296    3295    3298    3296    3295    3297
    3297    3295    3298    3299    3287    3288    3300    3299    3302
    3300    3299    3301    3301    3299    3302    3303    3309    3306
    3304    3303    3309    3304    3303    3305    3305    3303    3309
    3307    3306    3308    3309    3306    3308    3309    3306    3307
    3309    3306    3310    3310    3311    3314    3310    3311    3313
    3310    3311    3312    3310    3306    3308    3310    3306    3307
    3311    3314    3316    3311    3314    3322    3311    3314    3315
    3311    3310    3306    3312    3311    3314    3312    3311    3313
    3313    3311    3314    3314    3322    3325    3314    3322    3324
    3314    3322    3323    3314    3316    3317    3315    3314    3316
    3315    3314    3322    3316    3317    3318    3316    3317    3319
    3317    3319    3331    3317    3319    3321    3317    3319    3320
    3319    3331    3334    3319    3331    3333    3319    3331    3332
    3319    3317    3318    3320    3319    3331    3320    3319    3321
    3321    3319    3331    3322    3325    3326    3322    3314    3316
    3323    3322    3325    3323    3322    3324    3324    3322    3325
    3325    3326    3327    3325    3326    3328    3326    3328    3344
    3326    3328    3330    3326    3328    3329    3328    3344    3347
    3328    3344    3346    3328    3344    3345    3328    3326    3327
    3329    3328    3344    3329    3328    3330    3330    3328    3344
    3331    3334    3337    3331    3334    3336    3331    3334    3335
    3332    3331    3334    3332    3331    3333    3333    3331    3334
    3334    3337    3340    3334    3337    3339    3334    3337    3338
    3335    3334    3337    3335    3334    3336    3336    3334    3337
    3337    3340    3342    3337    3340    3341    3338    3337    3340
    3338    3337    3339    3339    3337    3340    3341    3340    3342
    3343    3340    3342    3343    3340    3341    3343    3340    3337
    3344    3347    3350    3344    3347    3349    3344    3347    3348
    3345    3344    3347    3345    3344    3346    3346    3344    3347
    3347    3350    3353    3347    3350    3352    3347    3350    3351
    3348    3347    3350    3348    3347    3349    3349    3347    3350
    3350    3353    3355    3350    3353    3354    3351    3350    3353
    3351    3350    3352    3352    3350    3353    3354    3353    3355
    3356    3353    3355    3356    3353    3354    3356    3353    3350
    3357    3361    3364    3357    3361    3363    3357    3361    3362
    3358    3357    3361    3358    3357    3360    3358    3357    3359
    3359    3357    3361    3359    3357    3360    3360    3357    3361
    3361    3364    3371    3361    3364    3366    3361    3364    3365
    3362    3361    3364    3362    3361    3363    3363    3361    3364
    3364    3371    3367    3365    3364    3371    3365    3364    3366
    3366    3364    3371    3367    3370    3372    3368    3367    3369
    3370    3367    3369    3370    3367    3368    3371    3367    3369
    3371    3367    3368    3371    3367    3370    3372    3375    3377
    3372    3375    3383    3372    3375    3376    3373    3372    3370
    3373    3372    3375    3373    3372    3374    3374    3372    3370
    3374    3372    3375    3375    3383    3386    3375    3383    3385
    3375    3383    3384    3375    3377    3378    3375    3372    3370
    3376    3375    3377    3376    3375    3383    3377    3378    3379
    3377    3378    3380    3378    3380    3392    3378    3380    3382
    3378    3380    3381    3380    3392    3395    3380    3392    3394
    3380    3392    3393    3380    3378    3379    3381    3380    3392
    3381    3380    3382    3382    3380    3392    3383    3386    3387
    3383    3375    3377    3384    3383    3386    3384    3383    3385
    3385    3383    3386    3386    3387    3388    3386    3387    3389
    3387    3389    3405    3387    3389    3391    3387    3389    3390
    3389    3405    3408    3389    3405    3407    3389    3405    3406
    3389    3387    3388    3390    3389    3405    3390    3389    3391
    3391    3389    3405    3392    3395    3398    3392    3395    3397
    3392    3395    3396    3393    3392    3395    3393    3392    3394
    3394    3392    3395    3395    3398    3401    3395    3398    3400
    3395    3398    3399    3396    3395    3398    3396    3395    3397
    3397    3395    3398    3398    3401    3403    3398    3401    3402
    3399    3398    3401    3399    3398    3400    3400    3398    3401
    3402    3401    3403    3404    3401    3403    3404    3401    3402
    3404    3401    3398    3405    3408    3411    3405    3408    3410
    3405    3408    3409    3406    3405    3408    3406    3405    3407
    3407    3405    3408    3408    3411    3414    3408    3411    3413
    3408    3411    3412    3409    3408    3411    3409    3408    3410
    3410    3408    3411    3411    3414    3416    3411    3414    3415
    3412    3411    3414    3412    3411    3413    3413    3411    3414
    3415    3414    3416    3417    3414    3416    3417    3414    3415
    3417    3414    3411    3418    3422    3425    3418    3422    3424
    3418    3422    3423    3419    3418    3422    3419    3418    3421
    3419    3418    3420    3420    3418    3422    3420    3418    3421
    3421    3418    3422    3422    3425    3432    3422    3425    3427
    3422    3425    3426    3423    3422    3425    3423    3422    3424
    3424    3422    3425    3425    3432    3428    3426    3425    3432
    3426    3425    3427    3427    3425    3432    3428    3431    3433
    3429    3428    3430    3431    3428    3430    3431    3428    3429
    3432    3428    3430    3432    3428    3429    3432    3428    3431
    3433    3436    3438    3433    3436    3444    3433    3436    3437
    3434    3433    3431    3434    3433    3436    3434    3433    3435
    3435    3433    3431    3435    3433    3436    3436    3444    3447
    3436    3444    3446    3436    3444    3445    3436    3438    3439
    3436    3433    3431    3437    3436    3438    3437    3436    3444
    3438    3439    3440    3438    3439    3441    3439    3441    3453
    3439    3441    3443    3439    3441    3442    3441    3453    3456
    3441    3453    3455    3441    3453    3454    3441    3439    3440
    3442    3441    3453    3442    3441    3443    3443    3441    3453
    3444    3447    3448    3444    3436    3438    3445    3444    3447
    3445    3444    3446    3446    3444    3447    3447    3448    3449
    3447    3448    3450    3448    3450    3466    3448    3450    3452
    3448    3450    3451    3450    3466    3469    3450    3466    3468
    3450    3466    3467    3450    3448    3449    3451    3450    3466
    3451    3450    3452    3452    3450    3466    3453    3456    3459
    3453    3456    3458    3453    3456    3457    3454    3453    3456
    3454    3453    3455    3455    3453    3456    3456    3459    3462
    3456    3459    3461    3456    3459    3460    3457    3456    3459
    3457    3456    3458    3458    3456    3459    3459    3462    3464
    3459    3462    3463    3460    3459    3462    3460    3459    3461
    3461    3459    3462    3463    3462    3464    3465    3462    3464
    3465    3462    3463    3465    3462    3459    3466    3469    3472
    3466    3469    3471    3466    3469    3470    3467    3466    3469
    3467    3466    3468    3468    3466    3469    3469    3472    3475
    3469    3472    3474    3469    3472    3473    3470    3469    3472
    3470    3469    3471    3471    3469    3472    3472    3475    3477
    3472    3475    3476    3473    3472    3475    3473    3472    3474
    3474    3472    3475    3476    3475    3477    3478    3475    3477
    3478    3475    3476    3478    3475    3472    3479    3483    3486
    3479    3483    3485    3479    3483    3484    3480    3479    3483
    3480    3479    3482    3480    3479    3481    3481    3479    3483
    3481    3479    3482    3482    3479    3483    3483    3486    3493
    3483    3486    3488    3483    3486    3487    3484    3483    3486
    3484    3483    3485    3485    3483    3486    3486    3493    3489
    3487    3486    3493    3487    3486    3488    3488    3486    3493
    3489    3492    3494    3490    3489    3491    3492    3489    3491
    3492    3489    3490    3493    3489    3491    3493    3489    3490
    3493    3489    3492    3494    3497    3499    3494    3497    3505
    3494    3497    3498    3495    3494    3492    3495    3494    3497
    3495    3494    3496    3496    3494    3492    3496    3494    3497
    3497    3505    3508    3497    3505    3507    3497    3505    3506
    3497    3499    3500    3497    3494    3492    3498    3497    3499
    3498    3497    3505    3499    3500    3501    3499    3500    3502
    3500    3502    3514    3500    3502    3504    3500    3502    3503
    3502    3514    3517    3502    3514    3516    3502    3514    3515
    3502    3500    3501    3503    3502    3514    3503    3502    3504
    3504    3502    3514    3505    3508    3509    3505    3497    3499
    3506    3505    3508    3506    3505    3507    3507    3505    3508
    3508    3509    3510    3508    3509    3511    3509    3511    3527
    3509    3511    3513    3509    3511    3512    3511    3527    3530
    3511    3527    3529    3511    3527    3528    3511    3509    3510
    3512    3511    3527    3512    3511    3513    3513    3511    3527
    3514    3517    3520    3514    3517    3519    3514    3517    3518
    3515    3514    3517    3515    3514    3516    3516    3514    3517
    3517    3520    3523    3517    3520    3522    3517    3520    3521
    3518    3517    3520    3518    3517    3519    3519    3517    3520
    3520    3523    3525    3520    3523    3524    3521    3520    3523
    3521    3520    3522    3522    3520    3523    3524    3523    3525
    3526    3523    3525    3526    3523    3524    3526    3523    3520
    3527    3530    3533    3527    3530    3532    3527    3530    3531
    3528    3527    3530    3528    3527    3529    3529    3527    3530
    3530    3533    3536    3530    3533    3535    3530    3533    3534
    3531    3530    3533    3531    3530    3532    3532    3530    3533
    3533    3536    3538    3533    3536    3537    3534    3533    3536
    3534    3533    3535    3535    3533    3536    3537    3536    3538
    3539    3536    3538    3539    3536    3537    3539    3536    3533
    3540    3549    3552    3540    3549    3551    3540    3549    3550
    3540    3545    3548    3540    3545    3547    3540    3545    3546
    3540    3541    3544    3540    3541    3543    3540    3541    3542
    3542    3541    3544    3542    3541    3543    3543    3541    3544
    3545    3540    3541    3546    3545    3548    3546    3545    3547
    3547    3545    3548    3549    3540    3541    3549    3540    3545
    3550    3549    3552    3550    3549    3551    3551    3549    3552
    3553    3540    3541    3553    3540    3545    3553    3540    3549
    3554    3553    3540    3554    3553    3555    3555    3553    3540
    3556    3553    3540    3556    3553    3555    3556    3553    3554
    3557    3556    3553    3557    3556    3558    3558    3556    3553
    3559    3563    3556    3560    3559    3561    3562    3559    3561
    3562    3559    3560    3562    3559    3563    3563    3559    3561
    3563    3559    3560    3563    3556    3553    3563    3556    3558
    3563    3556    3557    3564    3569    3567    3564    3562    3559
    3565    3564    3562    3565    3564    3566    3566    3564    3562
    3567    3583    3584    3567    3583    3585    3568    3567    3583
    3569    3567    3583    3569    3567    3568    3569    3564    3562
    3569    3564    3566    3569    3564    3565    3570    3569    3567
    3570    3569    3564    3571    3575    3577    3571    3573    3574
    3571    3569    3567    3571    3569    3564    3571    3569    3570
    3572    3571    3569    3572    3571    3573    3573    3571    3569
    3575    3571    3569    3575    3571    3573    3575    3571    3572
    3576    3575    3577    3576    3575    3571    3578    3577    3575
    3579    3577    3575    3579    3577    3578    3580    3579    3577
    3580    3579    3581    3581    3579    3577    3582    3579    3577
    3582    3579    3581    3582    3579    3580    3583    3585    3588
    3583    3585    3587    3583    3585    3586    3585    3588    3591
    3585    3588    3590    3585    3588    3589    3585    3583    3584
    3586    3585    3588    3586    3585    3587    3587    3585    3588
    3588    3591    3594    3588    3591    3593    3588    3591    3592
    3589    3588    3591    3589    3588    3590    3590    3588    3591
    3591    3594    3597    3591    3594    3596    3591    3594    3595
    3592    3591    3594    3592    3591    3593    3593    3591    3594
    3594    3597    3599    3594    3597    3598    3595    3594    3597
    3595    3594    3596    3596    3594    3597    3598    3597    3599
    3600    3597    3599    3600    3597    3598    3600    3597    3594
    3601    3610    3613    3601    3610    3612    3601    3610    3611
    3601    3606    3609    3601    3606    3608    3601    3606    3607
    3601    3602    3605    3601    3602    3604    3601    3602    3603
    3603    3602    3605    3603    3602    3604    3604    3602    3605
    3606    3601    3602    3607    3606    3609    3607    3606    3608
    3608    3606    3609    3610    3601    3602    3610    3601    3606
    3611    3610    3613    3611    3610    3612    3612    3610    3613
    3614    3601    3602    3614    3601    3606    3614    3601    3610
    3615    3614    3601    3615    3614    3616    3616    3614    3601
    3617    3614    3601    3617    3614    3616    3617    3614    3615
    3618    3617    3614    3618    3617    3619    3619    3617    3614
    3620    3624    3617    3621    3620    3622    3623    3620    3622
    3623    3620    3621    3623    3620    3624    3624    3620    3622
    3624    3620    3621    3624    3617    3614    3624    3617    3619
    3624    3617    3618    3625    3630    3628    3625    3623    3620
    3626    3625    3623    3626    3625    3627    3627    3625    3623
    3628    3644    3645    3628    3644    3646    3629    3628    3644
    3630    3628    3644    3630    3628    3629    3630    3625    3623
    3630    3625    3627    3630    3625    3626    3631    3630    3628
    3631    3630    3625    3632    3636    3638    3632    3634    3635
    3632    3630    3628    3632    3630    3625    3632    3630    3631
    3633    3632    3630    3633    3632    3634    3634    3632    3630
    3636    3632    3630    3636    3632    3634    3636    3632    3633
    3637    3636    3638    3637    3636    3632    3639    3638    3636
    3640    3638    3636    3640    3638    3639    3641    3640    3638
    3641    3640    3642    3642    3640    3638    3643    3640    3638
    3643    3640    3642    3643    3640    3641    3644    3646    3649
    3644    3646    3648    3644    3646    3647    3646    3649    3652
    3646    3649    3651    3646    3649    3650    3646    3644    3645
    3647    3646    3649    3647    3646    3648    3648    3646    3649
    3649    3652    3655    3649    3652    3654    3649    3652    3653
    3650    3649    3652    3650    3649    3651    3651    3649    3652
    3652    3655    3658    3652    3655    3657    3652    3655    3656
    3653    3652    3655    3653    3652    3654    3654    3652    3655
    3655    3658    3660    3655    3658    3659    3656    3655    3658
    3656    3655    3657    3657    3655    3658    3659    3658    3660
    3661    3658    3660    3661    3658    3659    3661    3658    3655
    3662    3666    3669    3662    3666    3668    3662    3666    3667
    3663    3662    3666    3663    3662    3665    3663    3662    3664
    3664    3662    3666    3664    3662    3665    3665    3662    3666
    3666    3669    3676    3666    3669    3671    3666    3669    3670
    3667    3666    3669    3667    3666    3668    3668    3666    3669
    3669    3676    3672    3670    3669    3676    3670    3669    3671
    3671    3669    3676    3672    3675    3677    3673    3672    3674
    3675    3672    3674    3675    3672    3673    3676    3672    3674
    3676    3672    3673    3676    3672    3675    3677    3680    3682
    3677    3680    3688    3677    3680    3681    3678    3677    3675
    3678    3677    3680    3678    3677    3679    3679    3677    3675
    3679    3677    3680    3680    3688    3691    3680    3688    3690
    3680    3688    3689    3680    3682    3683    3680    3677    3675
    3681    3680    3682    3681    3680    3688    3682    3683    3684
    3682    3683    3685    3683    3685    3697    3683    3685    3687
    3683    3685    3686    3685    3697    3700    3685    3697    3699
    3685    3697    3698    3685    3683    3684    3686    3685    3697
    3686    3685    3687    3687    3685    3697    3688    3691    3692
    3688    3680    3682    3689    3688    3691    3689    3688    3690
    3690    3688    3691    3691    3692    3693    3691    3692    3694
    3692    3694    3710    3692    3694    3696    3692    3694    3695
    3694    3710    3713    3694    3710    3712    3694    3710    3711
    3694    3692    3693    3695    3694    3710    3695    3694    3696
    3696    3694    3710    3697    3700    3703    3697    3700    3702
    3697    3700    3701    3698    3697    3700    3698    3697    3699
    3699    3697    3700    3700    3703    3706    3700    3703    3705
    3700    3703    3704    3701    3700    3703    3701    3700    3702
    3702    3700    3703    3703    3706    3708    3703    3706    3707
    3704    3703    3706    3704    3703    3705    3705    3703    3706
    3707    3706    3708    3709    3706    3708    3709    3706    3707
    3709    3706    3703    3710    3713    3716    3710    3713    3715
    3710    3713    3714    3711    3710    3713    3711    3710    3712
    3712    3710    3713    3713    3716    3719    3713    3716    3718
    3713    3716    3717    3714    3713    3716    3714    3713    3715
    3715    3713    3716    3716    3719    3721    3716    3719    3720
    3717    3716    3719    3717    3716    3718    3718    3716    3719
    3720    3719    3721    3722    3719    3721    3722    3719    3720
    3722    3719    3716    3723    3727    3730    3723    3727    3729
    3723    3727    3728    3724    3723    3727    3724    3723    3726
    3724    3723    3725    3725    3723    3727    3725    3723    3726
    3726    3723    3727    3727    3730    3737    3727    3730    3732
    3727    3730    3731    3728    3727    3730    3728    3727    3729
    3729    3727    3730    3730    3737    3733    3731    3730    3737
    3731    3730    3732    3732    3730    3737    3733    3736    3738
    3734    3733    3735    3736    3733    3735    3736    3733    3734
    3737    3733    3735    3737    3733    3734    3737    3733    3736
    3738    3741    3743    3738    3741    3749    3738    3741    3742
    3739    3738    3736    3739    3738    3741    3739    3738    3740
    3740    3738    3736    3740    3738    3741    3741    3749    3752
    3741    3749    3751    3741    3749    3750    3741    3743    3744
    3741    3738    3736    3742    3741    3743    3742    3741    3749
    3743    3744    3745    3743    3744    3746    3744    3746    3758
    3744    3746    3748    3744    3746    3747    3746    3758    3761
    3746    3758    3760    3746    3758    3759    3746    3744    3745
    3747    3746    3758    3747    3746    3748    3748    3746    3758
    3749    3752    3753    3749    3741    3743    3750    3749    3752
    3750    3749    3751    3751    3749    3752    3752    3753    3754
    3752    3753    3755    3753    3755    3771    3753    3755    3757
    3753    3755    3756    3755    3771    3774    3755    3771    3773
    3755    3771    3772    3755    3753    3754    3756    3755    3771
    3756    3755    3757    3757    3755    3771    3758    3761    3764
    3758    3761    3763    3758    3761    3762    3759    3758    3761
    3759    3758    3760    3760    3758    3761    3761    3764    3767
    3761    3764    3766    3761    3764    3765    3762    3761    3764
    3762    3761    3763    3763    3761    3764    3764    3767    3769
    3764    3767    3768    3765    3764    3767    3765    3764    3766
    3766    3764    3767    3768    3767    3769    3770    3767    3769
    3770    3767    3768    3770    3767    3764    3771    3774    3777
    3771    3774    3776    3771    3774    3775    3772    3771    3774
    3772    3771    3773    3773    3771    3774    3774    3777    3780
    3774    3777    3779    3774    3777    3778    3775    3774    3777
    3775    3774    3776    3776    3774    3777    3777    3780    3782
    3777    3780    3781    3778    3777    3780    3778    3777    3779
    3779    3777    3780    3781    3780    3782    3783    3780    3782
    3783    3780    3781    3783    3780    3777    3784    3793    3796
    3784    3793    3795    3784    3793    3794    3784    3789    3792
    3784    3789    3791    3784    3789    3790    3784    3785    3788
    3784    3785    3787    3784    3785    3786    3786    3785    3788
    3786    3785    3787    3787    3785    3788    3789    3784    3785
    3790    3789    3792    3790    3789    3791    3791    3789    3792
    3793    3784    3785    3793    3784    3789    3794    3793    3796
    3794    3793    3795    3795    3793    3796    3797    3784    3785
    3797    3784    3789    3797    3784    3793    3798    3797    3784
    3798    3797    3799    3799    3797    3784    3800    3797    3784
    3800    3797    3799    3800    3797    3798    3801    3800    3797
    3801    3800    3802    3802    3800    3797    3803    3807    3800
    3804    3803    3805    3806    3803    3805    3806    3803    3804
    3806    3803    3807    3807    3803    3805    3807    3803    3804
    3807    3800    3797    3807    3800    3802    3807    3800    3801
    3808    3813    3811    3808    3806    3803    3809    3808    3806
    3809    3808    3810    3810    3808    3806    3811    3827    3828
    3811    3827    3829    3812    3811    3827    3813    3811    3827
    3813    3811    3812    3813    3808    3806    3813    3808    3810
    3813    3808    3809    3814    3813    3811    3814    3813    3808
    3815    3819    3821    3815    3817    3818    3815    3813    3811
    3815    3813    3808    3815    3813    3814    3816    3815    3813
    3816    3815    3817    3817    3815    3813    3819    3815    3813
    3819    3815    3817    3819    3815    3816    3820    3819    3821
    3820    3819    3815    3822    3821    3819    3823    3821    3819
    3823    3821    3822    3824    3823    3821    3824    3823    3825
    3825    3823    3821    3826    3823    3821    3826    3823    3825
    3826    3823    3824    3827    3829    3832    3827    3829    3831
    3827    3829    3830    3829    3832    3835    3829    3832    3834
    3829    3832    3833    3829    3827    3828    3830    3829    3832
    3830    3829    3831    3831    3829    3832    3832    3835    3838
    3832    3835    3837    3832    3835    3836    3833    3832    3835
    3833    3832    3834    3834    3832    3835    3835    3838    3841
    3835    3838    3840    3835    3838    3839    3836    3835    3838
    3836    3835    3837    3837    3835    3838    3838    3841    3843
    3838    3841    3842    3839    3838    3841    3839    3838    3840
    3840    3838    3841    3842    3841    3843    3844    3841    3843
    3844    3841    3842    3844    3841    3838    3845    3849    3854
    3845    3849    3850    3845    3849    3851    3846    3845    3849
    3846    3845    3848    3846    3845    3847    3847    3845    3849
    3847    3845    3848    3848    3845    3849    3849    3854    3860
    3849    3854    3856    3849    3854    3855    3849    3851    3852
    3850    3849    3854    3851    3849    3854    3851    3849    3850
    3853    3851    3852    3853    3851    3849    3854    3860    3857
    3855    3854    3860    3855    3854    3856    3856    3854    3860
    3858    3857    3859    3860    3857    3859    3860    3857    3858
    3860    3857    3861    3861    3862    3865    3861    3862    3864
    3861    3862    3863    3861    3857    3859    3861    3857    3858
    3862    3865    3867    3862    3865    3873    3862    3865    3866
    3862    3861    3857    3863    3862    3865    3863    3862    3864
    3864    3862    3865    3865    3873    3876    3865    3873    3875
    3865    3873    3874    3865    3867    3868    3866    3865    3867
    3866    3865    3873    3867    3868    3869    3867    3868    3870
    3868    3870    3882    3868    3870    3872    3868    3870    3871
    3870    3882    3885    3870    3882    3884    3870    3882    3883
    3870    3868    3869    3871    3870    3882    3871    3870    3872
    3872    3870    3882    3873    3876    3877    3873    3865    3867
    3874    3873    3876    3874    3873    3875    3875    3873    3876
    3876    3877    3878    3876    3877    3879    3877    3879    3895
    3877    3879    3881    3877    3879    3880    3879    3895    3898
    3879    3895    3897    3879    3895    3896    3879    3877    3878
    3880    3879    3895    3880    3879    3881    3881    3879    3895
    3882    3885    3888    3882    3885    3887    3882    3885    3886
    3883    3882    3885    3883    3882    3884    3884    3882    3885
    3885    3888    3891    3885    3888    3890    3885    3888    3889
    3886    3885    3888    3886    3885    3887    3887    3885    3888
    3888    3891    3893    3888    3891    3892    3889    3888    3891
    3889    3888    3890    3890    3888    3891    3892    3891    3893
    3894    3891    3893    3894    3891    3892    3894    3891    3888
    3895    3898    3901    3895    3898    3900    3895    3898    3899
    3896    3895    3898    3896    3895    3897    3897    3895    3898
    3898    3901    3904    3898    3901    3903    3898    3901    3902
    3899    3898    3901    3899    3898    3900    3900    3898    3901
    3901    3904    3906    3901    3904    3905    3902    3901    3904
    3902    3901    3903    3903    3901    3904    3905    3904    3906
    3907    3904    3906    3907    3904    3905    3907    3904    3901
    3908    3912    3915    3908    3912    3914    3908    3912    3913
    3909    3908    3912    3909    3908    3911    3909    3908    3910
    3910    3908    3912    3910    3908    3911    3911    3908    3912
    3912    3915    3922    3912    3915    3917    3912    3915    3916
    3913    3912    3915    3913    3912    3914    3914    3912    3915
    3915    3922    3918    3916    3915    3922    3916    3915    3917
    3917    3915    3922    3918    3921    3923    3919    3918    3920
    3921    3918    3920    3921    3918    3919    3922    3918    3920
    3922    3918    3919    3922    3918    3921    3923    3926    3928
    3923    3926    3934    3923    3926    3927    3924    3923    3921
    3924    3923    3926    3924    3923    3925    3925    3923    3921
    3925    3923    3926    3926    3934    3937    3926    3934    3936
    3926    3934    3935    3926    3928    3929    3926    3923    3921
    3927    3926    3928    3927    3926    3934    3928    3929    3930
    3928    3929    3931    3929    3931    3943    3929    3931    3933
    3929    3931    3932    3931    3943    3946    3931    3943    3945
    3931    3943    3944    3931    3929    3930    3932    3931    3943
    3932    3931    3933    3933    3931    3943    3934    3937    3938
    3934    3926    3928    3935    3934    3937    3935    3934    3936
    3936    3934    3937    3937    3938    3939    3937    3938    3940
    3938    3940    3956    3938    3940    3942    3938    3940    3941
    3940    3956    3959    3940    3956    3958    3940    3956    3957
    3940    3938    3939    3941    3940    3956    3941    3940    3942
    3942    3940    3956    3943    3946    3949    3943    3946    3948
    3943    3946    3947    3944    3943    3946    3944    3943    3945
    3945    3943    3946    3946    3949    3952    3946    3949    3951
    3946    3949    3950    3947    3946    3949    3947    3946    3948
    3948    3946    3949    3949    3952    3954    3949    3952    3953
    3950    3949    3952    3950    3949    3951    3951    3949    3952
    3953    3952    3954    3955    3952    3954    3955    3952    3953
    3955    3952    3949    3956    3959    3962    3956    3959    3961
    3956    3959    3960    3957    3956    3959    3957    3956    3958
    3958    3956    3959    3959    3962    3965    3959    3962    3964
    3959    3962    3963    3960    3959    3962    3960    3959    3961
    3961    3959    3962    3962    3965    3967    3962    3965    3966
    3963    3962    3965    3963    3962    3964    3964    3962    3965
    3966    3965    3967    3968    3965    3967    3968    3965    3966
    3968    3965    3962    3969    3981    3984    3969    3981    3983
    3969    3981    3982    3969    3977    3980    3969    3977    3979
    3969    3977    3978    3969    3973    3976    3969    3973    3975
    3969    3973    3974    3969    3970    3985    3969    3970    3972
    3969    3970    3971    3970    3985    3991    3970    3985    3987
    3970    3985    3986    3971    3970    3985    3971    3970    3972
    3972    3970    3985    3973    3969    3970    3973    3969    3981
    3973    3969    3977    3974    3973    3976    3974    3973    3975
    3975    3973    3976    3977    3969    3970    3977    3969    3981
    3978    3977    3980    3978    3977    3979    3979    3977    3980
    3981    3969    3970    3982    3981    3984    3982    3981    3983
    3983    3981    3984    3985    3991    3988    3986    3985    3991
    3986    3985    3987    3987    3985    3991    3989    3988    3990
    3991    3988    3990    3991    3988    3989    3991    3988    3992
    3992    3993    3996    3992    3993    3995    3992    3993    3994
    3992    3988    3990    3992    3988    3989    3993    3996    3998
    3993    3996    4004    3993    3996    3997    3993    3992    3988
    3994    3993    3996    3994    3993    3995    3995    3993    3996
    3996    4004    4007    3996    4004    4006    3996    4004    4005
    3996    3998    3999    3997    3996    3998    3997    3996    4004
    3998    3999    4000    3998    3999    4001    3999    4001    4013
    3999    4001    4003    3999    4001    4002    4001    4013    4016
    4001    4013    4015    4001    4013    4014    4001    3999    4000
    4002    4001    4013    4002    4001    4003    4003    4001    4013
    4004    4007    4008    4004    3996    3998    4005    4004    4007
    4005    4004    4006    4006    4004    4007    4007    4008    4009
    4007    4008    4010    4008    4010    4026    4008    4010    4012
    4008    4010    4011    4010    4026    4029    4010    4026    4028
    4010    4026    4027    4010    4008    4009    4011    4010    4026
    4011    4010    4012    4012    4010    4026    4013    4016    4019
    4013    4016    4018    4013    4016    4017    4014    4013    4016
    4014    4013    4015    4015    4013    4016    4016    4019    4022
    4016    4019    4021    4016    4019    4020    4017    4016    4019
    4017    4016    4018    4018    4016    4019    4019    4022    4024
    4019    4022    4023    4020    4019    4022    4020    4019    4021
    4021    4019    4022    4023    4022    4024    4025    4022    4024
    4025    4022    4023    4025    4022    4019    4026    4029    4032
    4026    4029    4031    4026    4029    4030    4027    4026    4029
    4027    4026    4028    4028    4026    4029    4029    4032    4035
    4029    4032    4034    4029    4032    4033    4030    4029    4032
    4030    4029    4031    4031    4029    4032    4032    4035    4037
    4032    4035    4036    4033    4032    4035    4033    4032    4034
    4034    4032    4035    4036    4035    4037    4038    4035    4037
    4038    4035    4036    4038    4035    4032    4039    4043    4046
    4039    4043    4045    4039    4043    4044    4040    4039    4043
    4040    4039    4042    4040    4039    4041    4041    4039    4043
    4041    4039    4042    4042    4039    4043    4043    4046    4053
    4043    4046    4048    4043    4046    4047    4044    4043    4046
    4044    4043    4045    4045    4043    4046    4046    4053    4049
    4047    4046    4053    4047    4046    4048    4048    4046    4053
    4049    4052    4054    4050    4049    4051    4052    4049    4051
    4052    4049    4050    4053    4049    4051    4053    4049    4050
    4053    4049    4052    4054    4057    4059    4054    4057    4065
    4054    4057    4058    4055    4054    4052    4055    4054    4057
    4055    4054    4056    4056    4054    4052    4056    4054    4057
    4057    4065    4068    4057    4065    4067    4057    4065    4066
    4057    4059    4060    4057    4054    4052    4058    4057    4059
    4058    4057    4065    4059    4060    4061    4059    4060    4062
    4060    4062    4074    4060    4062    4064    4060    4062    4063
    4062    4074    4077    4062    4074    4076    4062    4074    4075
    4062    4060    4061    4063    4062    4074    4063    4062    4064
    4064    4062    4074    4065    4068    4069    4065    4057    4059
    4066    4065    4068    4066    4065    4067    4067    4065    4068
    4068    4069    4070    4068    4069    4071    4069    4071    4087
    4069    4071    4073    4069    4071    4072    4071    4087    4090
    4071    4087    4089    4071    4087    4088    4071    4069    4070
    4072    4071    4087    4072    4071    4073    4073    4071    4087
    4074    4077    4080    4074    4077    4079    4074    4077    4078
    4075    4074    4077    4075    4074    4076    4076    4074    4077
    4077    4080    4083    4077    4080    4082    4077    4080    4081
    4078    4077    4080    4078    4077    4079    4079    4077    4080
    4080    4083    4085    4080    4083    4084    4081    4080    4083
    4081    4080    4082    4082    4080    4083    4084    4083    4085
    4086    4083    4085    4086    4083    4084    4086    4083    4080
    4087    4090    4093    4087    4090    4092    4087    4090    4091
    4088    4087    4090    4088    4087    4089    4089    4087    4090
    4090    4093    4096    4090    4093    4095    4090    4093    4094
    4091    4090    4093    4091    4090    4092    4092    4090    4093
    4093    4096    4098    4093    4096    4097    4094    4093    4096
    4094    4093    4095    4095    4093    4096    4097    4096    4098
    4099    4096    4098    4099    4096    4097    4099    4096    4093
    4100    4112    4115    4100    4112    4114    4100    4112    4113
    4100    4108    4111    4100    4108    4110    4100    4108    4109
    4100    4104    4107    4100    4104    4106    4100    4104    4105
    4100    4101    4116    4100    4101    4103    4100    4101    4102
    4101    4116    4122    4101    4116    4118    4101    4116    4117
    4102    4101    4116    4102    4101    4103    4103    4101    4116
    4104    4100    4101    4104    4100    4112    4104    4100    4108
    4105    4104    4107    4105    4104    4106    4106    4104    4107
    4108    4100    4101    4108    4100    4112    4109    4108    4111
    4109    4108    4110    4110    4108    4111    4112    4100    4101
    4113    4112    4115    4113    4112    4114    4114    4112    4115
    4116    4122    4119    4117    4116    4122    4117    4116    4118
    4118    4116    4122    4120    4119    4121    4122    4119    4121
    4122    4119    4120    4122    4119    4123    4123    4124    4127
    4123    4124    4126    4123    4124    4125    4123    4119    4121
    4123    4119    4120    4124    4127    4129    4124    4127    4135
    4124    4127    4128    4124    4123    4119    4125    4124    4127
    4125    4124    4126    4126    4124    4127    4127    4135    4138
    4127    4135    4137    4127    4135    4136    4127    4129    4130
    4128    4127    4129    4128    4127    4135    4129    4130    4131
    4129    4130    4132    4130    4132    4144    4130    4132    4134
    4130    4132    4133    4132    4144    4147    4132    4144    4146
    4132    4144    4145    4132    4130    4131    4133    4132    4144
    4133    4132    4134    4134    4132    4144    4135    4138    4139
    4135    4127    4129    4136    4135    4138    4136    4135    4137
    4137    4135    4138    4138    4139    4140    4138    4139    4141
    4139    4141    4157    4139    4141    4143    4139    4141    4142
    4141    4157    4160    4141    4157    4159    4141    4157    4158
    4141    4139    4140    4142    4141    4157    4142    4141    4143
    4143    4141    4157    4144    4147    4150    4144    4147    4149
    4144    4147    4148    4145    4144    4147    4145    4144    4146
    4146    4144    4147    4147    4150    4153    4147    4150    4152
    4147    4150    4151    4148    4147    4150    4148    4147    4149
    4149    4147    4150    4150    4153    4155    4150    4153    4154
    4151    4150    4153    4151    4150    4152    4152    4150    4153
    4154    4153    4155    4156    4153    4155    4156    4153    4154
    4156    4153    4150    4157    4160    4163    4157    4160    4162
    4157    4160    4161    4158    4157    4160    4158    4157    4159
    4159    4157    4160    4160    4163    4166    4160    4163    4165
    4160    4163    4164    4161    4160    4163    4161    4160    4162
    4162    4160    4163    4163    4166    4168    4163    4166    4167
    4164    4163    4166    4164    4163    4165    4165    4163    4166
    4167    4166    4168    4169    4166    4168    4169    4166    4167
    4169    4166    4163    4170    4182    4185    4170    4182    4184
    4170    4182    4183    4170    4178    4181    4170    4178    4180
    4170    4178    4179    4170    4174    4177    4170    4174    4176
    4170    4174    4175    4170    4171    4186    4170    4171    4173
    4170    4171    4172    4171    4186    4192    4171    4186    4188
    4171    4186    4187    4172    4171    4186    4172    4171    4173
    4173    4171    4186    4174    4170    4171    4174    4170    4182
    4174    4170    4178    4175    4174    4177    4175    4174    4176
    4176    4174    4177    4178    4170    4171    4178    4170    4182
    4179    4178    4181    4179    4178    4180    4180    4178    4181
    4182    4170    4171    4183    4182    4185    4183    4182    4184
    4184    4182    4185    4186    4192    4189    4187    4186    4192
    4187    4186    4188    4188    4186    4192    4190    4189    4191
    4192    4189    4191    4192    4189    4190    4192    4189    4193
    4193    4194    4197    4193    4194    4196    4193    4194    4195
    4193    4189    4191    4193    4189    4190    4194    4197    4199
    4194    4197    4205    4194    4197    4198    4194    4193    4189
    4195    4194    4197    4195    4194    4196    4196    4194    4197
    4197    4205    4208    4197    4205    4207    4197    4205    4206
    4197    4199    4200    4198    4197    4199    4198    4197    4205
    4199    4200    4201    4199    4200    4202    4200    4202    4214
    4200    4202    4204    4200    4202    4203    4202    4214    4217
    4202    4214    4216    4202    4214    4215    4202    4200    4201
    4203    4202    4214    4203    4202    4204    4204    4202    4214
    4205    4208    4209    4205    4197    4199    4206    4205    4208
    4206    4205    4207    4207    4205    4208    4208    4209    4210
    4208    4209    4211    4209    4211    4227    4209    4211    4213
    4209    4211    4212    4211    4227    4230    4211    4227    4229
    4211    4227    4228    4211    4209    4210    4212    4211    4227
    4212    4211    4213    4213    4211    4227    4214    4217    4220
    4214    4217    4219    4214    4217    4218    4215    4214    4217
    4215    4214    4216    4216    4214    4217    4217    4220    4223
    4217    4220    4222    4217    4220    4221    4218    4217    4220
    4218    4217    4219    4219    4217    4220    4220    4223    4225
    4220    4223    4224    4221    4220    4223    4221    4220    4222
    4222    4220    4223    4224    4223    4225    4226    4223    4225
    4226    4223    4224    4226    4223    4220    4227    4230    4233
    4227    4230    4232    4227    4230    4231    4228    4227    4230
    4228    4227    4229    4229    4227    4230    4230    4233    4236
    4230    4233    4235    4230    4233    4234    4231    4230    4233
    4231    4230    4232    4232    4230    4233    4233    4236    4238
    4233    4236    4237    4234    4233    4236    4234    4233    4235
    4235    4233    4236    4237    4236    4238    4239    4236    4238
    4239    4236    4237    4239    4236    4233    4240    4249    4252
    4240    4249    4251    4240    4249    4250    4240    4245    4248
    4240    4245    4247    4240    4245    4246    4240    4241    4244
    4240    4241    4243    4240    4241    4242    4242    4241    4244
    4242    4241    4243    4243    4241    4244    4245    4240    4241
    4246    4245    4248    4246    4245    4247    4247    4245    4248
    4249    4240    4241    4249    4240    4245    4250    4249    4252
    4250    4249    4251    4251    4249    4252    4253    4240    4241
    4253    4240    4245    4253    4240    4249    4254    4253    4240
    4254    4253    4255    4255    4253    4240    4256    4253    4240
    4256    4253    4255    4256    4253    4254    4257    4256    4253
    4257    4256    4258    4258    4256    4253    4259    4263    4256
    4260    4259    4261    4262    4259    4261    4262    4259    4260
    4262    4259    4263    4263    4259    4261    4263    4259    4260
    4263    4256    4253    4263    4256    4258    4263    4256    4257
    4264    4269    4267    4264    4262    4259    4265    4264    4262
    4265    4264    4266    4266    4264    4262    4267    4283    4284
    4267    4283    4285    4268    4267    4283    4269    4267    4283
    4269    4267    4268    4269    4264    4262    4269    4264    4266
    4269    4264    4265    4270    4269    4267    4270    4269    4264
    4271    4275    4277    4271    4273    4274    4271    4269    4267
    4271    4269    4264    4271    4269    4270    4272    4271    4269
    4272    4271    4273    4273    4271    4269    4275    4271    4269
    4275    4271    4273    4275    4271    4272    4276    4275    4277
    4276    4275    4271    4278    4277    4275    4279    4277    4275
    4279    4277    4278    4280    4279    4277    4280    4279    4281
    4281    4279    4277    4282    4279    4277    4282    4279    4281
    4282    4279    4280    4283    4285    4288    4283    4285    4287
    4283    4285    4286    4285    4288    4291    4285    4288    4290
    4285    4288    4289    4285    4283    4284    4286    4285    4288
    4286    4285    4287    4287    4285    4288    4288    4291    4294
    4288    4291    4293    4288    4291    4292    4289    4288    4291
    4289    4288    4290    4290    4288    4291    4291    4294    4297
    4291    4294    4296    4291    4294    4295    4292    4291    4294
    4292    4291    4293    4293    4291    4294    4294    4297    4299
    4294    4297    4298    4295    4294    4297    4295    4294    4296
    4296    4294    4297    4298    4297    4299    4300    4297    4299
    4300    4297    4298    4300    4297    4294    4301    4347    4344
    4301    4347    4349    4301    4347    4348    4301    4305    4308
    4301    4305    4307    4301    4305    4306    4301    4303    4304
    4302    4301    4305    4302    4301    4347    4303    4301    4305
    4303    4301    4347    4303    4301    4302    4305    4308    4309
    4305    4308    4339    4306    4305    4308    4306    4305    4307
    4307    4305    4308    4308    4339    4337    4308    4339    4340
    4308    4339    4344    4308    4309    4311    4308    4309    4310
    4309    4311    4314    4309    4311    4313    4309    4311    4312
    4310    4309    4311    4311    4314    4316    4311    4314    4337
    4311    4314    4315    4312    4311    4314    4312    4311    4313
    4313    4311    4314    4314    4337    4334    4314    4337    4339
    4314    4337    4338    4314    4316    4318    4314    4316    4326
    4314    4316    4317    4315    4314    4316    4315    4314    4337
    4316    4326    4324    4316    4326    4327    4316    4326    4331
    4316    4318    4321    4316    4318    4320    4316    4318    4319
    4317    4316    4318    4317    4316    4326    4318    4321    4324
    4318    4321    4323    4318    4321    4322    4319    4318    4321
    4319    4318    4320    4320    4318    4321    4321    4324    4350
    4321    4324    4326    4321    4324    4325    4322    4321    4324
    4322    4321    4323    4323    4321    4324    4324    4350    4356
    4324    4350    4352    4324    4350    4351    4325    4324    4350
    4325    4324    4326    4326    4331    4334    4326    4331    4333
    4326    4331    4332    4326    4327    4330    4326    4327    4329
    4326    4327    4328    4326    4324    4350    4326    4316    4318
    4327    4326    4324    4328    4327    4330    4328    4327    4329
    4329    4327    4330    4331    4334    4337    4331    4334    4336
    4331    4334    4335    4331    4326    4324    4331    4326    4327
    4332    4331    4334    4332    4331    4333    4333    4331    4334
    4335    4334    4337    4335    4334    4336    4336    4334    4337
    4337    4314    4316    4338    4337    4334    4338    4337    4339
    4339    4340    4343    4339    4340    4342    4339    4340    4341
    4339    4337    4334    4339    4308    4309    4340    4339    4337
    4341    4340    4343    4341    4340    4342    4342    4340    4343
    4344    4339    4337    4344    4339    4340    4345    4344    4339
    4345    4344    4346    4346    4344    4339    4347    4344    4339
    4347    4344    4346    4347    4344    4345    4347    4301    4305
    4348    4347    4344    4348    4347    4349    4349    4347    4344
    4350    4356    4359    4350    4356    4358    4350    4356    4357
    4350    4352    4355    4350    4352    4354    4350    4352    4353
    4351    4350    4356    4351    4350    4352    4352    4350    4356
    4353    4352    4355    4353    4352    4354    4354    4352    4355
    4356    4359    4362    4356    4359    4361    4356    4359    4360
    4357    4356    4359    4357    4356    4358    4358    4356    4359
    4359    4362    4365    4359    4362    4364    4359    4362    4363
    4360    4359    4362    4360    4359    4361    4361    4359    4362
    4362    4365    4371    4362    4365    4367    4362    4365    4366
    4363    4362    4365    4363    4362    4364    4364    4362    4365
    4365    4371    4374    4365    4371    4373    4365    4371    4372
    4365    4367    4370    4365    4367    4369    4365    4367    4368
    4366    4365    4371    4366    4365    4367    4367    4365    4371
    4368    4367    4370    4368    4367    4369    4369    4367    4370
    4372    4371    4374    4372    4371    4373    4373    4371    4374
    4375    4421    4418    4375    4421    4423    4375    4421    4422
    4375    4379    4382    4375    4379    4381    4375    4379    4380
    4375    4377    4378    4376    4375    4379    4376    4375    4421
    4377    4375    4379    4377    4375    4421    4377    4375    4376
    4379    4382    4383    4379    4382    4413    4380    4379    4382
    4380    4379    4381    4381    4379    4382    4382    4413    4411
    4382    4413    4414    4382    4413    4418    4382    4383    4385
    4382    4383    4384    4383    4385    4388    4383    4385    4387
    4383    4385    4386    4384    4383    4385    4385    4388    4390
    4385    4388    4411    4385    4388    4389    4386    4385    4388
    4386    4385    4387    4387    4385    4388    4388    4411    4408
    4388    4411    4413    4388    4411    4412    4388    4390    4392
    4388    4390    4400    4388    4390    4391    4389    4388    4390
    4389    4388    4411    4390    4400    4398    4390    4400    4401
    4390    4400    4405    4390    4392    4395    4390    4392    4394
    4390    4392    4393    4391    4390    4392    4391    4390    4400
    4392    4395    4398    4392    4395    4397    4392    4395    4396
    4393    4392    4395    4393    4392    4394    4394    4392    4395
    4395    4398    4424    4395    4398    4400    4395    4398    4399
    4396    4395    4398    4396    4395    4397    4397    4395    4398
    4398    4424    4430    4398    4424    4426    4398    4424    4425
    4399    4398    4424    4399    4398    4400    4400    4405    4408
    4400    4405    4407    4400    4405    4406    4400    4401    4404
    4400    4401    4403    4400    4401    4402    4400    4398    4424
    4400    4390    4392    4401    4400    4398    4402    4401    4404
    4402    4401    4403    4403    4401    4404    4405    4408    4411
    4405    4408    4410    4405    4408    4409    4405    4400    4398
    4405    4400    4401    4406    4405    4408    4406    4405    4407
    4407    4405    4408    4409    4408    4411    4409    4408    4410
    4410    4408    4411    4411    4388    4390    4412    4411    4408
    4412    4411    4413    4413    4414    4417    4413    4414    4416
    4413    4414    4415    4413    4411    4408    4413    4382    4383
    4414    4413    4411    4415    4414    4417    4415    4414    4416
    4416    4414    4417    4418    4413    4411    4418    4413    4414
    4419    4418    4413    4419    4418    4420    4420    4418    4413
    4421    4418    4413    4421    4418    4420    4421    4418    4419
    4421    4375    4379    4422    4421    4418    4422    4421    4423
    4423    4421    4418    4424    4430    4433    4424    4430    4432
    4424    4430    4431    4424    4426    4429    4424    4426    4428
    4424    4426    4427    4425    4424    4430    4425    4424    4426
    4426    4424    4430    4427    4426    4429    4427    4426    4428
    4428    4426    4429    4430    4433    4436    4430    4433    4435
    4430    4433    4434    4431    4430    4433    4431    4430    4432
    4432    4430    4433    4433    4436    4439    4433    4436    4438
    4433    4436    4437    4434    4433    4436    4434    4433    4435
    4435    4433    4436    4436    4439    4445    4436    4439    4441
    4436    4439    4440    4437    4436    4439    4437    4436    4438
    4438    4436    4439    4439    4445    4448    4439    4445    4447
    4439    4445    4446    4439    4441    4444    4439    4441    4443
    4439    4441    4442    4440    4439    4445    4440    4439    4441
    4441    4439    4445    4442    4441    4444    4442    4441    4443
    4443    4441    4444    4446    4445    4448    4446    4445    4447
    4447    4445    4448    4449    4495    4492    4449    4495    4497
    4449    4495    4496    4449    4453    4456    4449    4453    4455
    4449    4453    4454    4449    4451    4452    4450    4449    4453
    4450    4449    4495    4451    4449    4453    4451    4449    4495
    4451    4449    4450    4453    4456    4457    4453    4456    4487
    4454    4453    4456    4454    4453    4455    4455    4453    4456
    4456    4487    4485    4456    4487    4488    4456    4487    4492
    4456    4457    4459    4456    4457    4458    4457    4459    4462
    4457    4459    4461    4457    4459    4460    4458    4457    4459
    4459    4462    4464    4459    4462    4485    4459    4462    4463
    4460    4459    4462    4460    4459    4461    4461    4459    4462
    4462    4485    4482    4462    4485    4487    4462    4485    4486
    4462    4464    4466    4462    4464    4474    4462    4464    4465
    4463    4462    4464    4463    4462    4485    4464    4474    4472
    4464    4474    4475    4464    4474    4479    4464    4466    4469
    4464    4466    4468    4464    4466    4467    4465    4464    4466
    4465    4464    4474    4466    4469    4472    4466    4469    4471
    4466    4469    4470    4467    4466    4469    4467    4466    4468
    4468    4466    4469    4469    4472    4498    4469    4472    4474
    4469    4472    4473    4470    4469    4472    4470    4469    4471
    4471    4469    4472    4472    4498    4504    4472    4498    4500
    4472    4498    4499    4473    4472    4498    4473    4472    4474
    4474    4479    4482    4474    4479    4481    4474    4479    4480
    4474    4475    4478    4474    4475    4477    4474    4475    4476
    4474    4472    4498    4474    4464    4466    4475    4474    4472
    4476    4475    4478    4476    4475    4477    4477    4475    4478
    4479    4482    4485    4479    4482    4484    4479    4482    4483
    4479    4474    4472    4479    4474    4475    4480    4479    4482
    4480    4479    4481    4481    4479    4482    4483    4482    4485
    4483    4482    4484    4484    4482    4485    4485    4462    4464
    4486    4485    4482    4486    4485    4487    4487    4488    4491
    4487    4488    4490    4487    4488    4489    4487    4485    4482
    4487    4456    4457    4488    4487    4485    4489    4488    4491
    4489    4488    4490    4490    4488    4491    4492    4487    4485
    4492    4487    4488    4493    4492    4487    4493    4492    4494
    4494    4492    4487    4495    4492    4487    4495    4492    4494
    4495    4492    4493    4495    4449    4453    4496    4495    4492
    4496    4495    4497    4497    4495    4492    4498    4504    4507
    4498    4504    4506    4498    4504    4505    4498    4500    4503
    4498    4500    4502    4498    4500    4501    4499    4498    4504
    4499    4498    4500    4500    4498    4504    4501    4500    4503
    4501    4500    4502    4502    4500    4503    4504    4507    4510
    4504    4507    4509    4504    4507    4508    4505    4504    4507
    4505    4504    4506    4506    4504    4507    4507    4510    4513
    4507    4510    4512    4507    4510    4511    4508    4507    4510
    4508    4507    4509    4509    4507    4510    4510    4513    4519
    4510    4513    4515    4510    4513    4514    4511    4510    4513
    4511    4510    4512    4512    4510    4513    4513    4519    4522
    4513    4519    4521    4513    4519    4520    4513    4515    4518
    4513    4515    4517    4513    4515    4516    4514    4513    4519
    4514    4513    4515    4515    4513    4519    4516    4515    4518
    4516    4515    4517    4517    4515    4518    4520    4519    4522
    4520    4519    4521    4521    4519    4522    4523    4569    4566
    4523    4569    4571    4523    4569    4570    4523    4527    4530
    4523    4527    4529    4523    4527    4528    4523    4525    4526
    4524    4523    4527    4524    4523    4569    4525    4523    4527
    4525    4523    4569    4525    4523    4524    4527    4530    4531
    4527    4530    4561    4528    4527    4530    4528    4527    4529
    4529    4527    4530    4530    4561    4559    4530    4561    4562
    4530    4561    4566    4530    4531    4533    4530    4531    4532
    4531    4533    4536    4531    4533    4535    4531    4533    4534
    4532    4531    4533    4533    4536    4538    4533    4536    4559
    4533    4536    4537    4534    4533    4536    4534    4533    4535
    4535    4533    4536    4536    4559    4556    4536    4559    4561
    4536    4559    4560    4536    4538    4540    4536    4538    4548
    4536    4538    4539    4537    4536    4538    4537    4536    4559
    4538    4548    4546    4538    4548    4549    4538    4548    4553
    4538    4540    4543    4538    4540    4542    4538    4540    4541
    4539    4538    4540    4539    4538    4548    4540    4543    4546
    4540    4543    4545    4540    4543    4544    4541    4540    4543
    4541    4540    4542    4542    4540    4543    4543    4546    4572
    4543    4546    4548    4543    4546    4547    4544    4543    4546
    4544    4543    4545    4545    4543    4546    4546    4572    4578
    4546    4572    4574    4546    4572    4573    4547    4546    4572
    4547    4546    4548    4548    4553    4556    4548    4553    4555
    4548    4553    4554    4548    4549    4552    4548    4549    4551
    4548    4549    4550    4548    4546    4572    4548    4538    4540
    4549    4548    4546    4550    4549    4552    4550    4549    4551
    4551    4549    4552    4553    4556    4559    4553    4556    4558
    4553    4556    4557    4553    4548    4546    4553    4548    4549
    4554    4553    4556    4554    4553    4555    4555    4553    4556
    4557    4556    4559    4557    4556    4558    4558    4556    4559
    4559    4536    4538    4560    4559    4556    4560    4559    4561
    4561    4562    4565    4561    4562    4564    4561    4562    4563
    4561    4559    4556    4561    4530    4531    4562    4561    4559
    4563    4562    4565    4563    4562    4564    4564    4562    4565
    4566    4561    4559    4566    4561    4562    4567    4566    4561
    4567    4566    4568    4568    4566    4561    4569    4566    4561
    4569    4566    4568    4569    4566    4567    4569    4523    4527
    4570    4569    4566    4570    4569    4571    4571    4569    4566
    4572    4578    4581    4572    4578    4580    4572    4578    4579
    4572    4574    4577    4572    4574    4576    4572    4574    4575
    4573    4572    4578    4573    4572    4574    4574    4572    4578
    4575    4574    4577    4575    4574    4576    4576    4574    4577
    4578    4581    4584    4578    4581    4583    4578    4581    4582
    4579    4578    4581    4579    4578    4580    4580    4578    4581
    4581    4584    4587    4581    4584    4586    4581    4584    4585
    4582    4581    4584    4582    4581    4583    4583    4581    4584
    4584    4587    4593    4584    4587    4589    4584    4587    4588
    4585    4584    4587    4585    4584    4586    4586    4584    4587
    4587    4593    4596    4587    4593    4595    4587    4593    4594
    4587    4589    4592    4587    4589    4591    4587    4589    4590
    4588    4587    4593    4588    4587    4589    4589    4587    4593
    4590    4589    4592    4590    4589    4591    4591    4589    4592
    4594    4593    4596    4594    4593    4595    4595    4593    4596
    4597    4643    4640    4597    4643    4645    4597    4643    4644
    4597    4601    4604    4597    4601    4603    4597    4601    4602
    4597    4599    4600    4598    4597    4601    4598    4597    4643
    4599    4597    4601    4599    4597    4643    4599    4597    4598
    4601    4604    4605    4601    4604    4635    4602    4601    4604
    4602    4601    4603    4603    4601    4604    4604    4635    4633
    4604    4635    4636    4604    4635    4640    4604    4605    4607
    4604    4605    4606    4605    4607    4610    4605    4607    4609
    4605    4607    4608    4606    4605    4607    4607    4610    4612
    4607    4610    4633    4607    4610    4611    4608    4607    4610
    4608    4607    4609    4609    4607    4610    4610    4633    4630
    4610    4633    4635    4610    4633    4634    4610    4612    4614
    4610    4612    4622    4610    4612    4613    4611    4610    4612
    4611    4610    4633    4612    4622    4620    4612    4622    4623
    4612    4622    4627    4612    4614    4617    4612    4614    4616
    4612    4614    4615    4613    4612    4614    4613    4612    4622
    4614    4617    4620    4614    4617    4619    4614    4617    4618
    4615    4614    4617    4615    4614    4616    4616    4614    4617
    4617    4620    4646    4617    4620    4622    4617    4620    4621
    4618    4617    4620    4618    4617    4619    4619    4617    4620
    4620    4646    4652    4620    4646    4648    4620    4646    4647
    4621    4620    4646    4621    4620    4622    4622    4627    4630
    4622    4627    4629    4622    4627    4628    4622    4623    4626
    4622    4623    4625    4622    4623    4624    4622    4620    4646
    4622    4612    4614    4623    4622    4620    4624    4623    4626
    4624    4623    4625    4625    4623    4626    4627    4630    4633
    4627    4630    4632    4627    4630    4631    4627    4622    4620
    4627    4622    4623    4628    4627    4630    4628    4627    4629
    4629    4627    4630    4631    4630    4633    4631    4630    4632
    4632    4630    4633    4633    4610    4612    4634    4633    4630
    4634    4633    4635    4635    4636    4639    4635    4636    4638
    4635    4636    4637    4635    4633    4630    4635    4604    4605
    4636    4635    4633    4637    4636    4639    4637    4636    4638
    4638    4636    4639    4640    4635    4633    4640    4635    4636
    4641    4640    4635    4641    4640    4642    4642    4640    4635
    4643    4640    4635    4643    4640    4642    4643    4640    4641
    4643    4597    4601    4644    4643    4640    4644    4643    4645
    4645    4643    4640    4646    4652    4655    4646    4652    4654
    4646    4652    4653    4646    4648    4651    4646    4648    4650
    4646    4648    4649    4647    4646    4652    4647    4646    4648
    4648    4646    4652    4649    4648    4651    4649    4648    4650
    4650    4648    4651    4652    4655    4658    4652    4655    4657
    4652    4655    4656    4653    4652    4655    4653    4652    4654
    4654    4652    4655    4655    4658    4661    4655    4658    4660
    4655    4658    4659    4656    4655    4658    4656    4655    4657
    4657    4655    4658    4658    4661    4667    4658    4661    4663
    4658    4661    4662    4659    4658    4661    4659    4658    4660
    4660    4658    4661    4661    4667    4670    4661    4667    4669
    4661    4667    4668    4661    4663    4666    4661    4663    4665
    4661    4663    4664    4662    4661    4667    4662    4661    4663
    4663    4661    4667    4664    4663    4666    4664    4663    4665
    4665    4663    4666    4668    4667    4670    4668    4667    4669
    4669    4667    4670    4671    4717    4714    4671    4717    4719
    4671    4717    4718    4671    4675    4678    4671    4675    4677
    4671    4675    4676    4671    4673    4674    4672    4671    4675
    4672    4671    4717    4673    4671    4675    4673    4671    4717
    4673    4671    4672    4675    4678    4679    4675    4678    4709
    4676    4675    4678    4676    4675    4677    4677    4675    4678
    4678    4709    4707    4678    4709    4710    4678    4709    4714
    4678    4679    4681    4678    4679    4680    4679    4681    4684
    4679    4681    4683    4679    4681    4682    4680    4679    4681
    4681    4684    4686    4681    4684    4707    4681    4684    4685
    4682    4681    4684    4682    4681    4683    4683    4681    4684
    4684    4707    4704    4684    4707    4709    4684    4707    4708
    4684    4686    4688    4684    4686    4696    4684    4686    4687
    4685    4684    4686    4685    4684    4707    4686    4696    4694
    4686    4696    4697    4686    4696    4701    4686    4688    4691
    4686    4688    4690    4686    4688    4689    4687    4686    4688
    4687    4686    4696    4688    4691    4694    4688    4691    4693
    4688    4691    4692    4689    4688    4691    4689    4688    4690
    4690    4688    4691    4691    4694    4720    4691    4694    4696
    4691    4694    4695    4692    4691    4694    4692    4691    4693
    4693    4691    4694    4694    4720    4726    4694    4720    4722
    4694    4720    4721    4695    4694    4720    4695    4694    4696
    4696    4701    4704    4696    4701    4703    4696    4701    4702
    4696    4697    4700    4696    4697    4699    4696    4697    4698
    4696    4694    4720    4696    4686    4688    4697    4696    4694
    4698    4697    4700    4698    4697    4699    4699    4697    4700
    4701    4704    4707    4701    4704    4706    4701    4704    4705
    4701    4696    4694    4701    4696    4697    4702    4701    4704
    4702    4701    4703    4703    4701    4704    4705    4704    4707
    4705    4704    4706    4706    4704    4707    4707    4684    4686
    4708    4707    4704    4708    4707    4709    4709    4710    4713
    4709    4710    4712    4709    4710    4711    4709    4707    4704
    4709    4678    4679    4710    4709    4707    4711    4710    4713
    4711    4710    4712    4712    4710    4713    4714    4709    4707
    4714    4709    4710    4715    4714    4709    4715    4714    4716
    4716    4714    4709    4717    4714    4709    4717    4714    4716
    4717    4714    4715    4717    4671    4675    4718    4717    4714
    4718    4717    4719    4719    4717    4714    4720    4726    4729
    4720    4726    4728    4720    4726    4727    4720    4722    4725
    4720    4722    4724    4720    4722    4723    4721    4720    4726
    4721    4720    4722    4722    4720    4726    4723    4722    4725
    4723    4722    4724    4724    4722    4725    4726    4729    4732
    4726    4729    4731    4726    4729    4730    4727    4726    4729
    4727    4726    4728    4728    4726    4729    4729    4732    4735
    4729    4732    4734    4729    4732    4733    4730    4729    4732
    4730    4729    4731    4731    4729    4732    4732    4735    4741
    4732    4735    4737    4732    4735    4736    4733    4732    4735
    4733    4732    4734    4734    4732    4735    4735    4741    4744
    4735    4741    4743    4735    4741    4742    4735    4737    4740
    4735    4737    4739    4735    4737    4738    4736    4735    4741
    4736    4735    4737    4737    4735    4741    4738    4737    4740
    4738    4737    4739    4739    4737    4740    4742    4741    4744
    4742    4741    4743    4743    4741    4744    4745    4791    4788
    4745    4791    4793    4745    4791    4792    4745    4749    4752
    4745    4749    4751    4745    4749    4750    4745    4747    4748
    4746    4745    4749    4746    4745    4791    4747    4745    4749
    4747    4745    4791    4747    4745    4746    4749    4752    4753
    4749    4752    4783    4750    4749    4752    4750    4749    4751
    4751    4749    4752    4752    4783    4781    4752    4783    4784
    4752    4783    4788    4752    4753    4755    4752    4753    4754
    4753    4755    4758    4753    4755    4757    4753    4755    4756
    4754    4753    4755    4755    4758    4760    4755    4758    4781
    4755    4758    4759    4756    4755    4758    4756    4755    4757
    4757    4755    4758    4758    4781    4778    4758    4781    4783
    4758    4781    4782    4758    4760    4762    4758    4760    4770
    4758    4760    4761    4759    4758    4760    4759    4758    4781
    4760    4770    4768    4760    4770    4771    4760    4770    4775
    4760    4762    4765    4760    4762    4764    4760    4762    4763
    4761    4760    4762    4761    4760    4770    4762    4765    4768
    4762    4765    4767    4762    4765    4766    4763    4762    4765
    4763    4762    4764    4764    4762    4765    4765    4768    4794
    4765    4768    4770    4765    4768    4769    4766    4765    4768
    4766    4765    4767    4767    4765    4768    4768    4794    4800
    4768    4794    4796    4768    4794    4795    4769    4768    4794
    4769    4768    4770    4770    4775    4778    4770    4775    4777
    4770    4775    4776    4770    4771    4774    4770    4771    4773
    4770    4771    4772    4770    4768    4794    4770    4760    4762
    4771    4770    4768    4772    4771    4774    4772    4771    4773
    4773    4771    4774    4775    4778    4781    4775    4778    4780
    4775    4778    4779    4775    4770    4768    4775    4770    4771
    4776    4775    4778    4776    4775    4777    4777    4775    4778
    4779    4778    4781    4779    4778    4780    4780    4778    4781
    4781    4758    4760    4782    4781    4778    4782    4781    4783
    4783    4784    4787    4783    4784    4786    4783    4784    4785
    4783    4781    4778    4783    4752    4753    4784    4783    4781
    4785    4784    4787    4785    4784    4786    4786    4784    4787
    4788    4783    4781    4788    4783    4784    4789    4788    4783
    4789    4788    4790    4790    4788    4783    4791    4788    4783
    4791    4788    4790    4791    4788    4789    4791    4745    4749
    4792    4791    4788    4792    4791    4793    4793    4791    4788
    4794    4800    4803    4794    4800    4802    4794    4800    4801
    4794    4796    4799    4794    4796    4798    4794    4796    4797
    4795    4794    4800    4795    4794    4796    4796    4794    4800
    4797    4796    4799    4797    4796    4798    4798    4796    4799
    4800    4803    4806    4800    4803    4805    4800    4803    4804
    4801    4800    4803    4801    4800    4802    4802    4800    4803
    4803    4806    4809    4803    4806    4808    4803    4806    4807
    4804    4803    4806    4804    4803    4805    4805    4803    4806
    4806    4809    4815    4806    4809    4811    4806    4809    4810
    4807    4806    4809    4807    4806    4808    4808    4806    4809
    4809    4815    4818    4809    4815    4817    4809    4815    4816
    4809    4811    4814    4809    4811    4813    4809    4811    4812
    4810    4809    4815    4810    4809    4811    4811    4809    4815
    4812    4811    4814    4812    4811    4813    4813    4811    4814
    4816    4815    4818    4816    4815    4817    4817    4815    4818
    4819    4865    4862    4819    4865    4867    4819    4865    4866
    4819    4823    4826    4819    4823    4825    4819    4823    4824
    4819    4821    4822    4820    4819    4823    4820    4819    4865
    4821    4819    4823    4821    4819    4865    4821    4819    4820
    4823    4826    4827    4823    4826    4857    4824    4823    4826
    4824    4823    4825    4825    4823    4826    4826    4857    4855
    4826    4857    4858    4826    4857    4862    4826    4827    4829
    4826    4827    4828    4827    4829    4832    4827    4829    4831
    4827    4829    4830    4828    4827    4829    4829    4832    4834
    4829    4832    4855    4829    4832    4833    4830    4829    4832
    4830    4829    4831    4831    4829    4832    4832    4855    4852
    4832    4855    4857    4832    4855    4856    4832    4834    4836
    4832    4834    4844    4832    4834    4835    4833    4832    4834
    4833    4832    4855    4834    4844    4842    4834    4844    4845
    4834    4844    4849    4834    4836    4839    4834    4836    4838
    4834    4836    4837    4835    4834    4836    4835    4834    4844
    4836    4839    4842    4836    4839    4841    4836    4839    4840
    4837    4836    4839    4837    4836    4838    4838    4836    4839
    4839    4842    4868    4839    4842    4844    4839    4842    4843
    4840    4839    4842    4840    4839    4841    4841    4839    4842
    4842    4868    4874    4842    4868    4870    4842    4868    4869
    4843    4842    4868    4843    4842    4844    4844    4849    4852
    4844    4849    4851    4844    4849    4850    4844    4845    4848
    4844    4845    4847    4844    4845    4846    4844    4842    4868
    4844    4834    4836    4845    4844    4842    4846    4845    4848
    4846    4845    4847    4847    4845    4848    4849    4852    4855
    4849    4852    4854    4849    4852    4853    4849    4844    4842
    4849    4844    4845    4850    4849    4852    4850    4849    4851
    4851    4849    4852    4853    4852    4855    4853    4852    4854
    4854    4852    4855    4855    4832    4834    4856    4855    4852
    4856    4855    4857    4857    4858    4861    4857    4858    4860
    4857    4858    4859    4857    4855    4852    4857    4826    4827
    4858    4857    4855    4859    4858    4861    4859    4858    4860
    4860    4858    4861    4862    4857    4855    4862    4857    4858
    4863    4862    4857    4863    4862    4864    4864    4862    4857
    4865    4862    4857    4865    4862    4864    4865    4862    4863
    4865    4819    4823    4866    4865    4862    4866    4865    4867
    4867    4865    4862    4868    4874    4877    4868    4874    4876
    4868    4874    4875    4868    4870    4873    4868    4870    4872
    4868    4870    4871    4869    4868    4874    4869    4868    4870
    4870    4868    4874    4871    4870    4873    4871    4870    4872
    4872    4870    4873    4874    4877    4880    4874    4877    4879
    4874    4877    4878    4875    4874    4877    4875    4874    4876
    4876    4874    4877    4877    4880    4883    4877    4880    4882
    4877    4880    4881    4878    4877    4880    4878    4877    4879
    4879    4877    4880    4880    4883    4889    4880    4883    4885
    4880    4883    4884    4881    4880    4883    4881    4880    4882
    4882    4880    4883    4883    4889    4892    4883    4889    4891
    4883    4889    4890    4883    4885    4888    4883    4885    4887
    4883    4885    4886    4884    4883    4889    4884    4883    4885
    4885    4883    4889    4886    4885    4888    4886    4885    4887
    4887    4885    4888    4890    4889    4892    4890    4889    4891
    4891    4889    4892    4893    4939    4936    4893    4939    4941
    4893    4939    4940    4893    4897    4900    4893    4897    4899
    4893    4897    4898    4893    4895    4896    4894    4893    4897
    4894    4893    4939    4895    4893    4897    4895    4893    4939
    4895    4893    4894    4897    4900    4901    4897    4900    4931
    4898    4897    4900    4898    4897    4899    4899    4897    4900
    4900    4931    4929    4900    4931    4932    4900    4931    4936
    4900    4901    4903    4900    4901    4902    4901    4903    4906
    4901    4903    4905    4901    4903    4904    4902    4901    4903
    4903    4906    4908    4903    4906    4929    4903    4906    4907
    4904    4903    4906    4904    4903    4905    4905    4903    4906
    4906    4929    4926    4906    4929    4931    4906    4929    4930
    4906    4908    4910    4906    4908    4918    4906    4908    4909
    4907    4906    4908    4907    4906    4929    4908    4918    4916
    4908    4918    4919    4908    4918    4923    4908    4910    4913
    4908    4910    4912    4908    4910    4911    4909    4908    4910
    4909    4908    4918    4910    4913    4916    4910    4913    4915
    4910    4913    4914    4911    4910    4913    4911    4910    4912
    4912    4910    4913    4913    4916    4942    4913    4916    4918
    4913    4916    4917    4914    4913    4916    4914    4913    4915
    4915    4913    4916    4916    4942    4948    4916    4942    4944
    4916    4942    4943    4917    4916    4942    4917    4916    4918
    4918    4923    4926    4918    4923    4925    4918    4923    4924
    4918    4919    4922    4918    4919    4921    4918    4919    4920
    4918    4916    4942    4918    4908    4910    4919    4918    4916
    4920    4919    4922    4920    4919    4921    4921    4919    4922
    4923    4926    4929    4923    4926    4928    4923    4926    4927
    4923    4918    4916    4923    4918    4919    4924    4923    4926
    4924    4923    4925    4925    4923    4926    4927    4926    4929
    4927    4926    4928    4928    4926    4929    4929    4906    4908
    4930    4929    4926    4930    4929    4931    4931    4932    4935
    4931    4932    4934    4931    4932    4933    4931    4929    4926
    4931    4900    4901    4932    4931    4929    4933    4932    4935
    4933    4932    4934    4934    4932    4935    4936    4931    4929
    4936    4931    4932    4937    4936    4931    4937    4936    4938
    4938    4936    4931    4939    4936    4931    4939    4936    4938
    4939    4936    4937    4939    4893    4897    4940    4939    4936
    4940    4939    4941    4941    4939    4936    4942    4948    4951
    4942    4948    4950    4942    4948    4949    4942    4944    4947
    4942    4944    4946    4942    4944    4945    4943    4942    4948
    4943    4942    4944    4944    4942    4948    4945    4944    4947
    4945    4944    4946    4946    4944    4947    4948    4951    4954
    4948    4951    4953    4948    4951    4952    4949    4948    4951
    4949    4948    4950    4950    4948    4951    4951    4954    4957
    4951    4954    4956    4951    4954    4955    4952    4951    4954
    4952    4951    4953    4953    4951    4954    4954    4957    4963
    4954    4957    4959    4954    4957    4958    4955    4954    4957
    4955    4954    4956    4956    4954    4957    4957    4963    4966
    4957    4963    4965    4957    4963    4964    4957    4959    4962
    4957    4959    4961    4957    4959    4960    4958    4957    4963
    4958    4957    4959    4959    4957    4963    4960    4959    4962
    4960    4959    4961    4961    4959    4962    4964    4963    4966
    4964    4963    4965    4965    4963    4966    4967    5013    5010
    4967    5013    5015    4967    5013    5014    4967    4971    4974
    4967    4971    4973    4967    4971    4972    4967    4969    4970
    4968    4967    4971    4968    4967    5013    4969    4967    4971
    4969    4967    5013    4969    4967    4968    4971    4974    4975
    4971    4974    5005    4972    4971    4974    4972    4971    4973
    4973    4971    4974    4974    5005    5003    4974    5005    5006
    4974    5005    5010    4974    4975    4977    4974    4975    4976
    4975    4977    4980    4975    4977    4979    4975    4977    4978
    4976    4975    4977    4977    4980    4982    4977    4980    5003
    4977    4980    4981    4978    4977    4980    4978    4977    4979
    4979    4977    4980    4980    5003    5000    4980    5003    5005
    4980    5003    5004    4980    4982    4984    4980    4982    4992
    4980    4982    4983    4981    4980    4982    4981    4980    5003
    4982    4992    4990    4982    4992    4993    4982    4992    4997
    4982    4984    4987    4982    4984    4986    4982    4984    4985
    4983    4982    4984    4983    4982    4992    4984    4987    4990
    4984    4987    4989    4984    4987    4988    4985    4984    4987
    4985    4984    4986    4986    4984    4987    4987    4990    5016
    4987    4990    4992    4987    4990    4991    4988    4987    4990
    4988    4987    4989    4989    4987    4990    4990    5016    5022
    4990    5016    5018    4990    5016    5017    4991    4990    5016
    4991    4990    4992    4992    4997    5000    4992    4997    4999
    4992    4997    4998    4992    4993    4996    4992    4993    4995
    4992    4993    4994    4992    4990    5016    4992    4982    4984
    4993    4992    4990    4994    4993    4996    4994    4993    4995
    4995    4993    4996    4997    5000    5003    4997    5000    5002
    4997    5000    5001    4997    4992    4990    4997    4992    4993
    4998    4997    5000    4998    4997    4999    4999    4997    5000
    5001    5000    5003    5001    5000    5002    5002    5000    5003
    5003    4980    4982    5004    5003    5000    5004    5003    5005
    5005    5006    5009    5005    5006    5008    5005    5006    5007
    5005    5003    5000    5005    4974    4975    5006    5005    5003
    5007    5006    5009    5007    5006    5008    5008    5006    5009
    5010    5005    5003    5010    5005    5006    5011    5010    5005
    5011    5010    5012    5012    5010    5005    5013    5010    5005
    5013    5010    5012    5013    5010    5011    5013    4967    4971
    5014    5013    5010    5014    5013    5015    5015    5013    5010
    5016    5022    5025    5016    5022    5024    5016    5022    5023
    5016    5018    5021    5016    5018    5020    5016    5018    5019
    5017    5016    5022    5017    5016    5018    5018    5016    5022
    5019    5018    5021    5019    5018    5020    5020    5018    5021
    5022    5025    5028    5022    5025    5027    5022    5025    5026
    5023    5022    5025    5023    5022    5024    5024    5022    5025
    5025    5028    5031    5025    5028    5030    5025    5028    5029
    5026    5025    5028    5026    5025    5027    5027    5025    5028
    5028    5031    5037    5028    5031    5033    5028    5031    5032
    5029    5028    5031    5029    5028    5030    5030    5028    5031
    5031    5037    5040    5031    5037    5039    5031    5037    5038
    5031    5033    5036    5031    5033    5035    5031    5033    5034
    5032    5031    5037    5032    5031    5033    5033    5031    5037
    5034    5033    5036    5034    5033    5035    5035    5033    5036
    5038    5037    5040    5038    5037    5039    5039    5037    5040
    5041    5087    5084    5041    5087    5089    5041    5087    5088
    5041    5045    5048    5041    5045    5047    5041    5045    5046
    5041    5043    5044    5042    5041    5045    5042    5041    5087
    5043    5041    5045    5043    5041    5087    5043    5041    5042
    5045    5048    5049    5045    5048    5079    5046    5045    5048
    5046    5045    5047    5047    5045    5048    5048    5079    5077
    5048    5079    5080    5048    5079    5084    5048    5049    5051
    5048    5049    5050    5049    5051    5054    5049    5051    5053
    5049    5051    5052    5050    5049    5051    5051    5054    5056
    5051    5054    5077    5051    5054    5055    5052    5051    5054
    5052    5051    5053    5053    5051    5054    5054    5077    5074
    5054    5077    5079    5054    5077    5078    5054    5056    5058
    5054    5056    5066    5054    5056    5057    5055    5054    5056
    5055    5054    5077    5056    5066    5064    5056    5066    5067
    5056    5066    5071    5056    5058    5061    5056    5058    5060
    5056    5058    5059    5057    5056    5058    5057    5056    5066
    5058    5061    5064    5058    5061    5063    5058    5061    5062
    5059    5058    5061    5059    5058    5060    5060    5058    5061
    5061    5064    5090    5061    5064    5066    5061    5064    5065
    5062    5061    5064    5062    5061    5063    5063    5061    5064
    5064    5090    5096    5064    5090    5092    5064    5090    5091
    5065    5064    5090    5065    5064    5066    5066    5071    5074
    5066    5071    5073    5066    5071    5072    5066    5067    5070
    5066    5067    5069    5066    5067    5068    5066    5064    5090
    5066    5056    5058    5067    5066    5064    5068    5067    5070
    5068    5067    5069    5069    5067    5070    5071    5074    5077
    5071    5074    5076    5071    5074    5075    5071    5066    5064
    5071    5066    5067    5072    5071    5074    5072    5071    5073
    5073    5071    5074    5075    5074    5077    5075    5074    5076
    5076    5074    5077    5077    5054    5056    5078    5077    5074
    5078    5077    5079    5079    5080    5083    5079    5080    5082
    5079    5080    5081    5079    5077    5074    5079    5048    5049
    5080    5079    5077    5081    5080    5083    5081    5080    5082
    5082    5080    5083    5084    5079    5077    5084    5079    5080
    5085    5084    5079    5085    5084    5086    5086    5084    5079
    5087    5084    5079    5087    5084    5086    5087    5084    5085
    5087    5041    5045    5088    5087    5084    5088    5087    5089
    5089    5087    5084    5090    5096    5099    5090    5096    5098
    5090    5096    5097    5090    5092    5095    5090    5092    5094
    5090    5092    5093    5091    5090    5096    5091    5090    5092
    5092    5090    5096    5093    5092    5095    5093    5092    5094
    5094    5092    5095    5096    5099    5102    5096    5099    5101
    5096    5099    5100    5097    5096    5099    5097    5096    5098
    5098    5096    5099    5099    5102    5105    5099    5102    5104
    5099    5102    5103    5100    5099    5102    5100    5099    5101
    5101    5099    5102    5102    5105    5111    5102    5105    5107
    5102    5105    5106    5103    5102    5105    5103    5102    5104
    5104    5102    5105    5105    5111    5114    5105    5111    5113
    5105    5111    5112    5105    5107    5110    5105    5107    5109
    5105    5107    5108    5106    5105    5111    5106    5105    5107
    5107    5105    5111    5108    5107    5110    5108    5107    5109
    5109    5107    5110    5112    5111    5114    5112    5111    5113
    5113    5111    5114    5115    5161    5158    5115    5161    5163
    5115    5161    5162    5115    5119    5122    5115    5119    5121
    5115    5119    5120    5115    5117    5118    5116    5115    5119
    5116    5115    5161    5117    5115    5119    5117    5115    5161
    5117    5115    5116    5119    5122    5123    5119    5122    5153
    5120    5119    5122    5120    5119    5121    5121    5119    5122
    5122    5153    5151    5122    5153    5154    5122    5153    5158
    5122    5123    5125    5122    5123    5124    5123    5125    5128
    5123    5125    5127    5123    5125    5126    5124    5123    5125
    5125    5128    5130    5125    5128    5151    5125    5128    5129
    5126    5125    5128    5126    5125    5127    5127    5125    5128
    5128    5151    5148    5128    5151    5153    5128    5151    5152
    5128    5130    5132    5128    5130    5140    5128    5130    5131
    5129    5128    5130    5129    5128    5151    5130    5140    5138
    5130    5140    5141    5130    5140    5145    5130    5132    5135
    5130    5132    5134    5130    5132    5133    5131    5130    5132
    5131    5130    5140    5132    5135    5138    5132    5135    5137
    5132    5135    5136    5133    5132    5135    5133    5132    5134
    5134    5132    5135    5135    5138    5164    5135    5138    5140
    5135    5138    5139    5136    5135    5138    5136    5135    5137
    5137    5135    5138    5138    5164    5170    5138    5164    5166
    5138    5164    5165    5139    5138    5164    5139    5138    5140
    5140    5145    5148    5140    5145    5147    5140    5145    5146
    5140    5141    5144    5140    5141    5143    5140    5141    5142
    5140    5138    5164    5140    5130    5132    5141    5140    5138
    5142    5141    5144    5142    5141    5143    5143    5141    5144
    5145    5148    5151    5145    5148    5150    5145    5148    5149
    5145    5140    5138    5145    5140    5141    5146    5145    5148
    5146    5145    5147    5147    5145    5148    5149    5148    5151
    5149    5148    5150    5150    5148    5151    5151    5128    5130
    5152    5151    5148    5152    5151    5153    5153    5154    5157
    5153    5154    5156    5153    5154    5155    5153    5151    5148
    5153    5122    5123    5154    5153    5151    5155    5154    5157
    5155    5154    5156    5156    5154    5157    5158    5153    5151
    5158    5153    5154    5159    5158    5153    5159    5158    5160
    5160    5158    5153    5161    5158    5153    5161    5158    5160
    5161    5158    5159    5161    5115    5119    5162    5161    5158
    5162    5161    5163    5163    5161    5158    5164    5170    5173
    5164    5170    5172    5164    5170    5171    5164    5166    5169
    5164    5166    5168    5164    5166    5167    5165    5164    5170
    5165    5164    5166    5166    5164    5170    5167    5166    5169
    5167    5166    5168    5168    5166    5169    5170    5173    5176
    5170    5173    5175    5170    5173    5174    5171    5170    5173
    5171    5170    5172    5172    5170    5173    5173    5176    5179
    5173    5176    5178    5173    5176    5177    5174    5173    5176
    5174    5173    5175    5175    5173    5176    5176    5179    5185
    5176    5179    5181    5176    5179    5180    5177    5176    5179
    5177    5176    5178    5178    5176    5179    5179    5185    5188
    5179    5185    5187    5179    5185    5186    5179    5181    5184
    5179    5181    5183    5179    5181    5182    5180    5179    5185
    5180    5179    5181    5181    5179    5185    5182    5181    5184
    5182    5181    5183    5183    5181    5184    5186    5185    5188
    5186    5185    5187    5187    5185    5188    5189    5235    5232
    5189    5235    5237    5189    5235    5236    5189    5193    5196
    5189    5193    5195    5189    5193    5194    5189    5191    5192
    5190    5189    5193    5190    5189    5235    5191    5189    5193
    5191    5189    5235    5191    5189    5190    5193    5196    5197
    5193    5196    5227    5194    5193    5196    5194    5193    5195
    5195    5193    5196    5196    5227    5225    5196    5227    5228
    5196    5227    5232    5196    5197    5199    5196    5197    5198
    5197    5199    5202    5197    5199    5201    5197    5199    5200
    5198    5197    5199    5199    5202    5204    5199    5202    5225
    5199    5202    5203    5200    5199    5202    5200    5199    5201
    5201    5199    5202    5202    5225    5222    5202    5225    5227
    5202    5225    5226    5202    5204    5206    5202    5204    5214
    5202    5204    5205    5203    5202    5204    5203    5202    5225
    5204    5214    5212    5204    5214    5215    5204    5214    5219
    5204    5206    5209    5204    5206    5208    5204    5206    5207
    5205    5204    5206    5205    5204    5214    5206    5209    5212
    5206    5209    5211    5206    5209    5210    5207    5206    5209
    5207    5206    5208    5208    5206    5209    5209    5212    5238
    5209    5212    5214    5209    5212    5213    5210    5209    5212
    5210    5209    5211    5211    5209    5212    5212    5238    5244
    5212    5238    5240    5212    5238    5239    5213    5212    5238
    5213    5212    5214    5214    5219    5222    5214    5219    5221
    5214    5219    5220    5214    5215    5218    5214    5215    5217
    5214    5215    5216    5214    5212    5238    5214    5204    5206
    5215    5214    5212    5216    5215    5218    5216    5215    5217
    5217    5215    5218    5219    5222    5225    5219    5222    5224
    5219    5222    5223    5219    5214    5212    5219    5214    5215
    5220    5219    5222    5220    5219    5221    5221    5219    5222
    5223    5222    5225    5223    5222    5224    5224    5222    5225
    5225    5202    5204    5226    5225    5222    5226    5225    5227
    5227    5228    5231    5227    5228    5230    5227    5228    5229
    5227    5225    5222    5227    5196    5197    5228    5227    5225
    5229    5228    5231    5229    5228    5230    5230    5228    5231
    5232    5227    5225    5232    5227    5228    5233    5232    5227
    5233    5232    5234    5234    5232    5227    5235    5232    5227
    5235    5232    5234    5235    5232    5233    5235    5189    5193
    5236    5235    5232    5236    5235    5237    5237    5235    5232
    5238    5244    5247    5238    5244    5246    5238    5244    5245
    5238    5240    5243    5238    5240    5242    5238    5240    5241
    5239    5238    5244    5239    5238    5240    5240    5238    5244
    5241    5240    5243    5241    5240    5242    5242    5240    5243
    5244    5247    5250    5244    5247    5249    5244    5247    5248
    5245    5244    5247    5245    5244    5246    5246    5244    5247
    5247    5250    5253    5247    5250    5252    5247    5250    5251
    5248    5247    5250    5248    5247    5249    5249    5247    5250
    5250    5253    5259    5250    5253    5255    5250    5253    5254
    5251    5250    5253    5251    5250    5252    5252    5250    5253
    5253    5259    5262    5253    5259    5261    5253    5259    5260
    5253    5255    5258    5253    5255    5257    5253    5255    5256
    5254    5253    5259    5254    5253    5255    5255    5253    5259
    5256    5255    5258    5256    5255    5257    5257    5255    5258
    5260    5259    5262    5260    5259    5261    5261    5259    5262
    5263    5309    5306    5263    5309    5311    5263    5309    5310
    5263    5267    5270    5263    5267    5269    5263    5267    5268
    5263    5265    5266    5264    5263    5267    5264    5263    5309
    5265    5263    5267    5265    5263    5309    5265    5263    5264
    5267    5270    5271    5267    5270    5301    5268    5267    5270
    5268    5267    5269    5269    5267    5270    5270    5301    5299
    5270    5301    5302    5270    5301    5306    5270    5271    5273
    5270    5271    5272    5271    5273    5276    5271    5273    5275
    5271    5273    5274    5272    5271    5273    5273    5276    5278
    5273    5276    5299    5273    5276    5277    5274    5273    5276
    5274    5273    5275    5275    5273    5276    5276    5299    5296
    5276    5299    5301    5276    5299    5300    5276    5278    5280
    5276    5278    5288    5276    5278    5279    5277    5276    5278
    5277    5276    5299    5278    5288    5286    5278    5288    5289
    5278    5288    5293    5278    5280    5283    5278    5280    5282
    5278    5280    5281    5279    5278    5280    5279    5278    5288
    5280    5283    5286    5280    5283    5285    5280    5283    5284
    5281    5280    5283    5281    5280    5282    5282    5280    5283
    5283    5286    5312    5283    5286    5288    5283    5286    5287
    5284    5283    5286    5284    5283    5285    5285    5283    5286
    5286    5312    5318    5286    5312    5314    5286    5312    5313
    5287    5286    5312    5287    5286    5288    5288    5293    5296
    5288    5293    5295    5288    5293    5294    5288    5289    5292
    5288    5289    5291    5288    5289    5290    5288    5286    5312
    5288    5278    5280    5289    5288    5286    5290    5289    5292
    5290    5289    5291    5291    5289    5292    5293    5296    5299
    5293    5296    5298    5293    5296    5297    5293    5288    5286
    5293    5288    5289    5294    5293    5296    5294    5293    5295
    5295    5293    5296    5297    5296    5299    5297    5296    5298
    5298    5296    5299    5299    5276    5278    5300    5299    5296
    5300    5299    5301    5301    5302    5305    5301    5302    5304
    5301    5302    5303    5301    5299    5296    5301    5270    5271
    5302    5301    5299    5303    5302    5305    5303    5302    5304
    5304    5302    5305    5306    5301    5299    5306    5301    5302
    5307    5306    5301    5307    5306    5308    5308    5306    5301
    5309    5306    5301    5309    5306    5308    5309    5306    5307
    5309    5263    5267    5310    5309    5306    5310    5309    5311
    5311    5309    5306    5312    5318    5321    5312    5318    5320
    5312    5318    5319    5312    5314    5317    5312    5314    5316
    5312    5314    5315    5313    5312    5318    5313    5312    5314
    5314    5312    5318    5315    5314    5317    5315    5314    5316
    5316    5314    5317    5318    5321    5324    5318    5321    5323
    5318    5321    5322    5319    5318    5321    5319    5318    5320
    5320    5318    5321    5321    5324    5327    5321    5324    5326
    5321    5324    5325    5322    5321    5324    5322    5321    5323
    5323    5321    5324    5324    5327    5333    5324    5327    5329
    5324    5327    5328    5325    5324    5327    5325    5324    5326
    5326    5324    5327    5327    5333    5336    5327    5333    5335
    5327    5333    5334    5327    5329    5332    5327    5329    5331
    5327    5329    5330    5328    5327    5333    5328    5327    5329
    5329    5327    5333    5330    5329    5332    5330    5329    5331
    5331    5329    5332    5334    5333    5336    5334    5333    5335
    5335    5333    5336    5337    5383    5380    5337    5383    5385
    5337    5383    5384    5337    5341    5344    5337    5341    5343
    5337    5341    5342    5337    5339    5340    5338    5337    5341
    5338    5337    5383    5339    5337    5341    5339    5337    5383
    5339    5337    5338    5341    5344    5345    5341    5344    5375
    5342    5341    5344    5342    5341    5343    5343    5341    5344
    5344    5375    5373    5344    5375    5376    5344    5375    5380
    5344    5345    5347    5344    5345    5346    5345    5347    5350
    5345    5347    5349    5345    5347    5348    5346    5345    5347
    5347    5350    5352    5347    5350    5373    5347    5350    5351
    5348    5347    5350    5348    5347    5349    5349    5347    5350
    5350    5373    5370    5350    5373    5375    5350    5373    5374
    5350    5352    5354    5350    5352    5362    5350    5352    5353
    5351    5350    5352    5351    5350    5373    5352    5362    5360
    5352    5362    5363    5352    5362    5367    5352    5354    5357
    5352    5354    5356    5352    5354    5355    5353    5352    5354
    5353    5352    5362    5354    5357    5360    5354    5357    5359
    5354    5357    5358    5355    5354    5357    5355    5354    5356
    5356    5354    5357    5357    5360    5386    5357    5360    5362
    5357    5360    5361    5358    5357    5360    5358    5357    5359
    5359    5357    5360    5360    5386    5392    5360    5386    5388
    5360    5386    5387    5361    5360    5386    5361    5360    5362
    5362    5367    5370    5362    5367    5369    5362    5367    5368
    5362    5363    5366    5362    5363    5365    5362    5363    5364
    5362    5360    5386    5362    5352    5354    5363    5362    5360
    5364    5363    5366    5364    5363    5365    5365    5363    5366
    5367    5370    5373    5367    5370    5372    5367    5370    5371
    5367    5362    5360    5367    5362    5363    5368    5367    5370
    5368    5367    5369    5369    5367    5370    5371    5370    5373
    5371    5370    5372    5372    5370    5373    5373    5350    5352
    5374    5373    5370    5374    5373    5375    5375    5376    5379
    5375    5376    5378    5375    5376    5377    5375    5373    5370
    5375    5344    5345    5376    5375    5373    5377    5376    5379
    5377    5376    5378    5378    5376    5379    5380    5375    5373
    5380    5375    5376    5381    5380    5375    5381    5380    5382
    5382    5380    5375    5383    5380    5375    5383    5380    5382
    5383    5380    5381    5383    5337    5341    5384    5383    5380
    5384    5383    5385    5385    5383    5380    5386    5392    5395
    5386    5392    5394    5386    5392    5393    5386    5388    5391
    5386    5388    5390    5386    5388    5389    5387    5386    5392
    5387    5386    5388    5388    5386    5392    5389    5388    5391
    5389    5388    5390    5390    5388    5391    5392    5395    5398
    5392    5395    5397    5392    5395    5396    5393    5392    5395
    5393    5392    5394    5394    5392    5395    5395    5398    5401
    5395    5398    5400    5395    5398    5399    5396    5395    5398
    5396    5395    5397    5397    5395    5398    5398    5401    5407
    5398    5401    5403    5398    5401    5402    5399    5398    5401
    5399    5398    5400    5400    5398    5401    5401    5407    5410
    5401    5407    5409    5401    5407    5408    5401    5403    5406
    5401    5403    5405    5401    5403    5404    5402    5401    5407
    5402    5401    5403    5403    5401    5407    5404    5403    5406
    5404    5403    5405    5405    5403    5406    5408    5407    5410
    5408    5407    5409    5409    5407    5410    5411    5457    5454
    5411    5457    5459    5411    5457    5458    5411    5415    5418
    5411    5415    5417    5411    5415    5416    5411    5413    5414
    5412    5411    5415    5412    5411    5457    5413    5411    5415
    5413    5411    5457    5413    5411    5412    5415    5418    5419
    5415    5418    5449    5416    5415    5418    5416    5415    5417
    5417    5415    5418    5418    5449    5447    5418    5449    5450
    5418    5449    5454    5418    5419    5421    5418    5419    5420
    5419    5421    5424    5419    5421    5423    5419    5421    5422
    5420    5419    5421    5421    5424    5426    5421    5424    5447
    5421    5424    5425    5422    5421    5424    5422    5421    5423
    5423    5421    5424    5424    5447    5444    5424    5447    5449
    5424    5447    5448    5424    5426    5428    5424    5426    5436
    5424    5426    5427    5425    5424    5426    5425    5424    5447
    5426    5436    5434    5426    5436    5437    5426    5436    5441
    5426    5428    5431    5426    5428    5430    5426    5428    5429
    5427    5426    5428    5427    5426    5436    5428    5431    5434
    5428    5431    5433    5428    5431    5432    5429    5428    5431
    5429    5428    5430    5430    5428    5431    5431    5434    5460
    5431    5434    5436    5431    5434    5435    5432    5431    5434
    5432    5431    5433    5433    5431    5434    5434    5460    5466
    5434    5460    5462    5434    5460    5461    5435    5434    5460
    5435    5434    5436    5436    5441    5444    5436    5441    5443
    5436    5441    5442    5436    5437    5440    5436    5437    5439
    5436    5437    5438    5436    5434    5460    5436    5426    5428
    5437    5436    5434    5438    5437    5440    5438    5437    5439
    5439    5437    5440    5441    5444    5447    5441    5444    5446
    5441    5444    5445    5441    5436    5434    5441    5436    5437
    5442    5441    5444    5442    5441    5443    5443    5441    5444
    5445    5444    5447    5445    5444    5446    5446    5444    5447
    5447    5424    5426    5448    5447    5444    5448    5447    5449
    5449    5450    5453    5449    5450    5452    5449    5450    5451
    5449    5447    5444    5449    5418    5419    5450    5449    5447
    5451    5450    5453    5451    5450    5452    5452    5450    5453
    5454    5449    5447    5454    5449    5450    5455    5454    5449
    5455    5454    5456    5456    5454    5449    5457    5454    5449
    5457    5454    5456    5457    5454    5455    5457    5411    5415
    5458    5457    5454    5458    5457    5459    5459    5457    5454
    5460    5466    5469    5460    5466    5468    5460    5466    5467
    5460    5462    5465    5460    5462    5464    5460    5462    5463
    5461    5460    5466    5461    5460    5462    5462    5460    5466
    5463    5462    5465    5463    5462    5464    5464    5462    5465
    5466    5469    5472    5466    5469    5471    5466    5469    5470
    5467    5466    5469    5467    5466    5468    5468    5466    5469
    5469    5472    5475    5469    5472    5474    5469    5472    5473
    5470    5469    5472    5470    5469    5471    5471    5469    5472
    5472    5475    5481    5472    5475    5477    5472    5475    5476
    5473    5472    5475    5473    5472    5474    5474    5472    5475
    5475    5481    5484    5475    5481    5483    5475    5481    5482
    5475    5477    5480    5475    5477    5479    5475    5477    5478
    5476    5475    5481    5476    5475    5477    5477    5475    5481
    5478    5477    5480    5478    5477    5479    5479    5477    5480
    5482    5481    5484    5482    5481    5483    5483    5481    5484
    5485    5531    5528    5485    5531    5533    5485    5531    5532
    5485    5489    5492    5485    5489    5491    5485    5489    5490
    5485    5487    5488    5486    5485    5489    5486    5485    5531
    5487    5485    5489    5487    5485    5531    5487    5485    5486
    5489    5492    5493    5489    5492    5523    5490    5489    5492
    5490    5489    5491    5491    5489    5492    5492    5523    5521
    5492    5523    5524    5492    5523    5528    5492    5493    5495
    5492    5493    5494    5493    5495    5498    5493    5495    5497
    5493    5495    5496    5494    5493    5495    5495    5498    5500
    5495    5498    5521    5495    5498    5499    5496    5495    5498
    5496    5495    5497    5497    5495    5498    5498    5521    5518
    5498    5521    5523    5498    5521    5522    5498    5500    5502
    5498    5500    5510    5498    5500    5501    5499    5498    5500
    5499    5498    5521    5500    5510    5508    5500    5510    5511
    5500    5510    5515    5500    5502    5505    5500    5502    5504
    5500    5502    5503    5501    5500    5502    5501    5500    5510
    5502    5505    5508    5502    5505    5507    5502    5505    5506
    5503    5502    5505    5503    5502    5504    5504    5502    5505
    5505    5508    5534    5505    5508    5510    5505    5508    5509
    5506    5505    5508    5506    5505    5507    5507    5505    5508
    5508    5534    5540    5508    5534    5536    5508    5534    5535
    5509    5508    5534    5509    5508    5510    5510    5515    5518
    5510    5515    5517    5510    5515    5516    5510    5511    5514
    5510    5511    5513    5510    5511    5512    5510    5508    5534
    5510    5500    5502    5511    5510    5508    5512    5511    5514
    5512    5511    5513    5513    5511    5514    5515    5518    5521
    5515    5518    5520    5515    5518    5519    5515    5510    5508
    5515    5510    5511    5516    5515    5518    5516    5515    5517
    5517    5515    5518    5519    5518    5521    5519    5518    5520
    5520    5518    5521    5521    5498    5500    5522    5521    5518
    5522    5521    5523    5523    5524    5527    5523    5524    5526
    5523    5524    5525    5523    5521    5518    5523    5492    5493
    5524    5523    5521    5525    5524    5527    5525    5524    5526
    5526    5524    5527    5528    5523    5521    5528    5523    5524
    5529    5528    5523    5529    5528    5530    5530    5528    5523
    5531    5528    5523    5531    5528    5530    5531    5528    5529
    5531    5485    5489    5532    5531    5528    5532    5531    5533
    5533    5531    5528    5534    5540    5543    5534    5540    5542
    5534    5540    5541    5534    5536    5539    5534    5536    5538
    5534    5536    5537    5535    5534    5540    5535    5534    5536
    5536    5534    5540    5537    5536    5539    5537    5536    5538
    5538    5536    5539    5540    5543    5546    5540    5543    5545
    5540    5543    5544    5541    5540    5543    5541    5540    5542
    5542    5540    5543    5543    5546    5549    5543    5546    5548
    5543    5546    5547    5544    5543    5546    5544    5543    5545
    5545    5543    5546    5546    5549    5555    5546    5549    5551
    5546    5549    5550    5547    5546    5549    5547    5546    5548
    5548    5546    5549    5549    5555    5558    5549    5555    5557
    5549    5555    5556    5549    5551    5554    5549    5551    5553
    5549    5551    5552    5550    5549    5555    5550    5549    5551
    5551    5549    5555    5552    5551    5554    5552    5551    5553
    5553    5551    5554    5556    5555    5558    5556    5555    5557
    5557    5555    5558    5559    5605    5602    5559    5605    5607
    5559    5605    5606    5559    5563    5566    5559    5563    5565
    5559    5563    5564    5559    5561    5562    5560    5559    5563
    5560    5559    5605    5561    5559    5563    5561    5559    5605
    5561    5559    5560    5563    5566    5567    5563    5566    5597
    5564    5563    5566    5564    5563    5565    5565    5563    5566
    5566    5597    5595    5566    5597    5598    5566    5597    5602
    5566    5567    5569    5566    5567    5568    5567    5569    5572
    5567    5569    5571    5567    5569    5570    5568    5567    5569
    5569    5572    5574    5569    5572    5595    5569    5572    5573
    5570    5569    5572    5570    5569    5571    5571    5569    5572
    5572    5595    5592    5572    5595    5597    5572    5595    5596
    5572    5574    5576    5572    5574    5584    5572    5574    5575
    5573    5572    5574    5573    5572    5595    5574    5584    5582
    5574    5584    5585    5574    5584    5589    5574    5576    5579
    5574    5576    5578    5574    5576    5577    5575    5574    5576
    5575    5574    5584    5576    5579    5582    5576    5579    5581
    5576    5579    5580    5577    5576    5579    5577    5576    5578
    5578    5576    5579    5579    5582    5608    5579    5582    5584
    5579    5582    5583    5580    5579    5582    5580    5579    5581
    5581    5579    5582    5582    5608    5614    5582    5608    5610
    5582    5608    5609    5583    5582    5608    5583    5582    5584
    5584    5589    5592    5584    5589    5591    5584    5589    5590
    5584    5585    5588    5584    5585    5587    5584    5585    5586
    5584    5582    5608    5584    5574    5576    5585    5584    5582
    5586    5585    5588    5586    5585    5587    5587    5585    5588
    5589    5592    5595    5589    5592    5594    5589    5592    5593
    5589    5584    5582    5589    5584    5585    5590    5589    5592
    5590    5589    5591    5591    5589    5592    5593    5592    5595
    5593    5592    5594    5594    5592    5595    5595    5572    5574
    5596    5595    5592    5596    5595    5597    5597    5598    5601
    5597    5598    5600    5597    5598    5599    5597    5595    5592
    5597    5566    5567    5598    5597    5595    5599    5598    5601
    5599    5598    5600    5600    5598    5601    5602    5597    5595
    5602    5597    5598    5603    5602    5597    5603    5602    5604
    5604    5602    5597    5605    5602    5597    5605    5602    5604
    5605    5602    5603    5605    5559    5563    5606    5605    5602
    5606    5605    5607    5607    5605    5602    5608    5614    5617
    5608    5614    5616    5608    5614    5615    5608    5610    5613
    5608    5610    5612    5608    5610    5611    5609    5608    5614
    5609    5608    5610    5610    5608    5614    5611    5610    5613
    5611    5610    5612    5612    5610    5613    5614    5617    5620
    5614    5617    5619    5614    5617    5618    5615    5614    5617
    5615    5614    5616    5616    5614    5617    5617    5620    5623
    5617    5620    5622    5617    5620    5621    5618    5617    5620
    5618    5617    5619    5619    5617    5620    5620    5623    5629
    5620    5623    5625    5620    5623    5624    5621    5620    5623
    5621    5620    5622    5622    5620    5623    5623    5629    5632
    5623    5629    5631    5623    5629    5630    5623    5625    5628
    5623    5625    5627    5623    5625    5626    5624    5623    5629
    5624    5623    5625    5625    5623    5629    5626    5625    5628
    5626    5625    5627    5627    5625    5628    5630    5629    5632
    5630    5629    5631    5631    5629    5632    5633    5679    5676
    5633    5679    5681    5633    5679    5680    5633    5637    5640
    5633    5637    5639    5633    5637    5638    5633    5635    5636
    5634    5633    5637    5634    5633    5679    5635    5633    5637
    5635    5633    5679    5635    5633    5634    5637    5640    5641
    5637    5640    5671    5638    5637    5640    5638    5637    5639
    5639    5637    5640    5640    5671    5669    5640    5671    5672
    5640    5671    5676    5640    5641    5643    5640    5641    5642
    5641    5643    5646    5641    5643    5645    5641    5643    5644
    5642    5641    5643    5643    5646    5648    5643    5646    5669
    5643    5646    5647    5644    5643    5646    5644    5643    5645
    5645    5643    5646    5646    5669    5666    5646    5669    5671
    5646    5669    5670    5646    5648    5650    5646    5648    5658
    5646    5648    5649    5647    5646    5648    5647    5646    5669
    5648    5658    5656    5648    5658    5659    5648    5658    5663
    5648    5650    5653    5648    5650    5652    5648    5650    5651
    5649    5648    5650    5649    5648    5658    5650    5653    5656
    5650    5653    5655    5650    5653    5654    5651    5650    5653
    5651    5650    5652    5652    5650    5653    5653    5656    5682
    5653    5656    5658    5653    5656    5657    5654    5653    5656
    5654    5653    5655    5655    5653    5656    5656    5682    5688
    5656    5682    5684    5656    5682    5683    5657    5656    5682
    5657    5656    5658    5658    5663    5666    5658    5663    5665
    5658    5663    5664    5658    5659    5662    5658    5659    5661
    5658    5659    5660    5658    5656    5682    5658    5648    5650
    5659    5658    5656    5660    5659    5662    5660    5659    5661
    5661    5659    5662    5663    5666    5669    5663    5666    5668
    5663    5666    5667    5663    5658    5656    5663    5658    5659
    5664    5663    5666    5664    5663    5665    5665    5663    5666
    5667    5666    5669    5667    5666    5668    5668    5666    5669
    5669    5646    5648    5670    5669    5666    5670    5669    5671
    5671    5672    5675    5671    5672    5674    5671    5672    5673
    5671    5669    5666    5671    5640    5641    5672    5671    5669
    5673    5672    5675    5673    5672    5674    5674    5672    5675
    5676    5671    5669    5676    5671    5672    5677    5676    5671
    5677    5676    5678    5678    5676    5671    5679    5676    5671
    5679    5676    5678    5679    5676    5677    5679    5633    5637
    5680    5679    5676    5680    5679    5681    5681    5679    5676
    5682    5688    5691    5682    5688    5690    5682    5688    5689
    5682    5684    5687    5682    5684    5686    5682    5684    5685
    5683    5682    5688    5683    5682    5684    5684    5682    5688
    5685    5684    5687    5685    5684    5686    5686    5684    5687
    5688    5691    5694    5688    5691    5693    5688    5691    5692
    5689    5688    5691    5689    5688    5690    5690    5688    5691
    5691    5694    5697    5691    5694    5696    5691    5694    5695
    5692    5691    5694    5692    5691    5693    5693    5691    5694
    5694    5697    5703    5694    5697    5699    5694    5697    5698
    5695    5694    5697    5695    5694    5696    5696    5694    5697
    5697    5703    5706    5697    5703    5705    5697    5703    5704
    5697    5699    5702    5697    5699    5701    5697    5699    5700
    5698    5697    5703    5698    5697    5699    5699    5697    5703
    5700    5699    5702    5700    5699    5701    5701    5699    5702
    5704    5703    5706    5704    5703    5705    5705    5703    5706
    5707    5753    5750    5707    5753    5755    5707    5753    5754
    5707    5711    5714    5707    5711    5713    5707    5711    5712
    5707    5709    5710    5708    5707    5711    5708    5707    5753
    5709    5707    5711    5709    5707    5753    5709    5707    5708
    5711    5714    5715    5711    5714    5745    5712    5711    5714
    5712    5711    5713    5713    5711    5714    5714    5745    5743
    5714    5745    5746    5714    5745    5750    5714    5715    5717
    5714    5715    5716    5715    5717    5720    5715    5717    5719
    5715    5717    5718    5716    5715    5717    5717    5720    5722
    5717    5720    5743    5717    5720    5721    5718    5717    5720
    5718    5717    5719    5719    5717    5720    5720    5743    5740
    5720    5743    5745    5720    5743    5744    5720    5722    5724
    5720    5722    5732    5720    5722    5723    5721    5720    5722
    5721    5720    5743    5722    5732    5730    5722    5732    5733
    5722    5732    5737    5722    5724    5727    5722    5724    5726
    5722    5724    5725    5723    5722    5724    5723    5722    5732
    5724    5727    5730    5724    5727    5729    5724    5727    5728
    5725    5724    5727    5725    5724    5726    5726    5724    5727
    5727    5730    5756    5727    5730    5732    5727    5730    5731
    5728    5727    5730    5728    5727    5729    5729    5727    5730
    5730    5756    5762    5730    5756    5758    5730    5756    5757
    5731    5730    5756    5731    5730    5732    5732    5737    5740
    5732    5737    5739    5732    5737    5738    5732    5733    5736
    5732    5733    5735    5732    5733    5734    5732    5730    5756
    5732    5722    5724    5733    5732    5730    5734    5733    5736
    5734    5733    5735    5735    5733    5736    5737    5740    5743
    5737    5740    5742    5737    5740    5741    5737    5732    5730
    5737    5732    5733    5738    5737    5740    5738    5737    5739
    5739    5737    5740    5741    5740    5743    5741    5740    5742
    5742    5740    5743    5743    5720    5722    5744    5743    5740
    5744    5743    5745    5745    5746    5749    5745    5746    5748
    5745    5746    5747    5745    5743    5740    5745    5714    5715
    5746    5745    5743    5747    5746    5749    5747    5746    5748
    5748    5746    5749    5750    5745    5743    5750    5745    5746
    5751    5750    5745    5751    5750    5752    5752    5750    5745
    5753    5750    5745    5753    5750    5752    5753    5750    5751
    5753    5707    5711    5754    5753    5750    5754    5753    5755
    5755    5753    5750    5756    5762    5765    5756    5762    5764
    5756    5762    5763    5756    5758    5761    5756    5758    5760
    5756    5758    5759    5757    5756    5762    5757    5756    5758
    5758    5756    5762    5759    5758    5761    5759    5758    5760
    5760    5758    5761    5762    5765    5768    5762    5765    5767
    5762    5765    5766    5763    5762    5765    5763    5762    5764
    5764    5762    5765    5765    5768    5771    5765    5768    5770
    5765    5768    5769    5766    5765    5768    5766    5765    5767
    5767    5765    5768    5768    5771    5777    5768    5771    5773
    5768    5771    5772    5769    5768    5771    5769    5768    5770
    5770    5768    5771    5771    5777    5780    5771    5777    5779
    5771    5777    5778    5771    5773    5776    5771    5773    5775
    5771    5773    5774    5772    5771    5777    5772    5771    5773
    5773    5771    5777    5774    5773    5776    5774    5773    5775
    5775    5773    5776    5778    5777    5780    5778    5777    5779
    5779    5777    5780    5781    5827    5824    5781    5827    5829
    5781    5827    5828    5781    5785    5788    5781    5785    5787
    5781    5785    5786    5781    5783    5784    5782    5781    5785
    5782    5781    5827    5783    5781    5785    5783    5781    5827
    5783    5781    5782    5785    5788    5789    5785    5788    5819
    5786    5785    5788    5786    5785    5787    5787    5785    5788
    5788    5819    5817    5788    5819    5820    5788    5819    5824
    5788    5789    5791    5788    5789    5790    5789    5791    5794
    5789    5791    5793    5789    5791    5792    5790    5789    5791
    5791    5794    5796    5791    5794    5817    5791    5794    5795
    5792    5791    5794    5792    5791    5793    5793    5791    5794
    5794    5817    5814    5794    5817    5819    5794    5817    5818
    5794    5796    5798    5794    5796    5806    5794    5796    5797
    5795    5794    5796    5795    5794    5817    5796    5806    5804
    5796    5806    5807    5796    5806    5811    5796    5798    5801
    5796    5798    5800    5796    5798    5799    5797    5796    5798
    5797    5796    5806    5798    5801    5804    5798    5801    5803
    5798    5801    5802    5799    5798    5801    5799    5798    5800
    5800    5798    5801    5801    5804    5830    5801    5804    5806
    5801    5804    5805    5802    5801    5804    5802    5801    5803
    5803    5801    5804    5804    5830    5836    5804    5830    5832
    5804    5830    5831    5805    5804    5830    5805    5804    5806
    5806    5811    5814    5806    5811    5813    5806    5811    5812
    5806    5807    5810    5806    5807    5809    5806    5807    5808
    5806    5804    5830    5806    5796    5798    5807    5806    5804
    5808    5807    5810    5808    5807    5809    5809    5807    5810
    5811    5814    5817    5811    5814    5816    5811    5814    5815
    5811    5806    5804    5811    5806    5807    5812    5811    5814
    5812    5811    5813    5813    5811    5814    5815    5814    5817
    5815    5814    5816    5816    5814    5817    5817    5794    5796
    5818    5817    5814    5818    5817    5819    5819    5820    5823
    5819    5820    5822    5819    5820    5821    5819    5817    5814
    5819    5788    5789    5820    5819    5817    5821    5820    5823
    5821    5820    5822    5822    5820    5823    5824    5819    5817
    5824    5819    5820    5825    5824    5819    5825    5824    5826
    5826    5824    5819    5827    5824    5819    5827    5824    5826
    5827    5824    5825    5827    5781    5785    5828    5827    5824
    5828    5827    5829    5829    5827    5824    5830    5836    5839
    5830    5836    5838    5830    5836    5837    5830    5832    5835
    5830    5832    5834    5830    5832    5833    5831    5830    5836
    5831    5830    5832    5832    5830    5836    5833    5832    5835
    5833    5832    5834    5834    5832    5835    5836    5839    5842
    5836    5839    5841    5836    5839    5840    5837    5836    5839
    5837    5836    5838    5838    5836    5839    5839    5842    5845
    5839    5842    5844    5839    5842    5843    5840    5839    5842
    5840    5839    5841    5841    5839    5842    5842    5845    5851
    5842    5845    5847    5842    5845    5846    5843    5842    5845
    5843    5842    5844    5844    5842    5845    5845    5851    5854
    5845    5851    5853    5845    5851    5852    5845    5847    5850
    5845    5847    5849    5845    5847    5848    5846    5845    5851
    5846    5845    5847    5847    5845    5851    5848    5847    5850
    5848    5847    5849    5849    5847    5850    5852    5851    5854
    5852    5851    5853    5853    5851    5854    5855    5859    5864
    5855    5859    5860    5855    5859    5861    5856    5855    5859
    5856    5855    5858    5856    5855    5857    5857    5855    5859
    5857    5855    5858    5858    5855    5859    5859    5864    5870
    5859    5864    5866    5859    5864    5865    5859    5861    5862
    5860    5859    5864    5861    5859    5864    5861    5859    5860
    5863    5861    5862    5863    5861    5859    5864    5870    5867
    5865    5864    5870    5865    5864    5866    5866    5864    5870
    5868    5867    5869    5870    5867    5869    5870    5867    5868
    5870    5867    5871    5871    5872    5875    5871    5872    5874
    5871    5872    5873    5871    5867    5869    5871    5867    5868
    5872    5875    5877    5872    5875    5883    5872    5875    5876
    5872    5871    5867    5873    5872    5875    5873    5872    5874
    5874    5872    5875    5875    5883    5886    5875    5883    5885
    5875    5883    5884    5875    5877    5878    5876    5875    5877
    5876    5875    5883    5877    5878    5879    5877    5878    5880
    5878    5880    5892    5878    5880    5882    5878    5880    5881
    5880    5892    5895    5880    5892    5894    5880    5892    5893
    5880    5878    5879    5881    5880    5892    5881    5880    5882
    5882    5880    5892    5883    5886    5887    5883    5875    5877
    5884    5883    5886    5884    5883    5885    5885    5883    5886
    5886    5887    5888    5886    5887    5889    5887    5889    5905
    5887    5889    5891    5887    5889    5890    5889    5905    5908
    5889    5905    5907    5889    5905    5906    5889    5887    5888
    5890    5889    5905    5890    5889    5891    5891    5889    5905
    5892    5895    5898    5892    5895    5897    5892    5895    5896
    5893    5892    5895    5893    5892    5894    5894    5892    5895
    5895    5898    5901    5895    5898    5900    5895    5898    5899
    5896    5895    5898    5896    5895    5897    5897    5895    5898
    5898    5901    5903    5898    5901    5902    5899    5898    5901
    5899    5898    5900    5900    5898    5901    5902    5901    5903
    5904    5901    5903    5904    5901    5902    5904    5901    5898
    5905    5908    5911    5905    5908    5910    5905    5908    5909
    5906    5905    5908    5906    5905    5907    5907    5905    5908
    5908    5911    5914    5908    5911    5913    5908    5911    5912
    5909    5908    5911    5909    5908    5910    5910    5908    5911
    5911    5914    5916    5911    5914    5915    5912    5911    5914
    5912    5911    5913    5913    5911    5914    5915    5914    5916
    5917    5914    5916    5917    5914    5915    5917    5914    5911
    5918    5927    5930    5918    5927    5929    5918    5927    5928
    5918    5923    5926    5918    5923    5925    5918    5923    5924
    5918    5919    5922    5918    5919    5921    5918    5919    5920
    5920    5919    5922    5920    5919    5921    5921    5919    5922
    5923    5918    5919    5924    5923    5926    5924    5923    5925
    5925    5923    5926    5927    5918    5919    5927    5918    5923
    5928    5927    5930    5928    5927    5929    5929    5927    5930
    5931    5918    5919    5931    5918    5923    5931    5918    5927
    5932    5931    5918    5932    5931    5933    5933    5931    5918
    5934    5931    5918    5934    5931    5933    5934    5931    5932
    5935    5934    5931    5935    5934    5936    5936    5934    5931
    5937    5941    5934    5938    5937    5939    5940    5937    5939
    5940    5937    5938    5940    5937    5941    5941    5937    5939
    5941    5937    5938    5941    5934    5931    5941    5934    5936
    5941    5934    5935    5942    5947    5945    5942    5940    5937
    5943    5942    5940    5943    5942    5944    5944    5942    5940
    5945    5961    5962    5945    5961    5963    5946    5945    5961
    5947    5945    5961    5947    5945    5946    5947    5942    5940
    5947    5942    5944    5947    5942    5943    5948    5947    5945
    5948    5947    5942    5949    5953    5955    5949    5951    5952
    5949    5947    5945    5949    5947    5942    5949    5947    5948
    5950    5949    5947    5950    5949    5951    5951    5949    5947
    5953    5949    5947    5953    5949    5951    5953    5949    5950
    5954    5953    5955    5954    5953    5949    5956    5955    5953
    5957    5955    5953    5957    5955    5956    5958    5957    5955
    5958    5957    5959    5959    5957    5955    5960    5957    5955
    5960    5957    5959    5960    5957    5958    5961    5963    5966
    5961    5963    5965    5961    5963    5964    5963    5966    5969
    5963    5966    5968    5963    5966    5967    5963    5961    5962
    5964    5963    5966    5964    5963    5965    5965    5963    5966
    5966    5969    5972    5966    5969    5971    5966    5969    5970
    5967    5966    5969    5967    5966    5968    5968    5966    5969
    5969    5972    5975    5969    5972    5974    5969    5972    5973
    5970    5969    5972    5970    5969    5971    5971    5969    5972
    5972    5975    5977    5972    5975    5976    5973    5972    5975
    5973    5972    5974    5974    5972    5975    5976    5975    5977
    5978    5975    5977    5978    5975    5976    5978    5975    5972
    5979    5983    5988    5979    5983    5984    5979    5983    5985
    5980    5979    5983    5980    5979    5982    5980    5979    5981
    5981    5979    5983    5981    5979    5982    5982    5979    5983
    5983    5988    5994    5983    5988    5990    5983    5988    5989
    5983    5985    5986    5984    5983    5988    5985    5983    5988
    5985    5983    5984    5987    5985    5986    5987    5985    5983
    5988    5994    5991    5989    5988    5994    5989    5988    5990
    5990    5988    5994    5992    5991    5993    5994    5991    5993
    5994    5991    5992    5994    5991    5995    5995    5996    5999
    5995    5996    5998    5995    5996    5997    5995    5991    5993
    5995    5991    5992    5996    5999    6001    5996    5999    6007
    5996    5999    6000    5996    5995    5991    5997    5996    5999
    5997    5996    5998    5998    5996    5999    5999    6007    6010
    5999    6007    6009    5999    6007    6008    5999    6001    6002
    6000    5999    6001    6000    5999    6007    6001    6002    6003
    6001    6002    6004    6002    6004    6016    6002    6004    6006
    6002    6004    6005    6004    6016    6019    6004    6016    6018
    6004    6016    6017    6004    6002    6003    6005    6004    6016
    6005    6004    6006    6006    6004    6016    6007    6010    6011
    6007    5999    6001    6008    6007    6010    6008    6007    6009
    6009    6007    6010    6010    6011    6012    6010    6011    6013
    6011    6013    6029    6011    6013    6015    6011    6013    6014
    6013    6029    6032    6013    6029    6031    6013    6029    6030
    6013    6011    6012    6014    6013    6029    6014    6013    6015
    6015    6013    6029    6016    6019    6022    6016    6019    6021
    6016    6019    6020    6017    6016    6019    6017    6016    6018
    6018    6016    6019    6019    6022    6025    6019    6022    6024
    6019    6022    6023    6020    6019    6022    6020    6019    6021
    6021    6019    6022    6022    6025    6027    6022    6025    6026
    6023    6022    6025    6023    6022    6024    6024    6022    6025
    6026    6025    6027    6028    6025    6027    6028    6025    6026
    6028    6025    6022    6029    6032    6035    6029    6032    6034
    6029    6032    6033    6030    6029    6032    6030    6029    6031
    6031    6029    6032    6032    6035    6038    6032    6035    6037
    6032    6035    6036    6033    6032    6035    6033    6032    6034
    6034    6032    6035    6035    6038    6040    6035    6038    6039
    6036    6035    6038    6036    6035    6037    6037    6035    6038
    6039    6038    6040    6041    6038    6040    6041    6038    6039
    6041    6038    6035    6042    6046    6051    6042    6046    6047
    6042    6046    6048    6043    6042    6046    6043    6042    6045
    6043    6042    6044    6044    6042    6046    6044    6042    6045
    6045    6042    6046    6046    6051    6057    6046    6051    6053
    6046    6051    6052    6046    6048    6049    6047    6046    6051
    6048    6046    6051    6048    6046    6047    6050    6048    6049
    6050    6048    6046    6051    6057    6054    6052    6051    6057
    6052    6051    6053    6053    6051    6057    6055    6054    6056
    6057    6054    6056    6057    6054    6055    6057    6054    6058
    6058    6059    6062    6058    6059    6061    6058    6059    6060
    6058    6054    6056    6058    6054    6055    6059    6062    6064
    6059    6062    6070    6059    6062    6063    6059    6058    6054
    6060    6059    6062    6060    6059    6061    6061    6059    6062
    6062    6070    6073    6062    6070    6072    6062    6070    6071
    6062    6064    6065    6063    6062    6064    6063    6062    6070
    6064    6065    6066    6064    6065    6067    6065    6067    6079
    6065    6067    6069    6065    6067    6068    6067    6079    6082
    6067    6079    6081    6067    6079    6080    6067    6065    6066
    6068    6067    6079    6068    6067    6069    6069    6067    6079
    6070    6073    6074    6070    6062    6064    6071    6070    6073
    6071    6070    6072    6072    6070    6073    6073    6074    6075
    6073    6074    6076    6074    6076    6092    6074    6076    6078
    6074    6076    6077    6076    6092    6095    6076    6092    6094
    6076    6092    6093    6076    6074    6075    6077    6076    6092
    6077    6076    6078    6078    6076    6092    6079    6082    6085
    6079    6082    6084    6079    6082    6083    6080    6079    6082
    6080    6079    6081    6081    6079    6082    6082    6085    6088
    6082    6085    6087    6082    6085    6086    6083    6082    6085
    6083    6082    6084    6084    6082    6085    6085    6088    6090
    6085    6088    6089    6086    6085    6088    6086    6085    6087
    6087    6085    6088    6089    6088    6090    6091    6088    6090
    6091    6088    6089    6091    6088    6085    6092    6095    6098
    6092    6095    6097    6092    6095    6096    6093    6092    6095
    6093    6092    6094    6094    6092    6095    6095    6098    6101
    6095    6098    6100    6095    6098    6099    6096    6095    6098
    6096    6095    6097    6097    6095    6098    6098    6101    6103
    6098    6101    6102    6099    6098    6101    6099    6098    6100
    6100    6098    6101    6102    6101    6103    6104    6101    6103
    6104    6101    6102    6104    6101    6098    6105    6117    6120
    6105    6117    6119    6105    6117    6118    6105    6113    6116
    6105    6113    6115    6105    6113    6114    6105    6109    6112
    6105    6109    6111    6105    6109    6110    6105    6106    6121
    6105    6106    6108    6105    6106    6107    6106    6121    6127
    6106    6121    6123    6106    6121    6122    6107    6106    6121
    6107    6106    6108    6108    6106    6121    6109    6105    6106
    6109    6105    6117    6109    6105    6113    6110    6109    6112
    6110    6109    6111    6111    6109    6112    6113    6105    6106
    6113    6105    6117    6114    6113    6116    6114    6113    6115
    6115    6113    6116    6117    6105    6106    6118    6117    6120
    6118    6117    6119    6119    6117    6120    6121    6127    6124
    6122    6121    6127    6122    6121    6123    6123    6121    6127
    6125    6124    6126    6127    6124    6126    6127    6124    6125
    6127    6124    6128    6128    6129    6132    6128    6129    6131
    6128    6129    6130    6128    6124    6126    6128    6124    6125
    6129    6132    6134    6129    6132    6140    6129    6132    6133
    6129    6128    6124    6130    6129    6132    6130    6129    6131
    6131    6129    6132    6132    6140    6143    6132    6140    6142
    6132    6140    6141    6132    6134    6135    6133    6132    6134
    6133    6132    6140    6134    6135    6136    6134    6135    6137
    6135    6137    6149    6135    6137    6139    6135    6137    6138
    6137    6149    6152    6137    6149    6151    6137    6149    6150
    6137    6135    6136    6138    6137    6149    6138    6137    6139
    6139    6137    6149    6140    6143    6144    6140    6132    6134
    6141    6140    6143    6141    6140    6142    6142    6140    6143
    6143    6144    6145    6143    6144    6146    6144    6146    6162
    6144    6146    6148    6144    6146    6147    6146    6162    6165
    6146    6162    6164    6146    6162    6163    6146    6144    6145
    6147    6146    6162    6147    6146    6148    6148    6146    6162
    6149    6152    6155    6149    6152    6154    6149    6152    6153
    6150    6149    6152    6150    6149    6151    6151    6149    6152
    6152    6155    6158    6152    6155    6157    6152    6155    6156
    6153    6152    6155    6153    6152    6154    6154    6152    6155
    6155    6158    6160    6155    6158    6159    6156    6155    6158
    6156    6155    6157    6157    6155    6158    6159    6158    6160
    6161    6158    6160    6161    6158    6159    6161    6158    6155
    6162    6165    6168    6162    6165    6167    6162    6165    6166
    6163    6162    6165    6163    6162    6164    6164    6162    6165
    6165    6168    6171    6165    6168    6170    6165    6168    6169
    6166    6165    6168    6166    6165    6167    6167    6165    6168
    6168    6171    6173    6168    6171    6172    6169    6168    6171
    6169    6168    6170    6170    6168    6171    6172    6171    6173
    6174    6171    6173    6174    6171    6172    6174    6171    6168
    6175    6184    6187    6175    6184    6186    6175    6184    6185
    6175    6180    6183    6175    6180    6182    6175    6180    6181
    6175    6176    6179    6175    6176    6178    6175    6176    6177
    6177    6176    6179    6177    6176    6178    6178    6176    6179
    6180    6175    6176    6181    6180    6183    6181    6180    6182
    6182    6180    6183    6184    6175    6176    6184    6175    6180
    6185    6184    6187    6185    6184    6186    6186    6184    6187
    6188    6175    6176    6188    6175    6180    6188    6175    6184
    6189    6188    6175    6189    6188    6190    6190    6188    6175
    6191    6188    6175    6191    6188    6190    6191    6188    6189
    6192    6191    6188    6192    6191    6193    6193    6191    6188
    6194    6198    6191    6195    6194    6196    6197    6194    6196
    6197    6194    6195    6197    6194    6198    6198    6194    6196
    6198    6194    6195    6198    6191    6188    6198    6191    6193
    6198    6191    6192    6199    6204    6202    6199    6197    6194
    6200    6199    6197    6200    6199    6201    6201    6199    6197
    6202    6218    6219    6202    6218    6220    6203    6202    6218
    6204    6202    6218    6204    6202    6203    6204    6199    6197
    6204    6199    6201    6204    6199    6200    6205    6204    6202
    6205    6204    6199    6206    6210    6212    6206    6208    6209
    6206    6204    6202    6206    6204    6199    6206    6204    6205
    6207    6206    6204    6207    6206    6208    6208    6206    6204
    6210    6206    6204    6210    6206    6208    6210    6206    6207
    6211    6210    6212    6211    6210    6206    6213    6212    6210
    6214    6212    6210    6214    6212    6213    6215    6214    6212
    6215    6214    6216    6216    6214    6212    6217    6214    6212
    6217    6214    6216    6217    6214    6215    6218    6220    6223
    6218    6220    6222    6218    6220    6221    6220    6223    6226
    6220    6223    6225    6220    6223    6224    6220    6218    6219
    6221    6220    6223    6221    6220    6222    6222    6220    6223
    6223    6226    6229    6223    6226    6228    6223    6226    6227
    6224    6223    6226    6224    6223    6225    6225    6223    6226
    6226    6229    6232    6226    6229    6231    6226    6229    6230
    6227    6226    6229    6227    6226    6228    6228    6226    6229
    6229    6232    6234    6229    6232    6233    6230    6229    6232
    6230    6229    6231    6231    6229    6232    6233    6232    6234
    6235    6232    6234    6235    6232    6233    6235    6232    6229
    6236    6248    6251    6236    6248    6250    6236    6248    6249
    6236    6244    6247    6236    6244    6246    6236    6244    6245
    6236    6240    6243    6236    6240    6242    6236    6240    6241
    6236    6237    6252    6236    6237    6239    6236    6237    6238
    6237    6252    6258    6237    6252    6254    6237    6252    6253
    6238    6237    6252    6238    6237    6239    6239    6237    6252
    6240    6236    6237    6240    6236    6248    6240    6236    6244
    6241    6240    6243    6241    6240    6242    6242    6240    6243
    6244    6236    6237    6244    6236    6248    6245    6244    6247
    6245    6244    6246    6246    6244    6247    6248    6236    6237
    6249    6248    6251    6249    6248    6250    6250    6248    6251
    6252    6258    6255    6253    6252    6258    6253    6252    6254
    6254    6252    6258    6256    6255    6257    6258    6255    6257
    6258    6255    6256    6258    6255    6259    6259    6260    6263
    6259    6260    6262    6259    6260    6261    6259    6255    6257
    6259    6255    6256    6260    6263    6265    6260    6263    6271
    6260    6263    6264    6260    6259    6255    6261    6260    6263
    6261    6260    6262    6262    6260    6263    6263    6271    6274
    6263    6271    6273    6263    6271    6272    6263    6265    6266
    6264    6263    6265    6264    6263    6271    6265    6266    6267
    6265    6266    6268    6266    6268    6280    6266    6268    6270
    6266    6268    6269    6268    6280    6283    6268    6280    6282
    6268    6280    6281    6268    6266    6267    6269    6268    6280
    6269    6268    6270    6270    6268    6280    6271    6274    6275
    6271    6263    6265    6272    6271    6274    6272    6271    6273
    6273    6271    6274    6274    6275    6276    6274    6275    6277
    6275    6277    6293    6275    6277    6279    6275    6277    6278
    6277    6293    6296    6277    6293    6295    6277    6293    6294
    6277    6275    6276    6278    6277    6293    6278    6277    6279
    6279    6277    6293    6280    6283    6286    6280    6283    6285
    6280    6283    6284    6281    6280    6283    6281    6280    6282
    6282    6280    6283    6283    6286    6289    6283    6286    6288
    6283    6286    6287    6284    6283    6286    6284    6283    6285
    6285    6283    6286    6286    6289    6291    6286    6289    6290
    6287    6286    6289    6287    6286    6288    6288    6286    6289
    6290    6289    6291    6292    6289    6291    6292    6289    6290
    6292    6289    6286    6293    6296    6299    6293    6296    6298
    6293    6296    6297    6294    6293    6296    6294    6293    6295
    6295    6293    6296    6296    6299    6302    6296    6299    6301
    6296    6299    6300    6297    6296    6299    6297    6296    6298
    6298    6296    6299    6299    6302    6304    6299    6302    6303
    6300    6299    6302    6300    6299    6301    6301    6299    6302
    6303    6302    6304    6305    6302    6304    6305    6302    6303
    6305    6302    6299    6306    6315    6318    6306    6315    6317
    6306    6315    6316    6306    6311    6314    6306    6311    6313
    6306    6311    6312    6306    6307    6310    6306    6307    6309
    6306    6307    6308    6308    6307    6310    6308    6307    6309
    6309    6307    6310    6311    6306    6307    6312    6311    6314
    6312    6311    6313    6313    6311    6314    6315    6306    6307
    6315    6306    6311    6316    6315    6318    6316    6315    6317
    6317    6315    6318    6319    6306    6307    6319    6306    6311
    6319    6306    6315    6320    6319    6306    6320    6319    6321
    6321    6319    6306    6322    6319    6306    6322    6319    6321
    6322    6319    6320    6323    6322    6319    6323    6322    6324
    6324    6322    6319    6325    6329    6322    6326    6325    6327
    6328    6325    6327    6328    6325    6326    6328    6325    6329
    6329    6325    6327    6329    6325    6326    6329    6322    6319
    6329    6322    6324    6329    6322    6323    6330    6335    6333
    6330    6328    6325    6331    6330    6328    6331    6330    6332
    6332    6330    6328    6333    6349    6350    6333    6349    6351
    6334    6333    6349    6335    6333    6349    6335    6333    6334
    6335    6330    6328    6335    6330    6332    6335    6330    6331
    6336    6335    6333    6336    6335    6330    6337    6341    6343
    6337    6339    6340    6337    6335    6333    6337    6335    6330
    6337    6335    6336    6338    6337    6335    6338    6337    6339
    6339    6337    6335    6341    6337    6335    6341    6337    6339
    6341    6337    6338    6342    6341    6343    6342    6341    6337
    6344    6343    6341    6345    6343    6341    6345    6343    6344
    6346    6345    6343    6346    6345    6347    6347    6345    6343
    6348    6345    6343    6348    6345    6347    6348    6345    6346
    6349    6351    6354    6349    6351    6353    6349    6351    6352
    6351    6354    6357    6351    6354    6356    6351    6354    6355
    6351    6349    6350    6352    6351    6354    6352    6351    6353
    6353    6351    6354    6354    6357    6360    6354    6357    6359
    6354    6357    6358    6355    6354    6357    6355    6354    6356
    6356    6354    6357    6357    6360    6363    6357    6360    6362
    6357    6360    6361    6358    6357    6360    6358    6357    6359
    6359    6357    6360    6360    6363    6365    6360    6363    6364
    6361    6360    6363    6361    6360    6362    6362    6360    6363
    6364    6363    6365    6366    6363    6365    6366    6363    6364
    6366    6363    6360    6367    6371    6374    6367    6371    6373
    6367    6371    6372    6368    6367    6371    6368    6367    6370
    6368    6367    6369    6369    6367    6371    6369    6367    6370
    6370    6367    6371    6371    6374    6381    6371    6374    6376
    6371    6374    6375    6372    6371    6374    6372    6371    6373
    6373    6371    6374    6374    6381    6377    6375    6374    6381
    6375    6374    6376    6376    6374    6381    6377    6380    6382
    6378    6377    6379    6380    6377    6379    6380    6377    6378
    6381    6377    6379    6381    6377    6378    6381    6377    6380
    6382    6385    6387    6382    6385    6393    6382    6385    6386
    6383    6382    6380    6383    6382    6385    6383    6382    6384
    6384    6382    6380    6384    6382    6385    6385    6393    6396
    6385    6393    6395    6385    6393    6394    6385    6387    6388
    6385    6382    6380    6386    6385    6387    6386    6385    6393
    6387    6388    6389    6387    6388    6390    6388    6390    6402
    6388    6390    6392    6388    6390    6391    6390    6402    6405
    6390    6402    6404    6390    6402    6403    6390    6388    6389
    6391    6390    6402    6391    6390    6392    6392    6390    6402
    6393    6396    6397    6393    6385    6387    6394    6393    6396
    6394    6393    6395    6395    6393    6396    6396    6397    6398
    6396    6397    6399    6397    6399    6415    6397    6399    6401
    6397    6399    6400    6399    6415    6418    6399    6415    6417
    6399    6415    6416    6399    6397    6398    6400    6399    6415
    6400    6399    6401    6401    6399    6415    6402    6405    6408
    6402    6405    6407    6402    6405    6406    6403    6402    6405
    6403    6402    6404    6404    6402    6405    6405    6408    6411
    6405    6408    6410    6405    6408    6409    6406    6405    6408
    6406    6405    6407    6407    6405    6408    6408    6411    6413
    6408    6411    6412    6409    6408    6411    6409    6408    6410
    6410    6408    6411    6412    6411    6413    6414    6411    6413
    6414    6411    6412    6414    6411    6408    6415    6418    6421
    6415    6418    6420    6415    6418    6419    6416    6415    6418
    6416    6415    6417    6417    6415    6418    6418    6421    6424
    6418    6421    6423    6418    6421    6422    6419    6418    6421
    6419    6418    6420    6420    6418    6421    6421    6424    6426
    6421    6424    6425    6422    6421    6424    6422    6421    6423
    6423    6421    6424    6425    6424    6426    6427    6424    6426
    6427    6424    6425    6427    6424    6421    6428    6432    6437
    6428    6432    6433    6428    6432    6434    6429    6428    6432
    6429    6428    6431    6429    6428    6430    6430    6428    6432
    6430    6428    6431    6431    6428    6432    6432    6437    6443
    6432    6437    6439    6432    6437    6438    6432    6434    6435
    6433    6432    6437    6434    6432    6437    6434    6432    6433
    6436    6434    6435    6436    6434    6432    6437    6443    6440
    6438    6437    6443    6438    6437    6439    6439    6437    6443
    6441    6440    6442    6443    6440    6442    6443    6440    6441
    6443    6440    6444    6444    6445    6448    6444    6445    6447
    6444    6445    6446    6444    6440    6442    6444    6440    6441
    6445    6448    6450    6445    6448    6456    6445    6448    6449
    6445    6444    6440    6446    6445    6448    6446    6445    6447
    6447    6445    6448    6448    6456    6459    6448    6456    6458
    6448    6456    6457    6448    6450    6451    6449    6448    6450
    6449    6448    6456    6450    6451    6452    6450    6451    6453
    6451    6453    6465    6451    6453    6455    6451    6453    6454
    6453    6465    6468    6453    6465    6467    6453    6465    6466
    6453    6451    6452    6454    6453    6465    6454    6453    6455
    6455    6453    6465    6456    6459    6460    6456    6448    6450
    6457    6456    6459    6457    6456    6458    6458    6456    6459
    6459    6460    6461    6459    6460    6462    6460    6462    6478
    6460    6462    6464    6460    6462    6463    6462    6478    6481
    6462    6478    6480    6462    6478    6479    6462    6460    6461
    6463    6462    6478    6463    6462    6464    6464    6462    6478
    6465    6468    6471    6465    6468    6470    6465    6468    6469
    6466    6465    6468    6466    6465    6467    6467    6465    6468
    6468    6471    6474    6468    6471    6473    6468    6471    6472
    6469    6468    6471    6469    6468    6470    6470    6468    6471
    6471    6474    6476    6471    6474    6475    6472    6471    6474
    6472    6471    6473    6473    6471    6474    6475    6474    6476
    6477    6474    6476    6477    6474    6475    6477    6474    6471
    6478    6481    6484    6478    6481    6483    6478    6481    6482
    6479    6478    6481    6479    6478    6480    6480    6478    6481
    6481    6484    6487    6481    6484    6486    6481    6484    6485
    6482    6481    6484    6482    6481    6483    6483    6481    6484
    6484    6487    6489    6484    6487    6488    6485    6484    6487
    6485    6484    6486    6486    6484    6487    6488    6487    6489
    6490    6487    6489    6490    6487    6488    6490    6487    6484
    6491    6503    6506    6491    6503    6505    6491    6503    6504
    6491    6499    6502    6491    6499    6501    6491    6499    6500
    6491    6495    6498    6491    6495    6497    6491    6495    6496
    6491    6492    6507    6491    6492    6494    6491    6492    6493
    6492    6507    6513    6492    6507    6509    6492    6507    6508
    6493    6492    6507    6493    6492    6494    6494    6492    6507
    6495    6491    6492    6495    6491    6503    6495    6491    6499
    6496    6495    6498    6496    6495    6497    6497    6495    6498
    6499    6491    6492    6499    6491    6503    6500    6499    6502
    6500    6499    6501    6501    6499    6502    6503    6491    6492
    6504    6503    6506    6504    6503    6505    6505    6503    6506
    6507    6513    6510    6508    6507    6513    6508    6507    6509
    6509    6507    6513    6511    6510    6512    6513    6510    6512
    6513    6510    6511    6513    6510    6514    6514    6515    6518
    6514    6515    6517    6514    6515    6516    6514    6510    6512
    6514    6510    6511    6515    6518    6520    6515    6518    6526
    6515    6518    6519    6515    6514    6510    6516    6515    6518
    6516    6515    6517    6517    6515    6518    6518    6526    6529
    6518    6526    6528    6518    6526    6527    6518    6520    6521
    6519    6518    6520    6519    6518    6526    6520    6521    6522
    6520    6521    6523    6521    6523    6535    6521    6523    6525
    6521    6523    6524    6523    6535    6538    6523    6535    6537
    6523    6535    6536    6523    6521    6522    6524    6523    6535
    6524    6523    6525    6525    6523    6535    6526    6529    6530
    6526    6518    6520    6527    6526    6529    6527    6526    6528
    6528    6526    6529    6529    6530    6531    6529    6530    6532
    6530    6532    6548    6530    6532    6534    6530    6532    6533
    6532    6548    6551    6532    6548    6550    6532    6548    6549
    6532    6530    6531    6533    6532    6548    6533    6532    6534
    6534    6532    6548    6535    6538    6541    6535    6538    6540
    6535    6538    6539    6536    6535    6538    6536    6535    6537
    6537    6535    6538    6538    6541    6544    6538    6541    6543
    6538    6541    6542    6539    6538    6541    6539    6538    6540
    6540    6538    6541    6541    6544    6546    6541    6544    6545
    6542    6541    6544    6542    6541    6543    6543    6541    6544
    6545    6544    6546    6547    6544    6546    6547    6544    6545
    6547    6544    6541    6548    6551    6554    6548    6551    6553
    6548    6551    6552    6549    6548    6551    6549    6548    6550
    6550    6548    6551    6551    6554    6557    6551    6554    6556
    6551    6554    6555    6552    6551    6554    6552    6551    6553
    6553    6551    6554    6554    6557    6559    6554    6557    6558
    6555    6554    6557    6555    6554    6556    6556    6554    6557
    6558    6557    6559    6560    6557    6559    6560    6557    6558
    6560    6557    6554    6561    6565    6568    6561    6565    6567
    6561    6565    6566    6562    6561    6565    6562    6561    6564
    6562    6561    6563    6563    6561    6565    6563    6561    6564
    6564    6561    6565    6565    6568    6575    6565    6568    6570
    6565    6568    6569    6566    6565    6568    6566    6565    6567
    6567    6565    6568    6568    6575    6571    6569    6568    6575
    6569    6568    6570    6570    6568    6575    6571    6574    6576
    6572    6571    6573    6574    6571    6573    6574    6571    6572
    6575    6571    6573    6575    6571    6572    6575    6571    6574
    6576    6579    6581    6576    6579    6587    6576    6579    6580
    6577    6576    6574    6577    6576    6579    6577    6576    6578
    6578    6576    6574    6578    6576    6579    6579    6587    6590
    6579    6587    6589    6579    6587    6588    6579    6581    6582
    6579    6576    6574    6580    6579    6581    6580    6579    6587
    6581    6582    6583    6581    6582    6584    6582    6584    6596
    6582    6584    6586    6582    6584    6585    6584    6596    6599
    6584    6596    6598    6584    6596    6597    6584    6582    6583
    6585    6584    6596    6585    6584    6586    6586    6584    6596
    6587    6590    6591    6587    6579    6581    6588    6587    6590
    6588    6587    6589    6589    6587    6590    6590    6591    6592
    6590    6591    6593    6591    6593    6609    6591    6593    6595
    6591    6593    6594    6593    6609    6612    6593    6609    6611
    6593    6609    6610    6593    6591    6592    6594    6593    6609
    6594    6593    6595    6595    6593    6609    6596    6599    6602
    6596    6599    6601    6596    6599    6600    6597    6596    6599
    6597    6596    6598    6598    6596    6599    6599    6602    6605
    6599    6602    6604    6599    6602    6603    6600    6599    6602
    6600    6599    6601    6601    6599    6602    6602    6605    6607
    6602    6605    6606    6603    6602    6605    6603    6602    6604
    6604    6602    6605    6606    6605    6607    6608    6605    6607
    6608    6605    6606    6608    6605    6602    6609    6612    6615
    6609    6612    6614    6609    6612    6613    6610    6609    6612
    6610    6609    6611    6611    6609    6612    6612    6615    6618
    6612    6615    6617    6612    6615    6616    6613    6612    6615
    6613    6612    6614    6614    6612    6615    6615    6618    6620
    6615    6618    6619    6616    6615    6618    6616    6615    6617
    6617    6615    6618    6619    6618    6620    6621    6618    6620
    6621    6618    6619    6621    6618    6615    6622    6634    6637
    6622    6634    6636    6622    6634    6635    6622    6630    6633
    6622    6630    6632    6622    6630    6631    6622    6626    6629
    6622    6626    6628    6622    6626    6627    6622    6623    6638
    6622    6623    6625    6622    6623    6624    6623    6638    6644
    6623    6638    6640    6623    6638    6639    6624    6623    6638
    6624    6623    6625    6625    6623    6638    6626    6622    6623
    6626    6622    6634    6626    6622    6630    6627    6626    6629
    6627    6626    6628    6628    6626    6629    6630    6622    6623
    6630    6622    6634    6631    6630    6633    6631    6630    6632
    6632    6630    6633    6634    6622    6623    6635    6634    6637
    6635    6634    6636    6636    6634    6637    6638    6644    6641
    6639    6638    6644    6639    6638    6640    6640    6638    6644
    6642    6641    6643    6644    6641    6643    6644    6641    6642
    6644    6641    6645    6645    6646    6649    6645    6646    6648
    6645    6646    6647    6645    6641    6643    6645    6641    6642
    6646    6649    6651    6646    6649    6657    6646    6649    6650
    6646    6645    6641    6647    6646    6649    6647    6646    6648
    6648    6646    6649    6649    6657    6660    6649    6657    6659
    6649    6657    6658    6649    6651    6652    6650    6649    6651
    6650    6649    6657    6651    6652    6653    6651    6652    6654
    6652    6654    6666    6652    6654    6656    6652    6654    6655
    6654    6666    6669    6654    6666    6668    6654    6666    6667
    6654    6652    6653    6655    6654    6666    6655    6654    6656
    6656    6654    6666    6657    6660    6661    6657    6649    6651
    6658    6657    6660    6658    6657    6659    6659    6657    6660
    6660    6661    6662    6660    6661    6663    6661    6663    6679
    6661    6663    6665    6661    6663    6664    6663    6679    6682
    6663    6679    6681    6663    6679    6680    6663    6661    6662
    6664    6663    6679    6664    6663    6665    6665    6663    6679
    6666    6669    6672    6666    6669    6671    6666    6669    6670
    6667    6666    6669    6667    6666    6668    6668    6666    6669
    6669    6672    6675    6669    6672    6674    6669    6672    6673
    6670    6669    6672    6670    6669    6671    6671    6669    6672
    6672    6675    6677    6672    6675    6676    6673    6672    6675
    6673    6672    6674    6674    6672    6675    6676    6675    6677
    6678    6675    6677    6678    6675    6676    6678    6675    6672
    6679    6682    6685    6679    6682    6684    6679    6682    6683
    6680    6679    6682    6680    6679    6681    6681    6679    6682
    6682    6685    6688    6682    6685    6687    6682    6685    6686
    6683    6682    6685    6683    6682    6684    6684    6682    6685
    6685    6688    6690    6685    6688    6689    6686    6685    6688
    6686    6685    6687    6687    6685    6688    6689    6688    6690
    6691    6688    6690    6691    6688    6689    6691    6688    6685
    6692    6701    6704    6692    6701    6703    6692    6701    6702
    6692    6697    6700    6692    6697    6699    6692    6697    6698
    6692    6693    6696    6692    6693    6695    6692    6693    6694
    6694    6693    6696    6694    6693    6695    6695    6693    6696
    6697    6692    6693    6698    6697    6700    6698    6697    6699
    6699    6697    6700    6701    6692    6693    6701    6692    6697
    6702    6701    6704    6702    6701    6703    6703    6701    6704
    6705    6692    6693    6705    6692    6697    6705    6692    6701
    6706    6705    6692    6706    6705    6707    6707    6705    6692
    6708    6705    6692    6708    6705    6707    6708    6705    6706
    6709    6708    6705    6709    6708    6710    6710    6708    6705
    6711    6715    6708    6712    6711    6713    6714    6711    6713
    6714    6711    6712    6714    6711    6715    6715    6711    6713
    6715    6711    6712    6715    6708    6705    6715    6708    6710
    6715    6708    6709    6716    6721    6719    6716    6714    6711
    6717    6716    6714    6717    6716    6718    6718    6716    6714
    6719    6735    6736    6719    6735    6737    6720    6719    6735
    6721    6719    6735    6721    6719    6720    6721    6716    6714
    6721    6716    6718    6721    6716    6717    6722    6721    6719
    6722    6721    6716    6723    6727    6729    6723    6725    6726
    6723    6721    6719    6723    6721    6716    6723    6721    6722
    6724    6723    6721    6724    6723    6725    6725    6723    6721
    6727    6723    6721    6727    6723    6725    6727    6723    6724
    6728    6727    6729    6728    6727    6723    6730    6729    6727
    6731    6729    6727    6731    6729    6730    6732    6731    6729
    6732    6731    6733    6733    6731    6729    6734    6731    6729
    6734    6731    6733    6734    6731    6732    6735    6737    6740
    6735    6737    6739    6735    6737    6738    6737    6740    6743
    6737    6740    6742    6737    6740    6741    6737    6735    6736
    6738    6737    6740    6738    6737    6739    6739    6737    6740
    6740    6743    6746    6740    6743    6745    6740    6743    6744
    6741    6740    6743    6741    6740    6742    6742    6740    6743
    6743    6746    6749    6743    6746    6748    6743    6746    6747
    6744    6743    6746    6744    6743    6745    6745    6743    6746
    6746    6749    6751    6746    6749    6750    6747    6746    6749
    6747    6746    6748    6748    6746    6749    6750    6749    6751
    6752    6749    6751    6752    6749    6750    6752    6749    6746
    6753    6765    6768    6753    6765    6767    6753    6765    6766
    6753    6761    6764    6753    6761    6763    6753    6761    6762
    6753    6757    6760    6753    6757    6759    6753    6757    6758
    6753    6754    6769    6753    6754    6756    6753    6754    6755
    6754    6769    6775    6754    6769    6771    6754    6769    6770
    6755    6754    6769    6755    6754    6756    6756    6754    6769
    6757    6753    6754    6757    6753    6765    6757    6753    6761
    6758    6757    6760    6758    6757    6759    6759    6757    6760
    6761    6753    6754    6761    6753    6765    6762    6761    6764
    6762    6761    6763    6763    6761    6764    6765    6753    6754
    6766    6765    6768    6766    6765    6767    6767    6765    6768
    6769    6775    6772    6770    6769    6775    6770    6769    6771
    6771    6769    6775    6773    6772    6774    6775    6772    6774
    6775    6772    6773    6775    6772    6776    6776    6777    6780
    6776    6777    6779    6776    6777    6778    6776    6772    6774
    6776    6772    6773    6777    6780    6782    6777    6780    6788
    6777    6780    6781    6777    6776    6772    6778    6777    6780
    6778    6777    6779    6779    6777    6780    6780    6788    6791
    6780    6788    6790    6780    6788    6789    6780    6782    6783
    6781    6780    6782    6781    6780    6788    6782    6783    6784
    6782    6783    6785    6783    6785    6797    6783    6785    6787
    6783    6785    6786    6785    6797    6800    6785    6797    6799
    6785    6797    6798    6785    6783    6784    6786    6785    6797
    6786    6785    6787    6787    6785    6797    6788    6791    6792
    6788    6780    6782    6789    6788    6791    6789    6788    6790
    6790    6788    6791    6791    6792    6793    6791    6792    6794
    6792    6794    6810    6792    6794    6796    6792    6794    6795
    6794    6810    6813    6794    6810    6812    6794    6810    6811
    6794    6792    6793    6795    6794    6810    6795    6794    6796
    6796    6794    6810    6797    6800    6803    6797    6800    6802
    6797    6800    6801    6798    6797    6800    6798    6797    6799
    6799    6797    6800    6800    6803    6806    6800    6803    6805
    6800    6803    6804    6801    6800    6803    6801    6800    6802
    6802    6800    6803    6803    6806    6808    6803    6806    6807
    6804    6803    6806    6804    6803    6805    6805    6803    6806
    6807    6806    6808    6809    6806    6808    6809    6806    6807
    6809    6806    6803    6810    6813    6816    6810    6813    6815
    6810    6813    6814    6811    6810    6813    6811    6810    6812
    6812    6810    6813    6813    6816    6819    6813    6816    6818
    6813    6816    6817    6814    6813    6816    6814    6813    6815
    6815    6813    6816    6816    6819    6821    6816    6819    6820
    6817    6816    6819    6817    6816    6818    6818    6816    6819
    6820    6819    6821    6822    6819    6821    6822    6819    6820
    6822    6819    6816    6823    6827    6830    6823    6827    6829
    6823    6827    6828    6824    6823    6827    6824    6823    6826
    6824    6823    6825    6825    6823    6827    6825    6823    6826
    6826    6823    6827    6827    6830    6837    6827    6830    6832
    6827    6830    6831    6828    6827    6830    6828    6827    6829
    6829    6827    6830    6830    6837    6833    6831    6830    6837
    6831    6830    6832    6832    6830    6837    6833    6836    6838
    6834    6833    6835    6836    6833    6835    6836    6833    6834
    6837    6833    6835    6837    6833    6834    6837    6833    6836
    6838    6841    6843    6838    6841    6849    6838    6841    6842
    6839    6838    6836    6839    6838    6841    6839    6838    6840
    6840    6838    6836    6840    6838    6841    6841    6849    6852
    6841    6849    6851    6841    6849    6850    6841    6843    6844
    6841    6838    6836    6842    6841    6843    6842    6841    6849
    6843    6844    6845    6843    6844    6846    6844    6846    6858
    6844    6846    6848    6844    6846    6847    6846    6858    6861
    6846    6858    6860    6846    6858    6859    6846    6844    6845
    6847    6846    6858    6847    6846    6848    6848    6846    6858
    6849    6852    6853    6849    6841    6843    6850    6849    6852
    6850    6849    6851    6851    6849    6852    6852    6853    6854
    6852    6853    6855    6853    6855    6871    6853    6855    6857
    6853    6855    6856    6855    6871    6874    6855    6871    6873
    6855    6871    6872    6855    6853    6854    6856    6855    6871
    6856    6855    6857    6857    6855    6871    6858    6861    6864
    6858    6861    6863    6858    6861    6862    6859    6858    6861
    6859    6858    6860    6860    6858    6861    6861    6864    6867
    6861    6864    6866    6861    6864    6865    6862    6861    6864
    6862    6861    6863    6863    6861    6864    6864    6867    6869
    6864    6867    6868    6865    6864    6867    6865    6864    6866
    6866    6864    6867    6868    6867    6869    6870    6867    6869
    6870    6867    6868    6870    6867    6864    6871    6874    6877
    6871    6874    6876    6871    6874    6875    6872    6871    6874
    6872    6871    6873    6873    6871    6874    6874    6877    6880
    6874    6877    6879    6874    6877    6878    6875    6874    6877
    6875    6874    6876    6876    6874    6877    6877    6880    6882
    6877    6880    6881    6878    6877    6880    6878    6877    6879
    6879    6877    6880    6881    6880    6882    6883    6880    6882
    6883    6880    6881    6883    6880    6877    6884    6888    6891
    6884    6888    6890    6884    6888    6889    6885    6884    6888
    6885    6884    6887    6885    6884    6886    6886    6884    6888
    6886    6884    6887    6887    6884    6888    6888    6891    6898
    6888    6891    6893    6888    6891    6892    6889    6888    6891
    6889    6888    6890    6890    6888    6891    6891    6898    6894
    6892    6891    6898    6892    6891    6893    6893    6891    6898
    6894    6897    6899    6895    6894    6896    6897    6894    6896
    6897    6894    6895    6898    6894    6896    6898    6894    6895
    6898    6894    6897    6899    6902    6904    6899    6902    6910
    6899    6902    6903    6900    6899    6897    6900    6899    6902
    6900    6899    6901    6901    6899    6897    6901    6899    6902
    6902    6910    6913    6902    6910    6912    6902    6910    6911
    6902    6904    6905    6902    6899    6897    6903    6902    6904
    6903    6902    6910    6904    6905    6906    6904    6905    6907
    6905    6907    6919    6905    6907    6909    6905    6907    6908
    6907    6919    6922    6907    6919    6921    6907    6919    6920
    6907    6905    6906    6908    6907    6919    6908    6907    6909
    6909    6907    6919    6910    6913    6914    6910    6902    6904
    6911    6910    6913    6911    6910    6912    6912    6910    6913
    6913    6914    6915    6913    6914    6916    6914    6916    6932
    6914    6916    6918    6914    6916    6917    6916    6932    6935
    6916    6932    6934    6916    6932    6933    6916    6914    6915
    6917    6916    6932    6917    6916    6918    6918    6916    6932
    6919    6922    6925    6919    6922    6924    6919    6922    6923
    6920    6919    6922    6920    6919    6921    6921    6919    6922
    6922    6925    6928    6922    6925    6927    6922    6925    6926
    6923    6922    6925    6923    6922    6924    6924    6922    6925
    6925    6928    6930    6925    6928    6929    6926    6925    6928
    6926    6925    6927    6927    6925    6928    6929    6928    6930
    6931    6928    6930    6931    6928    6929    6931    6928    6925
    6932    6935    6938    6932    6935    6937    6932    6935    6936
    6933    6932    6935    6933    6932    6934    6934    6932    6935
    6935    6938    6941    6935    6938    6940    6935    6938    6939
    6936    6935    6938    6936    6935    6937    6937    6935    6938
    6938    6941    6943    6938    6941    6942    6939    6938    6941
    6939    6938    6940    6940    6938    6941    6942    6941    6943
    6944    6941    6943    6944    6941    6942    6944    6941    6938
    6945    6949    6952    6945    6949    6951    6945    6949    6950
    6946    6945    6949    6946    6945    6948    6946    6945    6947
    6947    6945    6949    6947    6945    6948    6948    6945    6949
    6949    6952    6959    6949    6952    6954    6949    6952    6953
    6950    6949    6952    6950    6949    6951    6951    6949    6952
    6952    6959    6955    6953    6952    6959    6953    6952    6954
    6954    6952    6959    6955    6958    6960    6956    6955    6957
    6958    6955    6957    6958    6955    6956    6959    6955    6957
    6959    6955    6956    6959    6955    6958    6960    6963    6965
    6960    6963    6971    6960    6963    6964    6961    6960    6958
    6961    6960    6963    6961    6960    6962    6962    6960    6958
    6962    6960    6963    6963    6971    6974    6963    6971    6973
    6963    6971    6972    6963    6965    6966    6963    6960    6958
    6964    6963    6965    6964    6963    6971    6965    6966    6967
    6965    6966    6968    6966    6968    6980    6966    6968    6970
    6966    6968    6969    6968    6980    6983    6968    6980    6982
    6968    6980    6981    6968    6966    6967    6969    6968    6980
    6969    6968    6970    6970    6968    6980    6971    6974    6975
    6971    6963    6965    6972    6971    6974    6972    6971    6973
    6973    6971    6974    6974    6975    6976    6974    6975    6977
    6975    6977    6993    6975    6977    6979    6975    6977    6978
    6977    6993    6996    6977    6993    6995    6977    6993    6994
    6977    6975    6976    6978    6977    6993    6978    6977    6979
    6979    6977    6993    6980    6983    6986    6980    6983    6985
    6980    6983    6984    6981    6980    6983    6981    6980    6982
    6982    6980    6983    6983    6986    6989    6983    6986    6988
    6983    6986    6987    6984    6983    6986    6984    6983    6985
    6985    6983    6986    6986    6989    6991    6986    6989    6990
    6987    6986    6989    6987    6986    6988    6988    6986    6989
    6990    6989    6991    6992    6989    6991    6992    6989    6990
    6992    6989    6986    6993    6996    6999    6993    6996    6998
    6993    6996    6997    6994    6993    6996    6994    6993    6995
    6995    6993    6996    6996    6999    7002    6996    6999    7001
    6996    6999    7000    6997    6996    6999    6997    6996    6998
    6998    6996    6999    6999    7002    7004    6999    7002    7003
    7000    6999    7002    7000    6999    7001    7001    6999    7002
    7003    7002    7004    7005    7002    7004    7005    7002    7003
    7005    7002    6999    7006    7010    7013    7006    7010    7012
    7006    7010    7011    7007    7006    7010    7007    7006    7009
    7007    7006    7008    7008    7006    7010    7008    7006    7009
    7009    7006    7010    7010    7013    7020    7010    7013    7015
    7010    7013    7014    7011    7010    7013    7011    7010    7012
    7012    7010    7013    7013    7020    7016    7014    7013    7020
    7014    7013    7015    7015    7013    7020    7016    7019    7021
    7017    7016    7018    7019    7016    7018    7019    7016    7017
    7020    7016    7018    7020    7016    7017    7020    7016    7019
    7021    7024    7026    7021    7024    7032    7021    7024    7025
    7022    7021    7019    7022    7021    7024    7022    7021    7023
    7023    7021    7019    7023    7021    7024    7024    7032    7035
    7024    7032    7034    7024    7032    7033    7024    7026    7027
    7024    7021    7019    7025    7024    7026    7025    7024    7032
    7026    7027    7028    7026    7027    7029    7027    7029    7041
    7027    7029    7031    7027    7029    7030    7029    7041    7044
    7029    7041    7043    7029    7041    7042    7029    7027    7028
    7030    7029    7041    7030    7029    7031    7031    7029    7041
    7032    7035    7036    7032    7024    7026    7033    7032    7035
    7033    7032    7034    7034    7032    7035    7035    7036    7037
    7035    7036    7038    7036    7038    7054    7036    7038    7040
    7036    7038    7039    7038    7054    7057    7038    7054    7056
    7038    7054    7055    7038    7036    7037    7039    7038    7054
    7039    7038    7040    7040    7038    7054    7041    7044    7047
    7041    7044    7046    7041    7044    7045    7042    7041    7044
    7042    7041    7043    7043    7041    7044    7044    7047    7050
    7044    7047    7049    7044    7047    7048    7045    7044    7047
    7045    7044    7046    7046    7044    7047    7047    7050    7052
    7047    7050    7051    7048    7047    7050    7048    7047    7049
    7049    7047    7050    7051    7050    7052    7053    7050    7052
    7053    7050    7051    7053    7050    7047    7054    7057    7060
    7054    7057    7059    7054    7057    7058    7055    7054    7057
    7055    7054    7056    7056    7054    7057    7057    7060    7063
    7057    7060    7062    7057    7060    7061    7058    7057    7060
    7058    7057    7059    7059    7057    7060    7060    7063    7065
    7060    7063    7064    7061    7060    7063    7061    7060    7062
    7062    7060    7063    7064    7063    7065    7066    7063    7065
    7066    7063    7064    7066    7063    7060    7067    7076    7079
    7067    7076    7078    7067    7076    7077    7067    7072    7075
    7067    7072    7074    7067    7072    7073    7067    7068    7071
    7067    7068    7070    7067    7068    7069    7069    7068    7071
    7069    7068    7070    7070    7068    7071    7072    7067    7068
    7073    7072    7075    7073    7072    7074    7074    7072    7075
    7076    7067    7068    7076    7067    7072    7077    7076    7079
    7077    7076    7078    7078    7076    7079    7080    7067    7068
    7080    7067    7072    7080    7067    7076    7081    7080    7067
    7081    7080    7082    7082    7080    7067    7083    7080    7067
    7083    7080    7082    7083    7080    7081    7084    7083    7080
    7084    7083    7085    7085    7083    7080    7086    7090    7083
    7087    7086    7088    7089    7086    7088    7089    7086    7087
    7089    7086    7090    7090    7086    7088    7090    7086    7087
    7090    7083    7080    7090    7083    7085    7090    7083    7084
    7091    7096    7094    7091    7089    7086    7092    7091    7089
    7092    7091    7093    7093    7091    7089    7094    7110    7111
    7094    7110    7112    7095    7094    7110    7096    7094    7110
    7096    7094    7095    7096    7091    7089    7096    7091    7093
    7096    7091    7092    7097    7096    7094    7097    7096    7091
    7098    7102    7104    7098    7100    7101    7098    7096    7094
    7098    7096    7091    7098    7096    7097    7099    7098    7096
    7099    7098    7100    7100    7098    7096    7102    7098    7096
    7102    7098    7100    7102    7098    7099    7103    7102    7104
    7103    7102    7098    7105    7104    7102    7106    7104    7102
    7106    7104    7105    7107    7106    7104    7107    7106    7108
    7108    7106    7104    7109    7106    7104    7109    7106    7108
    7109    7106    7107    7110    7112    7115    7110    7112    7114
    7110    7112    7113    7112    7115    7118    7112    7115    7117
    7112    7115    7116    7112    7110    7111    7113    7112    7115
    7113    7112    7114    7114    7112    7115    7115    7118    7121
    7115    7118    7120    7115    7118    7119    7116    7115    7118
    7116    7115    7117    7117    7115    7118    7118    7121    7124
    7118    7121    7123    7118    7121    7122    7119    7118    7121
    7119    7118    7120    7120    7118    7121    7121    7124    7126
    7121    7124    7125    7122    7121    7124    7122    7121    7123
    7123    7121    7124    7125    7124    7126    7127    7124    7126
    7127    7124    7125    7127    7124    7121    7128    7140    7143
    7128    7140    7142    7128    7140    7141    7128    7136    7139
    7128    7136    7138    7128    7136    7137    7128    7132    7135
    7128    7132    7134    7128    7132    7133    7128    7129    7144
    7128    7129    7131    7128    7129    7130    7129    7144    7150
    7129    7144    7146    7129    7144    7145    7130    7129    7144
    7130    7129    7131    7131    7129    7144    7132    7128    7129
    7132    7128    7140    7132    7128    7136    7133    7132    7135
    7133    7132    7134    7134    7132    7135    7136    7128    7129
    7136    7128    7140    7137    7136    7139    7137    7136    7138
    7138    7136    7139    7140    7128    7129    7141    7140    7143
    7141    7140    7142    7142    7140    7143    7144    7150    7147
    7145    7144    7150    7145    7144    7146    7146    7144    7150
    7148    7147    7149    7150    7147    7149    7150    7147    7148
    7150    7147    7151    7151    7152    7155    7151    7152    7154
    7151    7152    7153    7151    7147    7149    7151    7147    7148
    7152    7155    7157    7152    7155    7163    7152    7155    7156
    7152    7151    7147    7153    7152    7155    7153    7152    7154
    7154    7152    7155    7155    7163    7166    7155    7163    7165
    7155    7163    7164    7155    7157    7158    7156    7155    7157
    7156    7155    7163    7157    7158    7159    7157    7158    7160
    7158    7160    7172    7158    7160    7162    7158    7160    7161
    7160    7172    7175    7160    7172    7174    7160    7172    7173
    7160    7158    7159    7161    7160    7172    7161    7160    7162
    7162    7160    7172    7163    7166    7167    7163    7155    7157
    7164    7163    7166    7164    7163    7165    7165    7163    7166
    7166    7167    7168    7166    7167    7169    7167    7169    7185
    7167    7169    7171    7167    7169    7170    7169    7185    7188
    7169    7185    7187    7169    7185    7186    7169    7167    7168
    7170    7169    7185    7170    7169    7171    7171    7169    7185
    7172    7175    7178    7172    7175    7177    7172    7175    7176
    7173    7172    7175    7173    7172    7174    7174    7172    7175
    7175    7178    7181    7175    7178    7180    7175    7178    7179
    7176    7175    7178    7176    7175    7177    7177    7175    7178
    7178    7181    7183    7178    7181    7182    7179    7178    7181
    7179    7178    7180    7180    7178    7181    7182    7181    7183
    7184    7181    7183    7184    7181    7182    7184    7181    7178
    7185    7188    7191    7185    7188    7190    7185    7188    7189
    7186    7185    7188    7186    7185    7187    7187    7185    7188
    7188    7191    7194    7188    7191    7193    7188    7191    7192
    7189    7188    7191    7189    7188    7190    7190    7188    7191
    7191    7194    7196    7191    7194    7195    7192    7191    7194
    7192    7191    7193    7193    7191    7194    7195    7194    7196
    7197    7194    7196    7197    7194    7195    7197    7194    7191
    7198    7202    7205    7198    7202    7204    7198    7202    7203
    7199    7198    7202    7199    7198    7201    7199    7198    7200
    7200    7198    7202    7200    7198    7201    7201    7198    7202
    7202    7205    7212    7202    7205    7207    7202    7205    7206
    7203    7202    7205    7203    7202    7204    7204    7202    7205
    7205    7212    7208    7206    7205    7212    7206    7205    7207
    7207    7205    7212    7208    7211    7213    7209    7208    7210
    7211    7208    7210    7211    7208    7209    7212    7208    7210
    7212    7208    7209    7212    7208    7211    7213    7216    7218
    7213    7216    7224    7213    7216    7217    7214    7213    7211
    7214    7213    7216    7214    7213    7215    7215    7213    7211
    7215    7213    7216    7216    7224    7227    7216    7224    7226
    7216    7224    7225    7216    7218    7219    7216    7213    7211
    7217    7216    7218    7217    7216    7224    7218    7219    7220
    7218    7219    7221    7219    7221    7233    7219    7221    7223
    7219    7221    7222    7221    7233    7236    7221    7233    7235
    7221    7233    7234    7221    7219    7220    7222    7221    7233
    7222    7221    7223    7223    7221    7233    7224    7227    7228
    7224    7216    7218    7225    7224    7227    7225    7224    7226
    7226    7224    7227    7227    7228    7229    7227    7228    7230
    7228    7230    7246    7228    7230    7232    7228    7230    7231
    7230    7246    7249    7230    7246    7248    7230    7246    7247
    7230    7228    7229    7231    7230    7246    7231    7230    7232
    7232    7230    7246    7233    7236    7239    7233    7236    7238
    7233    7236    7237    7234    7233    7236    7234    7233    7235
    7235    7233    7236    7236    7239    7242    7236    7239    7241
    7236    7239    7240    7237    7236    7239    7237    7236    7238
    7238    7236    7239    7239    7242    7244    7239    7242    7243
    7240    7239    7242    7240    7239    7241    7241    7239    7242
    7243    7242    7244    7245    7242    7244    7245    7242    7243
    7245    7242    7239    7246    7249    7252    7246    7249    7251
    7246    7249    7250    7247    7246    7249    7247    7246    7248
    7248    7246    7249    7249    7252    7255    7249    7252    7254
    7249    7252    7253    7250    7249    7252    7250    7249    7251
    7251    7249    7252    7252    7255    7257    7252    7255    7256
    7253    7252    7255    7253    7252    7254    7254    7252    7255
    7256    7255    7257    7258    7255    7257    7258    7255    7256
    7258    7255    7252    7259    7271    7274    7259    7271    7273
    7259    7271    7272    7259    7267    7270    7259    7267    7269
    7259    7267    7268    7259    7263    7266    7259    7263    7265
    7259    7263    7264    7259    7260    7275    7259    7260    7262
    7259    7260    7261    7260    7275    7281    7260    7275    7277
    7260    7275    7276    7261    7260    7275    7261    7260    7262
    7262    7260    7275    7263    7259    7260    7263    7259    7271
    7263    7259    7267    7264    7263    7266    7264    7263    7265
    7265    7263    7266    7267    7259    7260    7267    7259    7271
    7268    7267    7270    7268    7267    7269    7269    7267    7270
    7271    7259    7260    7272    7271    7274    7272    7271    7273
    7273    7271    7274    7275    7281    7278    7276    7275    7281
    7276    7275    7277    7277    7275    7281    7279    7278    7280
    7281    7278    7280    7281    7278    7279    7281    7278    7282
    7282    7283    7286    7282    7283    7285    7282    7283    7284
    7282    7278    7280    7282    7278    7279    7283    7286    7288
    7283    7286    7294    7283    7286    7287    7283    7282    7278
    7284    7283    7286    7284    7283    7285    7285    7283    7286
    7286    7294    7297    7286    7294    7296    7286    7294    7295
    7286    7288    7289    7287    7286    7288    7287    7286    7294
    7288    7289    7290    7288    7289    7291    7289    7291    7303
    7289    7291    7293    7289    7291    7292    7291    7303    7306
    7291    7303    7305    7291    7303    7304    7291    7289    7290
    7292    7291    7303    7292    7291    7293    7293    7291    7303
    7294    7297    7298    7294    7286    7288    7295    7294    7297
    7295    7294    7296    7296    7294    7297    7297    7298    7299
    7297    7298    7300    7298    7300    7316    7298    7300    7302
    7298    7300    7301    7300    7316    7319    7300    7316    7318
    7300    7316    7317    7300    7298    7299    7301    7300    7316
    7301    7300    7302    7302    7300    7316    7303    7306    7309
    7303    7306    7308    7303    7306    7307    7304    7303    7306
    7304    7303    7305    7305    7303    7306    7306    7309    7312
    7306    7309    7311    7306    7309    7310    7307    7306    7309
    7307    7306    7308    7308    7306    7309    7309    7312    7314
    7309    7312    7313    7310    7309    7312    7310    7309    7311
    7311    7309    7312    7313    7312    7314    7315    7312    7314
    7315    7312    7313    7315    7312    7309    7316    7319    7322
    7316    7319    7321    7316    7319    7320    7317    7316    7319
    7317    7316    7318    7318    7316    7319    7319    7322    7325
    7319    7322    7324    7319    7322    7323    7320    7319    7322
    7320    7319    7321    7321    7319    7322    7322    7325    7327
    7322    7325    7326    7323    7322    7325    7323    7322    7324
    7324    7322    7325    7326    7325    7327    7328    7325    7327
    7328    7325    7326    7328    7325    7322    7329    7333    7336
    7329    7333    7335    7329    7333    7334    7330    7329    7333
    7330    7329    7332    7330    7329    7331    7331    7329    7333
    7331    7329    7332    7332    7329    7333    7333    7336    7343
    7333    7336    7338    7333    7336    7337    7334    7333    7336
    7334    7333    7335    7335    7333    7336    7336    7343    7339
    7337    7336    7343    7337    7336    7338    7338    7336    7343
    7339    7342    7344    7340    7339    7341    7342    7339    7341
    7342    7339    7340    7343    7339    7341    7343    7339    7340
    7343    7339    7342    7344    7347    7349    7344    7347    7355
    7344    7347    7348    7345    7344    7342    7345    7344    7347
    7345    7344    7346    7346    7344    7342    7346    7344    7347
    7347    7355    7358    7347    7355    7357    7347    7355    7356
    7347    7349    7350    7347    7344    7342    7348    7347    7349
    7348    7347    7355    7349    7350    7351    7349    7350    7352
    7350    7352    7364    7350    7352    7354    7350    7352    7353
    7352    7364    7367    7352    7364    7366    7352    7364    7365
    7352    7350    7351    7353    7352    7364    7353    7352    7354
    7354    7352    7364    7355    7358    7359    7355    7347    7349
    7356    7355    7358    7356    7355    7357    7357    7355    7358
    7358    7359    7360    7358    7359    7361    7359    7361    7377
    7359    7361    7363    7359    7361    7362    7361    7377    7380
    7361    7377    7379    7361    7377    7378    7361    7359    7360
    7362    7361    7377    7362    7361    7363    7363    7361    7377
    7364    7367    7370    7364    7367    7369    7364    7367    7368
    7365    7364    7367    7365    7364    7366    7366    7364    7367
    7367    7370    7373    7367    7370    7372    7367    7370    7371
    7368    7367    7370    7368    7367    7369    7369    7367    7370
    7370    7373    7375    7370    7373    7374    7371    7370    7373
    7371    7370    7372    7372    7370    7373    7374    7373    7375
    7376    7373    7375    7376    7373    7374    7376    7373    7370
    7377    7380    7383    7377    7380    7382    7377    7380    7381
    7378    7377    7380    7378    7377    7379    7379    7377    7380
    7380    7383    7386    7380    7383    7385    7380    7383    7384
    7381    7380    7383    7381    7380    7382    7382    7380    7383
    7383    7386    7388    7383    7386    7387    7384    7383    7386
    7384    7383    7385    7385    7383    7386    7387    7386    7388
    7389    7386    7388    7389    7386    7387    7389    7386    7383
    7390    7394    7397    7390    7394    7396    7390    7394    7395
    7391    7390    7394    7391    7390    7393    7391    7390    7392
    7392    7390    7394    7392    7390    7393    7393    7390    7394
    7394    7397    7404    7394    7397    7399    7394    7397    7398
    7395    7394    7397    7395    7394    7396    7396    7394    7397
    7397    7404    7400    7398    7397    7404    7398    7397    7399
    7399    7397    7404    7400    7403    7405    7401    7400    7402
    7403    7400    7402    7403    7400    7401    7404    7400    7402
    7404    7400    7401    7404    7400    7403    7405    7408    7410
    7405    7408    7416    7405    7408    7409    7406    7405    7403
    7406    7405    7408    7406    7405    7407    7407    7405    7403
    7407    7405    7408    7408    7416    7419    7408    7416    7418
    7408    7416    7417    7408    7410    7411    7408    7405    7403
    7409    7408    7410    7409    7408    7416    7410    7411    7412
    7410    7411    7413    7411    7413    7425    7411    7413    7415
    7411    7413    7414    7413    7425    7428    7413    7425    7427
    7413    7425    7426    7413    7411    7412    7414    7413    7425
    7414    7413    7415    7415    7413    7425    7416    7419    7420
    7416    7408    7410    7417    7416    7419    7417    7416    7418
    7418    7416    7419    7419    7420    7421    7419    7420    7422
    7420    7422    7438    7420    7422    7424    7420    7422    7423
    7422    7438    7441    7422    7438    7440    7422    7438    7439
    7422    7420    7421    7423    7422    7438    7423    7422    7424
    7424    7422    7438    7425    7428    7431    7425    7428    7430
    7425    7428    7429    7426    7425    7428    7426    7425    7427
    7427    7425    7428    7428    7431    7434    7428    7431    7433
    7428    7431    7432    7429    7428    7431    7429    7428    7430
    7430    7428    7431    7431    7434    7436    7431    7434    7435
    7432    7431    7434    7432    7431    7433    7433    7431    7434
    7435    7434    7436    7437    7434    7436    7437    7434    7435
    7437    7434    7431    7438    7441    7444    7438    7441    7443
    7438    7441    7442    7439    7438    7441    7439    7438    7440
    7440    7438    7441    7441    7444    7447    7441    7444    7446
    7441    7444    7445    7442    7441    7444    7442    7441    7443
    7443    7441    7444    7444    7447    7449    7444    7447    7448
    7445    7444    7447    7445    7444    7446    7446    7444    7447
    7448    7447    7449    7450    7447    7449    7450    7447    7448
    7450    7447    7444    7451    7460    7463    7451    7460    7462
    7451    7460    7461    7451    7456    7459    7451    7456    7458
    7451    7456    7457    7451    7452    7455    7451    7452    7454
    7451    7452    7453    7453    7452    7455    7453    7452    7454
    7454    7452    7455    7456    7451    7452    7457    7456    7459
    7457    7456    7458    7458    7456    7459    7460    7451    7452
    7460    7451    7456    7461    7460    7463    7461    7460    7462
    7462    7460    7463    7464    7451    7452    7464    7451    7456
    7464    7451    7460    7465    7464    7451    7465    7464    7466
    7466    7464    7451    7467    7464    7451    7467    7464    7466
    7467    7464    7465    7468    7467    7464    7468    7467    7469
    7469    7467    7464    7470    7474    7467    7471    7470    7472
    7473    7470    7472    7473    7470    7471    7473    7470    7474
    7474    7470    7472    7474    7470    7471    7474    7467    7464
    7474    7467    7469    7474    7467    7468    7475    7480    7478
    7475    7473    7470    7476    7475    7473    7476    7475    7477
    7477    7475    7473    7478    7494    7495    7478    7494    7496
    7479    7478    7494    7480    7478    7494    7480    7478    7479
    7480    7475    7473    7480    7475    7477    7480    7475    7476
    7481    7480    7478    7481    7480    7475    7482    7486    7488
    7482    7484    7485    7482    7480    7478    7482    7480    7475
    7482    7480    7481    7483    7482    7480    7483    7482    7484
    7484    7482    7480    7486    7482    7480    7486    7482    7484
    7486    7482    7483    7487    7486    7488    7487    7486    7482
    7489    7488    7486    7490    7488    7486    7490    7488    7489
    7491    7490    7488    7491    7490    7492    7492    7490    7488
    7493    7490    7488    7493    7490    7492    7493    7490    7491
    7494    7496    7499    7494    7496    7498    7494    7496    7497
    7496    7499    7502    7496    7499    7501    7496    7499    7500
    7496    7494    7495    7497    7496    7499    7497    7496    7498
    7498    7496    7499    7499    7502    7505    7499    7502    7504
    7499    7502    7503    7500    7499    7502    7500    7499    7501
    7501    7499    7502    7502    7505    7508    7502    7505    7507
    7502    7505    7506    7503    7502    7505    7503    7502    7504
    7504    7502    7505    7505    7508    7510    7505    7508    7509
    7506    7505    7508    7506    7505    7507    7507    7505    7508
    7509    7508    7510    7511    7508    7510    7511    7508    7509
    7511    7508    7505    7512    7524    7527    7512    7524    7526
    7512    7524    7525    7512    7520    7523    7512    7520    7522
    7512    7520    7521    7512    7516    7519    7512    7516    7518
    7512    7516    7517    7512    7513    7528    7512    7513    7515
    7512    7513    7514    7513    7528    7534    7513    7528    7530
    7513    7528    7529    7514    7513    7528    7514    7513    7515
    7515    7513    7528    7516    7512    7513    7516    7512    7524
    7516    7512    7520    7517    7516    7519    7517    7516    7518
    7518    7516    7519    7520    7512    7513    7520    7512    7524
    7521    7520    7523    7521    7520    7522    7522    7520    7523
    7524    7512    7513    7525    7524    7527    7525    7524    7526
    7526    7524    7527    7528    7534    7531    7529    7528    7534
    7529    7528    7530    7530    7528    7534    7532    7531    7533
    7534    7531    7533    7534    7531    7532    7534    7531    7535
    7535    7536    7539    7535    7536    7538    7535    7536    7537
    7535    7531    7533    7535    7531    7532    7536    7539    7541
    7536    7539    7547    7536    7539    7540    7536    7535    7531
    7537    7536    7539    7537    7536    7538    7538    7536    7539
    7539    7547    7550    7539    7547    7549    7539    7547    7548
    7539    7541    7542    7540    7539    7541    7540    7539    7547
    7541    7542    7543    7541    7542    7544    7542    7544    7556
    7542    7544    7546    7542    7544    7545    7544    7556    7559
    7544    7556    7558    7544    7556    7557    7544    7542    7543
    7545    7544    7556    7545    7544    7546    7546    7544    7556
    7547    7550    7551    7547    7539    7541    7548    7547    7550
    7548    7547    7549    7549    7547    7550    7550    7551    7552
    7550    7551    7553    7551    7553    7569    7551    7553    7555
    7551    7553    7554    7553    7569    7572    7553    7569    7571
    7553    7569    7570    7553    7551    7552    7554    7553    7569
    7554    7553    7555    7555    7553    7569    7556    7559    7562
    7556    7559    7561    7556    7559    7560    7557    7556    7559
    7557    7556    7558    7558    7556    7559    7559    7562    7565
    7559    7562    7564    7559    7562    7563    7560    7559    7562
    7560    7559    7561    7561    7559    7562    7562    7565    7567
    7562    7565    7566    7563    7562    7565    7563    7562    7564
    7564    7562    7565    7566    7565    7567    7568    7565    7567
    7568    7565    7566    7568    7565    7562    7569    7572    7575
    7569    7572    7574    7569    7572    7573    7570    7569    7572
    7570    7569    7571    7571    7569    7572    7572    7575    7578
    7572    7575    7577    7572    7575    7576    7573    7572    7575
    7573    7572    7574    7574    7572    7575    7575    7578    7580
    7575    7578    7579    7576    7575    7578    7576    7575    7577
    7577    7575    7578    7579    7578    7580    7581    7578    7580
    7581    7578    7579    7581    7578    7575    7582    7586    7589
    7582    7586    7588    7582    7586    7587    7583    7582    7586
    7583    7582    7585    7583    7582    7584    7584    7582    7586
    7584    7582    7585    7585    7582    7586    7586    7589    7596
    7586    7589    7591    7586    7589    7590    7587    7586    7589
    7587    7586    7588    7588    7586    7589    7589    7596    7592
    7590    7589    7596    7590    7589    7591    7591    7589    7596
    7592    7595    7597    7593    7592    7594    7595    7592    7594
    7595    7592    7593    7596    7592    7594    7596    7592    7593
    7596    7592    7595    7597    7600    7602    7597    7600    7608
    7597    7600    7601    7598    7597    7595    7598    7597    7600
    7598    7597    7599    7599    7597    7595    7599    7597    7600
    7600    7608    7611    7600    7608    7610    7600    7608    7609
    7600    7602    7603    7600    7597    7595    7601    7600    7602
    7601    7600    7608    7602    7603    7604    7602    7603    7605
    7603    7605    7617    7603    7605    7607    7603    7605    7606
    7605    7617    7620    7605    7617    7619    7605    7617    7618
    7605    7603    7604    7606    7605    7617    7606    7605    7607
    7607    7605    7617    7608    7611    7612    7608    7600    7602
    7609    7608    7611    7609    7608    7610    7610    7608    7611
    7611    7612    7613    7611    7612    7614    7612    7614    7630
    7612    7614    7616    7612    7614    7615    7614    7630    7633
    7614    7630    7632    7614    7630    7631    7614    7612    7613
    7615    7614    7630    7615    7614    7616    7616    7614    7630
    7617    7620    7623    7617    7620    7622    7617    7620    7621
    7618    7617    7620    7618    7617    7619    7619    7617    7620
    7620    7623    7626    7620    7623    7625    7620    7623    7624
    7621    7620    7623    7621    7620    7622    7622    7620    7623
    7623    7626    7628    7623    7626    7627    7624    7623    7626
    7624    7623    7625    7625    7623    7626    7627    7626    7628
    7629    7626    7628    7629    7626    7627    7629    7626    7623
    7630    7633    7636    7630    7633    7635    7630    7633    7634
    7631    7630    7633    7631    7630    7632    7632    7630    7633
    7633    7636    7639    7633    7636    7638    7633    7636    7637
    7634    7633    7636    7634    7633    7635    7635    7633    7636
    7636    7639    7641    7636    7639    7640    7637    7636    7639
    7637    7636    7638    7638    7636    7639    7640    7639    7641
    7642    7639    7641    7642    7639    7640    7642    7639    7636
    7643    7655    7658    7643    7655    7657    7643    7655    7656
    7643    7651    7654    7643    7651    7653    7643    7651    7652
    7643    7647    7650    7643    7647    7649    7643    7647    7648
    7643    7644    7659    7643    7644    7646    7643    7644    7645
    7644    7659    7665    7644    7659    7661    7644    7659    7660
    7645    7644    7659    7645    7644    7646    7646    7644    7659
    7647    7643    7644    7647    7643    7655    7647    7643    7651
    7648    7647    7650    7648    7647    7649    7649    7647    7650
    7651    7643    7644    7651    7643    7655    7652    7651    7654
    7652    7651    7653    7653    7651    7654    7655    7643    7644
    7656    7655    7658    7656    7655    7657    7657    7655    7658
    7659    7665    7662    7660    7659    7665    7660    7659    7661
    7661    7659    7665    7663    7662    7664    7665    7662    7664
    7665    7662    7663    7665    7662    7666    7666    7667    7670
    7666    7667    7669    7666    7667    7668    7666    7662    7664
    7666    7662    7663    7667    7670    7672    7667    7670    7678
    7667    7670    7671    7667    7666    7662    7668    7667    7670
    7668    7667    7669    7669    7667    7670    7670    7678    7681
    7670    7678    7680    7670    7678    7679    7670    7672    7673
    7671    7670    7672    7671    7670    7678    7672    7673    7674
    7672    7673    7675    7673    7675    7687    7673    7675    7677
    7673    7675    7676    7675    7687    7690    7675    7687    7689
    7675    7687    7688    7675    7673    7674    7676    7675    7687
    7676    7675    7677    7677    7675    7687    7678    7681    7682
    7678    7670    7672    7679    7678    7681    7679    7678    7680
    7680    7678    7681    7681    7682    7683    7681    7682    7684
    7682    7684    7700    7682    7684    7686    7682    7684    7685
    7684    7700    7703    7684    7700    7702    7684    7700    7701
    7684    7682    7683    7685    7684    7700    7685    7684    7686
    7686    7684    7700    7687    7690    7693    7687    7690    7692
    7687    7690    7691    7688    7687    7690    7688    7687    7689
    7689    7687    7690    7690    7693    7696    7690    7693    7695
    7690    7693    7694    7691    7690    7693    7691    7690    7692
    7692    7690    7693    7693    7696    7698    7693    7696    7697
    7694    7693    7696    7694    7693    7695    7695    7693    7696
    7697    7696    7698    7699    7696    7698    7699    7696    7697
    7699    7696    7693    7700    7703    7706    7700    7703    7705
    7700    7703    7704    7701    7700    7703    7701    7700    7702
    7702    7700    7703    7703    7706    7709    7703    7706    7708
    7703    7706    7707    7704    7703    7706    7704    7703    7705
    7705    7703    7706    7706    7709    7711    7706    7709    7710
    7707    7706    7709    7707    7706    7708    7708    7706    7709
    7710    7709    7711    7712    7709    7711    7712    7709    7710
    7712    7709    7706    7713    7722    7725    7713    7722    7724
    7713    7722    7723    7713    7718    7721    7713    7718    7720
    7713    7718    7719    7713    7714    7717    7713    7714    7716
    7713    7714    7715    7715    7714    7717    7715    7714    7716
    7716    7714    7717    7718    7713    7714    7719    7718    7721
    7719    7718    7720    7720    7718    7721    7722    7713    7714
    7722    7713    7718    7723    7722    7725    7723    7722    7724
    7724    7722    7725    7726    7713    7714    7726    7713    7718
    7726    7713    7722    7727    7726    7713    7727    7726    7728
    7728    7726    7713    7729    7726    7713    7729    7726    7728
    7729    7726    7727    7730    7729    7726    7730    7729    7731
    7731    7729    7726    7732    7736    7729    7733    7732    7734
    7735    7732    7734    7735    7732    7733    7735    7732    7736
    7736    7732    7734    7736    7732    7733    7736    7729    7726
    7736    7729    7731    7736    7729    7730    7737    7742    7740
    7737    7735    7732    7738    7737    7735    7738    7737    7739
    7739    7737    7735    7740    7756    7757    7740    7756    7758
    7741    7740    7756    7742    7740    7756    7742    7740    7741
    7742    7737    7735    7742    7737    7739    7742    7737    7738
    7743    7742    7740    7743    7742    7737    7744    7748    7750
    7744    7746    7747    7744    7742    7740    7744    7742    7737
    7744    7742    7743    7745    7744    7742    7745    7744    7746
    7746    7744    7742    7748    7744    7742    7748    7744    7746
    7748    7744    7745    7749    7748    7750    7749    7748    7744
    7751    7750    7748    7752    7750    7748    7752    7750    7751
    7753    7752    7750    7753    7752    7754    7754    7752    7750
    7755    7752    7750    7755    7752    7754    7755    7752    7753
    7756    7758    7761    7756    7758    7760    7756    7758    7759
    7758    7761    7764    7758    7761    7763    7758    7761    7762
    7758    7756    7757    7759    7758    7761    7759    7758    7760
    7760    7758    7761    7761    7764    7767    7761    7764    7766
    7761    7764    7765    7762    7761    7764    7762    7761    7763
    7763    7761    7764    7764    7767    7770    7764    7767    7769
    7764    7767    7768    7765    7764    7767    7765    7764    7766
    7766    7764    7767    7767    7770    7772    7767    7770    7771
    7768    7767    7770    7768    7767    7769    7769    7767    7770
    7771    7770    7772    7773    7770    7772    7773    7770    7771
    7773    7770    7767    7774    7786    7789    7774    7786    7788
    7774    7786    7787    7774    7782    7785    7774    7782    7784
    7774    7782    7783    7774    7778    7781    7774    7778    7780
    7774    7778    7779    7774    7775    7790    7774    7775    7777
    7774    7775    7776    7775    7790    7796    7775    7790    7792
    7775    7790    7791    7776    7775    7790    7776    7775    7777
    7777    7775    7790    7778    7774    7775    7778    7774    7786
    7778    7774    7782    7779    7778    7781    7779    7778    7780
    7780    7778    7781    7782    7774    7775    7782    7774    7786
    7783    7782    7785    7783    7782    7784    7784    7782    7785
    7786    7774    7775    7787    7786    7789    7787    7786    7788
    7788    7786    7789    7790    7796    7793    7791    7790    7796
    7791    7790    7792    7792    7790    7796    7794    7793    7795
    7796    7793    7795    7796    7793    7794    7796    7793    7797
    7797    7798    7801    7797    7798    7800    7797    7798    7799
    7797    7793    7795    7797    7793    7794    7798    7801    7803
    7798    7801    7809    7798    7801    7802    7798    7797    7793
    7799    7798    7801    7799    7798    7800    7800    7798    7801
    7801    7809    7812    7801    7809    7811    7801    7809    7810
    7801    7803    7804    7802    7801    7803    7802    7801    7809
    7803    7804    7805    7803    7804    7806    7804    7806    7818
    7804    7806    7808    7804    7806    7807    7806    7818    7821
    7806    7818    7820    7806    7818    7819    7806    7804    7805
    7807    7806    7818    7807    7806    7808    7808    7806    7818
    7809    7812    7813    7809    7801    7803    7810    7809    7812
    7810    7809    7811    7811    7809    7812    7812    7813    7814
    7812    7813    7815    7813    7815    7831    7813    7815    7817
    7813    7815    7816    7815    7831    7834    7815    7831    7833
    7815    7831    7832    7815    7813    7814    7816    7815    7831
    7816    7815    7817    7817    7815    7831    7818    7821    7824
    7818    7821    7823    7818    7821    7822    7819    7818    7821
    7819    7818    7820    7820    7818    7821    7821    7824    7827
    7821    7824    7826    7821    7824    7825    7822    7821    7824
    7822    7821    7823    7823    7821    7824    7824    7827    7829
    7824    7827    7828    7825    7824    7827    7825    7824    7826
    7826    7824    7827    7828    7827    7829    7830    7827    7829
    7830    7827    7828    7830    7827    7824    7831    7834    7837
    7831    7834    7836    7831    7834    7835    7832    7831    7834
    7832    7831    7833    7833    7831    7834    7834    7837    7840
    7834    7837    7839    7834    7837    7838    7835    7834    7837
    7835    7834    7836    7836    7834    7837    7837    7840    7842
    7837    7840    7841    7838    7837    7840    7838    7837    7839
    7839    7837    7840    7841    7840    7842    7843    7840    7842
    7843    7840    7841    7843    7840    7837    7844    7848    7853
    7844    7848    7849    7844    7848    7850    7845    7844    7848
    7845    7844    7847    7845    7844    7846    7846    7844    7848
    7846    7844    7847    7847    7844    7848    7848    7853    7859
    7848    7853    7855    7848    7853    7854    7848    7850    7851
    7849    7848    7853    7850    7848    7853    7850    7848    7849
    7852    7850    7851    7852    7850    7848    7853    7859    7856
    7854    7853    7859    7854    7853    7855    7855    7853    7859
    7857    7856    7858    7859    7856    7858    7859    7856    7857
    7859    7856    7860    7860    7861    7864    7860    7861    7863
    7860    7861    7862    7860    7856    7858    7860    7856    7857
    7861    7864    7866    7861    7864    7872    7861    7864    7865
    7861    7860    7856    7862    7861    7864    7862    7861    7863
    7863    7861    7864    7864    7872    7875    7864    7872    7874
    7864    7872    7873    7864    7866    7867    7865    7864    7866
    7865    7864    7872    7866    7867    7868    7866    7867    7869
    7867    7869    7881    7867    7869    7871    7867    7869    7870
    7869    7881    7884    7869    7881    7883    7869    7881    7882
    7869    7867    7868    7870    7869    7881    7870    7869    7871
    7871    7869    7881    7872    7875    7876    7872    7864    7866
    7873    7872    7875    7873    7872    7874    7874    7872    7875
    7875    7876    7877    7875    7876    7878    7876    7878    7894
    7876    7878    7880    7876    7878    7879    7878    7894    7897
    7878    7894    7896    7878    7894    7895    7878    7876    7877
    7879    7878    7894    7879    7878    7880    7880    7878    7894
    7881    7884    7887    7881    7884    7886    7881    7884    7885
    7882    7881    7884    7882    7881    7883    7883    7881    7884
    7884    7887    7890    7884    7887    7889    7884    7887    7888
    7885    7884    7887    7885    7884    7886    7886    7884    7887
    7887    7890    7892    7887    7890    7891    7888    7887    7890
    7888    7887    7889    7889    7887    7890    7891    7890    7892
    7893    7890    7892    7893    7890    7891    7893    7890    7887
    7894    7897    7900    7894    7897    7899    7894    7897    7898
    7895    7894    7897    7895    7894    7896    7896    7894    7897
    7897    7900    7903    7897    7900    7902    7897    7900    7901
    7898    7897    7900    7898    7897    7899    7899    7897    7900
    7900    7903    7905    7900    7903    7904    7901    7900    7903
    7901    7900    7902    7902    7900    7903    7904    7903    7905
    7906    7903    7905    7906    7903    7904    7906    7903    7900
    7908    7907    7909    7911    7910    7912    7914    7913    7915
    7917    7916    7918    7920    7919    7921    7923    7922    7924
    7926    7925    7927    7929    7928    7930    7932    7931    7933
    7935    7934    7936    7938    7937    7939    7941    7940    7942
    7944    7943    7945    7947    7946    7948    7950    7949    7951
    7953    7952    7954    7956    7955    7957    7959    7958    7960
    7962    7961    7963    7965    7964    7966    7968    7967    7969
    7971    7970    7972    7974    7973    7975    7977    7976    7978
    7980    7979    7981    7983    7982    7984    7986    7985    7987
    7989    7988    7990    7992    7991    7993    7995    7994    7996
    7998    7997    7999    8001    8000    8002    8004    8003    8005
    8007    8006    8008    8010    8009    8011    8013    8012    8014
    8016    8015    8017    8019    8018    8020    8022    8021    8023
    8025    8024    8026    8028    8027    8029    8031    8030    8032
    8034    8033    8035    8037    8036    8038    8040    8039    8041
    8043    8042    8044    8046    8045    8047    8049    8048    8050
    8052    8051    8053    8055    8054    8056    8058    8057    8059
    8061    8060    8062    8064    8063    8065    8067    8066    8068
    8070    8069    8071    8073    8072    8074    8076    8075    8077
    8079    8078    8080    8082    8081    8083    8085    8084    8086
    8088    8087    8089    8091    8090    8092    8094    8093    8095
    8097    8096    8098    8100    8099    8101    8103    8102    8104
    8106    8105    8107    8109    8108    8110    8112    8111    8113
    8115    8114    8116    8118    8117    8119    8121    8120    8122
    8124    8123    8125    8127    8126    8128    8130    8129    8131
    8133    8132    8134    8136    8135    8137    8139    8138    8140
    8142    8141    8143    8145    8144    8146    8148    8147    8149
    8151    8150    8152    8154    8153    8155    8157    8156    8158
    8160    8159    8161    8163    8162    8164    8166    8165    8167
    8169    8168    8170    8172    8171    8173    8175    8174    8176
    8178    8177    8179    8181    8180    8182    8184    8183    8185
    8187    8186    8188    8190    8189    8191    8193    8192    8194
    8196    8195    8197    8199    8198    8200    8202    8201    8203
    8205    8204    8206    8208    8207    8209    8211    8210    8212
    8214    8213    8215    8217    8216    8218    8220    8219    8221
    8223    8222    8224    8226    8225    8227    8229    8228    8230
    8232    8231    8233    8235    8234    8236    8238    8237    8239
    8241    8240    8242    8244    8243    8245    8247    8246    8248
    8250    8249    8251    8253    8252    8254    8256    8255    8257
    8259    8258    8260    8262    8261    8263    8265    8264    8266
    8268    8267    8269    8271    8270    8272    8274    8273    8275
    8277    8276    8278    8280    8279    8281    8283    8282    8284
    8286    8285    8287    8289    8288    8290    8292    8291    8293
    8295    8294    8296    8298    8297    8299    8301    8300    8302
    8304    8303    8305    8307    8306    8308    8310    8309    8311
    8313    8312    8314    8316    8315    8317    8319    8318    8320
    8322    8321    8323    8325    8324    8326    8328    8327    8329
    8331    8330    8332    8334    8333    8335    8337    8336    8338
    8340    8339    8341    8343    8342    8344    8346    8345    8347
    8349    8348    8350    8352    8351    8353    8355    8354    8356
    8358    8357    8359    8361    8360    8362    8364    8363    8365
    8367    8366    8368    8370    8369    8371    8373    8372    8374
    8376    8375    8377    8379    8378    8380    8382    8381    8383
    8385    8384    8386    8388    8387    8389    8391    8390    8392
    8394    8393    8395    8397    8396    8398    8400    8399    8401
    8403    8402    8404    8406    8405    8407    8409    8408    8410
    8412    8411    8413    8415    8414    8416    8418    8417    8419
    8421    8420    8422    8424    8423    8425    8427    8426    8428
    8430    8429    8431    8433    8432    8434    8436    8435    8437
    8439    8438    8440    8442    8441    8443    8445    8444    8446
    8448    8447    8449    8451    8450    8452    8454    8453    8455
    8457    8456    8458    8460    8459    8461    8463    8462    8464
    8466    8465    8467    8469    8468    8470    8472    8471    8473
    8475    8474    8476    8478    8477    8479    8481    8480    8482
    8484    8483    8485    8487    8486    8488    8490    8489    8491
    8493    8492    8494    8496    8495    8497    8499    8498    8500
    8502    8501    8503    8505    8504    8506    8508    8507    8509
    8511    8510    8512    8514    8513    8515    8517    8516    8518
    8520    8519    8521    8523    8522    8524    8526    8525    8527
    8529    8528    8530    8532    8531    8533    8535    8534    8536
    8538    8537    8539    8541    8540    8542    8544    8543    8545
    8547    8546    8548    8550    8549    8551    8553    8552    8554
    8556    8555    8557    8559    8558    8560    8562    8561    8563
    8565    8564    8566    8568    8567    8569    8571    8570    8572
    8574    8573    8575    8577    8576    8578    8580    8579    8581
    8583    8582    8584    8586    8585    8587    8589    8588    8590
    8592    8591    8593    8595    8594    8596    8598    8597    8599
    8601    8600    8602    8604    8603    8605    8607    8606    8608
    8610    8609    8611    8613    8612    8614    8616    8615    8617
    8619    8618    8620    8622    8621    8623    8625    8624    8626
    8628    8627    8629    8631    8630    8632    8634    8633    8635
    8637    8636    8638    8640    8639    8641    8643    8642    8644
    8646    8645    8647    8649    8648    8650    8652    8651    8653
    8655    8654    8656    8658    8657    8659    8661    8660    8662
    8664    8663    8665    8667    8666    8668    8670    8669    8671
    8673    8672    8674    8676    8675    8677    8679    8678    8680
    8682    8681    8683    8685    8684    8686    8688    8687    8689
    8691    8690    8692    8694    8693    8695    8697    8696    8698
    8700    8699    8701    8703    8702    8704    8706    8705    8707
    8709    8708    8710    8712    8711    8713    8715    8714    8716
    8718    8717    8719    8721    8720    8722    8724    8723    8725
    8727    8726    8728    8730    8729    8731    8733    8732    8734
    8736    8735    8737    8739    8738    8740    8742    8741    8743
    8745    8744    8746    8748    8747    8749    8751    8750    8752
    8754    8753    8755    8757    8756    8758    8760    8759    8761
    8763    8762    8764    8766    8765    8767    8769    8768    8770
    8772    8771    8773    8775    8774    8776    8778    8777    8779
    8781    8780    8782    8784    8783    8785    8787    8786    8788
    8790    8789    8791    8793    8792    8794    8796    8795    8797
    8799    8798    8800    8802    8801    8803    8805    8804    8806
    8808    8807    8809    8811    8810    8812    8814    8813    8815
    8817    8816    8818    8820    8819    8821    8823    8822    8824
    8826    8825    8827    8829    8828    8830    8832    8831    8833
    8835    8834    8836    8838    8837    8839    8841    8840    8842
    8844    8843    8845    8847    8846    8848    8850    8849    8851
    8853    8852    8854    8856    8855    8857    8859    8858    8860
    8862    8861    8863    8865    8864    8866    8868    8867    8869
    8871    8870    8872    8874    8873    8875    8877    8876    8878
    8880    8879    8881    8883    8882    8884    8886    8885    8887
    8889    8888    8890    8892    8891    8893    8895    8894    8896
    8898    8897    8899    8901    8900    8902    8904    8903    8905
    8907    8906    8908    8910    8909    8911    8913    8912    8914
    8916    8915    8917    8919    8918    8920    8922    8921    8923
    8925    8924    8926    8928    8927    8929    8931    8930    8932
    8934    8933    8935    8937    8936    8938    8940    8939    8941
    8943    8942    8944    8946    8945    8947    8949    8948    8950
    8952    8951    8953    8955    8954    8956    8958    8957    8959
    8961    8960    8962    8964    8963    8965    8967    8966    8968
    8970    8969    8971    8973    8972    8974    8976    8975    8977
    8979    8978    8980    8982    8981    8983    8985    8984    8986
    8988    8987    8989    8991    8990    8992    8994    8993    8995
    8997    8996    8998    9000    8999    9001    9003    9002    9004
    9006    9005    9007    9009    9008    9010    9012    9011    9013
    9015    9014    9016    9018    9017    9019    9021    9020    9022
    9024    9023    9025    9027    9026    9028    9030    9029    9031
    9033    9032    9034    9036    9035    9037    9039    9038    9040
    9042    9041    9043    9045    9044    9046    9048    9047    9049
    9051    9050    9052    9054    9053    9055    9057    9056    9058
    9060    9059    9061    9063    9062    9064    9066    9065    9067
    9069    9068    9070    9072    9071    9073    9075    9074    9076
    9078    9077    9079    9081    9080    9082    9084    9083    9085
    9087    9086    9088    9090    9089    9091    9093    9092    9094
    9096    9095    9097    9099    9098    9100    9102    9101    9103
    9105    9104    9106    9108    9107    9109    9111    9110    9112
    9114    9113    9115    9117    9116    9118    9120    9119    9121
    9123    9122    9124    9126    9125    9127    9129    9128    9130
    9132    9131    9133    9135    9134    9136    9138    9137    9139
    9141    9140    9142    9144    9143    9145    9147    9146    9148
    9150    9149    9151    9153    9152    9154    9156    9155    9157
    9159    9158    9160    9162    9161    9163    9165    9164    9166
    9168    9167    9169    9171    9170    9172    9174    9173    9175
    9177    9176    9178    9180    9179    9181    9183    9182    9184
    9186    9185    9187    9189    9188    9190    9192    9191    9193
    9195    9194    9196    9198    9197    9199    9201    9200    9202
    9204    9203    9205    9207    9206    9208    9210    9209    9211
    9213    9212    9214    9216    9215    9217    9219    9218    9220
    9222    9221    9223    9225    9224    9226    9228    9227    9229
    9231    9230    9232    9234    9233    9235    9237    9236    9238
    9240    9239    9241    9243    9242    9244    9246    9245    9247
    9249    9248    9250    9252    9251    9253    9255    9254    9256
    9258    9257    9259    9261    9260    9262    9264    9263    9265
    9267    9266    9268    9270    9269    9271    9273    9272    9274
    9276    9275    9277    9279    9278    9280    9282    9281    9283
    9285    9284    9286    9288    9287    9289    9291    9290    9292
    9294    9293    9295    9297    9296    9298    9300    9299    9301
    9303    9302    9304    9306    9305    9307    9309    9308    9310
    9312    9311    9313    9315    9314    9316    9318    9317    9319
    9321    9320    9322    9324    9323    9325    9327    9326    9328
    9330    9329    9331    9333    9332    9334    9336    9335    9337
    9339    9338    9340    9342    9341    9343    9345    9344    9346
    9348    9347    9349    9351    9350    9352    9354    9353    9355
    9357    9356    9358    9360    9359    9361    9363    9362    9364
    9366    9365    9367    9369    9368    9370    9372    9371    9373
    9375    9374    9376    9378    9377    9379    9381    9380    9382
    9384    9383    9385    9387    9386    9388    9390    9389    9391
    9393    9392    9394    9396    9395    9397    9399    9398    9400
    9402    9401    9403    9405    9404    9406    9408    9407    9409
    9411    9410    9412    9414    9413    9415    9417    9416    9418
    9420    9419    9421    9423    9422    9424    9426    9425    9427
    9429    9428    9430    9432    9431    9433    9435    9434    9436
    9438    9437    9439    9441    9440    9442    9444    9443    9445
    9447    9446    9448    9450    9449    9451    9453    9452    9454
    9456    9455    9457    9459    9458    9460    9462    9461    9463
    9465    9464    9466    9468    9467    9469    9471    9470    9472
    9474    9473    9475    9477    9476    9478    9480    9479    9481
    9483    9482    9484    9486    9485    9487    9489    9488    9490
    9492    9491    9493    9495    9494    9496    9498    9497    9499
    9501    9500    9502    9504    9503    9505    9507    9506    9508
    9510    9509    9511    9513    9512    9514    9516    9515    9517
    9519    9518    9520    9522    9521    9523    9525    9524    9526
    9528    9527    9529    9531    9530    9532    9534    9533    9535
    9537    9536    9538    9540    9539    9541    9543    9542    9544
    9546    9545    9547    9549    9548    9550    9552    9551    9553
    9555    9554    9556    9558    9557    9559    9561    9560    9562
    9564    9563    9565    9567    9566    9568    9570    9569    9571
    9573    9572    9574    9576    9575    9577    9579    9578    9580
    9582    9581    9583    9585    9584    9586    9588    9587    9589
    9591    9590    9592    9594    9593    9595    9597    9596    9598
    9600    9599    9601    9603    9602    9604    9606    9605    9607
    9609    9608    9610    9612    9611    9613    9615    9614    9616
    9618    9617    9619    9621    9620    9622    9624    9623    9625
    9627    9626    9628    9630    9629    9631    9633    9632    9634
    9636    9635    9637    9639    9638    9640    9642    9641    9643
    9645    9644    9646    9648    9647    9649    9651    9650    9652
    9654    9653    9655    9657    9656    9658    9660    9659    9661
    9663    9662    9664    9666    9665    9667    9669    9668    9670
    9672    9671    9673    9675    9674    9676    9678    9677    9679
    9681    9680    9682    9684    9683    9685    9687    9686    9688
    9690    9689    9691    9693    9692    9694    9696    9695    9697
    9699    9698    9700    9702    9701    9703    9705    9704    9706
    9708    9707    9709    9711    9710    9712    9714    9713    9715
    9717    9716    9718    9720    9719    9721    9723    9722    9724
    9726    9725    9727    9729    9728    9730    9732    9731    9733
    9735    9734    9736    9738    9737    9739    9741    9740    9742
    9744    9743    9745    9747    9746    9748    9750    9749    9751
    9753    9752    9754    9756    9755    9757    9759    9758    9760
    9762    9761    9763    9765    9764    9766    9768    9767    9769
    9771    9770    9772    9774    9773    9775    9777    9776    9778
    9780    9779    9781    9783    9782    9784    9786    9785    9787
    9789    9788    9790    9792    9791    9793    9795    9794    9796
    9798    9797    9799    9801    9800    9802    9804    9803    9805
    9807    9806    9808    9810    9809    9811    9813    9812    9814
    9816    9815    9817    9819    9818    9820    9822    9821    9823
    9825    9824    9826    9828    9827    9829    9831    9830    9832
    9834    9833    9835    9837    9836    9838    9840    9839    9841
    9843    9842    9844    9846    9845    9847    9849    9848    9850
    9852    9851    9853    9855    9854    9856    9858    9857    9859
    9861    9860    9862    9864    9863    9865    9867    9866    9868
    9870    9869    9871    9873    9872    9874    9876    9875    9877
    9879    9878    9880    9882    9881    9883    9885    9884    9886
    9888    9887    9889    9891    9890    9892    9894    9893    9895
    9897    9896    9898    9900    9899    9901    9903    9902    9904
    9906    9905    9907    9909    9908    9910    9912    9911    9913
    9915    9914    9916    9918    9917    9919    9921    9920    9922
    9924    9923    9925    9927    9926    9928    9930    9929    9931
    9933    9932    9934    9936    9935    9937    9939    9938    9940
    9942    9941    9943    9945    9944    9946    9948    9947    9949
    9951    9950    9952    9954    9953    9955    9957    9956    9958
    9960    9959    9961    9963    9962    9964    9966    9965    9967
    9969    9968    9970    9972    9971    9973    9975    9974    9976
    9978    9977    9979    9981    9980    9982    9984    9983    9985
    9987    9986    9988    9990    9989    9991    9993    9992    9994
    9996    9995    9997    9999    9998   10000   10002   10001   10003
   10005   10004   10006   10008   10007   10009   10011   10010   10012
   10014   10013   10015   10017   10016   10018   10020   10019   10021
   10023   10022   10024   10026   10025   10027   10029   10028   10030
   10032   10031   10033   10035   10034   10036   10038   10037   10039
   10041   10040   10042   10044   10043   10045   10047   10046   10048
   10050   10049   10051   10053   10052   10054   10056   10055   10057
   10059   10058   10060   10062   10061   10063   10065   10064   10066
   10068   10067   10069   10071   10070   10072   10074   10073   10075
   10077   10076   10078   10080   10079   10081   10083   10082   10084
   10086   10085   10087   10089   10088   10090   10092   10091   10093
   10095   10094   10096   10098   10097   10099   10101   10100   10102
   10104   10103   10105   10107   10106   10108   10110   10109   10111
   10113   10112   10114   10116   10115   10117   10119   10118   10120
   10122   10121   10123   10125   10124   10126   10128   10127   10129
   10131   10130   10132   10134   10133   10135   10137   10136   10138
   10140   10139   10141   10143   10142   10144   10146   10145   10147
   10149   10148   10150   10152   10151   10153   10155   10154   10156
   10158   10157   10159   10161   10160   10162   10164   10163   10165
   10167   10166   10168   10170   10169   10171   10173   10172   10174
   10176   10175   10177   10179   10178   10180   10182   10181   10183
   10185   10184   10186   10188   10187   10189   10191   10190   10192
   10194   10193   10195   10197   10196   10198   10200   10199   10201
   10203   10202   10204   10206   10205   10207   10209   10208   10210
   10212   10211   10213   10215   10214   10216   10218   10217   10219
   10221   10220   10222   10224   10223   10225   10227   10226   10228
   10230   10229   10231   10233   10232   10234   10236   10235   10237
   10239   10238   10240   10242   10241   10243   10245   10244   10246
   10248   10247   10249   10251   10250   10252   10254   10253   10255
   10257   10256   10258   10260   10259   10261   10263   10262   10264
   10266   10265   10267   10269   10268   10270   10272   10271   10273
   10275   10274   10276   10278   10277   10279   10281   10280   10282
   10284   10283   10285   10287   10286   10288   10290   10289   10291
   10293   10292   10294   10296   10295   10297   10299   10298   10300
   10302   10301   10303   10305   10304   10306   10308   10307   10309
   10311   10310   10312   10314   10313   10315   10317   10316   10318
   10320   10319   10321   10323   10322   10324   10326   10325   10327
   10329   10328   10330   10332   10331   10333   10335   10334   10336
   10338   10337   10339   10341   10340   10342   10344   10343   10345
   10347   10346   10348   10350   10349   10351   10353   10352   10354
   10356   10355   10357   10359   10358   10360   10362   10361   10363
   10365   10364   10366   10368   10367   10369   10371   10370   10372
   10374   10373   10375   10377   10376   10378   10380   10379   10381
   10383   10382   10384   10386   10385   10387   10389   10388   10390
   10392   10391   10393   10395   10394   10396   10398   10397   10399
   10401   10400   10402   10404   10403   10405   10407   10406   10408
   10410   10409   10411   10413   10412   10414   10416   10415   10417
   10419   10418   10420   10422   10421   10423   10425   10424   10426
   10428   10427   10429   10431   10430   10432   10434   10433   10435
   10437   10436   10438   10440   10439   10441   10443   10442   10444
   10446   10445   10447   10449   10448   10450   10452   10451   10453
   10455   10454   10456   10458   10457   10459   10461   10460   10462
   10464   10463   10465   10467   10466   10468   10470   10469   10471
   10473   10472   10474   10476   10475   10477   10479   10478   10480
   10482   10481   10483   10485   10484   10486   10488   10487   10489
   10491   10490   10492   10494   10493   10495   10497   10496   10498
   10500   10499   10501   10503   10502   10504   10506   10505   10507
   10509   10508   10510   10512   10511   10513   10515   10514   10516
   10518   10517   10519   10521   10520   10522   10524   10523   10525
   10527   10526   10528   10530   10529   10531   10533   10532   10534
   10536   10535   10537   10539   10538   10540   10542   10541   10543
   10545   10544   10546   10548   10547   10549   10551   10550   10552
   10554   10553   10555   10557   10556   10558   10560   10559   10561
   10563   10562   10564   10566   10565   10567   10569   10568   10570
   10572   10571   10573   10575   10574   10576   10578   10577   10579
   10581   10580   10582   10584   10583   10585   10587   10586   10588
   10590   10589   10591   10593   10592   10594   10596   10595   10597
   10599   10598   10600   10602   10601   10603   10605   10604   10606
   10608   10607   10609   10611   10610   10612   10614   10613   10615
   10617   10616   10618   10620   10619   10621   10623   10622   10624
   10626   10625   10627   10629   10628   10630   10632   10631   10633
   10635   10634   10636   10638   10637   10639   10641   10640   10642
   10644   10643   10645   10647   10646   10648   10650   10649   10651
   10653   10652   10654   10656   10655   10657   10659   10658   10660
   10662   10661   10663   10665   10664   10666   10668   10667   10669
   10671   10670   10672   10674   10673   10675   10677   10676   10678
   10680   10679   10681   10683   10682   10684   10686   10685   10687
   10689   10688   10690   10692   10691   10693   10695   10694   10696
   10698   10697   10699   10701   10700   10702   10704   10703   10705
   10707   10706   10708   10710   10709   10711   10713   10712   10714
   10716   10715   10717   10719   10718   10720   10722   10721   10723
   10725   10724   10726   10728   10727   10729   10731   10730   10732
   10734   10733   10735   10737   10736   10738   10740   10739   10741
   10743   10742   10744   10746   10745   10747   10749   10748   10750
   10752   10751   10753   10755   10754   10756   10758   10757   10759
   10761   10760   10762   10764   10763   10765   10767   10766   10768
   10770   10769   10771   10773   10772   10774   10776   10775   10777
   10779   10778   10780   10782   10781   10783   10785   10784   10786
   10788   10787   10789   10791   10790   10792   10794   10793   10795
   10797   10796   10798   10800   10799   10801   10803   10802   10804
   10806   10805   10807   10809   10808   10810   10812   10811   10813
   10815   10814   10816   10818   10817   10819   10821   10820   10822
   10824   10823   10825   10827   10826   10828   10830   10829   10831
   10833   10832   10834   10836   10835   10837   10839   10838   10840
   10842   10841   10843   10845   10844   10846   10848   10847   10849
   10851   10850   10852   10854   10853   10855   10857   10856   10858
   10860   10859   10861   10863   10862   10864   10866   10865   10867
   10869   10868   10870   10872   10871   10873   10875   10874   10876
   10878   10877   10879   10881   10880   10882   10884   10883   10885
   10887   10886   10888   10890   10889   10891   10893   10892   10894
   10896   10895   10897   10899   10898   10900   10902   10901   10903
   10905   10904   10906   10908   10907   10909   10911   10910   10912
   10914   10913   10915   10917   10916   10918   10920   10919   10921
   10923   10922   10924   10926   10925   10927   10929   10928   10930
   10932   10931   10933   10935   10934   10936   10938   10937   10939
   10941   10940   10942   10944   10943   10945   10947   10946   10948
   10950   10949   10951   10953   10952   10954   10956   10955   10957
   10959   10958   10960   10962   10961   10963   10965   10964   10966
   10968   10967   10969   10971   10970   10972   10974   10973   10975
   10977   10976   10978   10980   10979   10981   10983   10982   10984
   10986   10985   10987   10989   10988   10990   10992   10991   10993
   10995   10994   10996   10998   10997   10999   11001   11000   11002
   11004   11003   11005   11007   11006   11008   11010   11009   11011
   11013   11012   11014   11016   11015   11017   11019   11018   11020
   11022   11021   11023   11025   11024   11026   11028   11027   11029
   11031   11030   11032   11034   11033   11035   11037   11036   11038
   11040   11039   11041   11043   11042   11044   11046   11045   11047
   11049   11048   11050   11052   11051   11053   11055   11054   11056
   11058   11057   11059   11061   11060   11062   11064   11063   11065
   11067   11066   11068   11070   11069   11071   11073   11072   11074
   11076   11075   11077   11079   11078   11080   11082   11081   11083
   11085   11084   11086   11088   11087   11089   11091   11090   11092
   11094   11093   11095   11097   11096   11098   11100   11099   11101
   11103   11102   11104   11106   11105   11107   11109   11108   11110
   11112   11111   11113   11115   11114   11116   11118   11117   11119
   11121   11120   11122   11124   11123   11125   11127   11126   11128
   11130   11129   11131   11133   11132   11134   11136   11135   11137
   11139   11138   11140   11142   11141   11143   11145   11144   11146
   11148   11147   11149   11151   11150   11152   11154   11153   11155
   11157   11156   11158   11160   11159   11161   11163   11162   11164
   11166   11165   11167   11169   11168   11170   11172   11171   11173
   11175   11174   11176   11178   11177   11179   11181   11180   11182
   11184   11183   11185   11187   11186   11188   11190   11189   11191
   11193   11192   11194   11196   11195   11197   11199   11198   11200
   11202   11201   11203   11205   11204   11206   11208   11207   11209
   11211   11210   11212   11214   11213   11215   11217   11216   11218
   11220   11219   11221   11223   11222   11224   11226   11225   11227
   11229   11228   11230   11232   11231   11233   11235   11234   11236
   11238   11237   11239   11241   11240   11242   11244   11243   11245
   11247   11246   11248   11250   11249   11251   11253   11252   11254
   11256   11255   11257   11259   11258   11260   11262   11261   11263
   11265   11264   11266   11268   11267   11269   11271   11270   11272
   11274   11273   11275   11277   11276   11278   11280   11279   11281
   11283   11282   11284   11286   11285   11287   11289   11288   11290
   11292   11291   11293   11295   11294   11296   11298   11297   11299
   11301   11300   11302   11304   11303   11305   11307   11306   11308
   11310   11309   11311   11313   11312   11314   11316   11315   11317
   11319   11318   11320   11322   11321   11323   11325   11324   11326
   11328   11327   11329   11331   11330   11332   11334   11333   11335
   11337   11336   11338   11340   11339   11341   11343   11342   11344
   11346   11345   11347   11349   11348   11350   11352   11351   11353
   11355   11354   11356   11358   11357   11359   11361   11360   11362
   11364   11363   11365   11367   11366   11368   11370   11369   11371
   11373   11372   11374   11376   11375   11377   11379   11378   11380
   11382   11381   11383   11385   11384   11386   11388   11387   11389
   11391   11390   11392   11394   11393   11395   11397   11396   11398
   11400   11399   11401   11403   11402   11404   11406   11405   11407
   11409   11408   11410   11412   11411   11413   11415   11414   11416
   11418   11417   11419   11421   11420   11422   11424   11423   11425
   11427   11426   11428   11430   11429   11431   11433   11432   11434
   11436   11435   11437   11439   11438   11440   11442   11441   11443
   11445   11444   11446   11448   11447   11449   11451   11450   11452
   11454   11453   11455   11457   11456   11458   11460   11459   11461
   11463   11462   11464   11466   11465   11467   11469   11468   11470
   11472   11471   11473   11475   11474   11476   11478   11477   11479
   11481   11480   11482   11484   11483   11485   11487   11486   11488
   11490   11489   11491   11493   11492   11494   11496   11495   11497
   11499   11498   11500   11502   11501   11503   11505   11504   11506
   11508   11507   11509   11511   11510   11512   11514   11513   11515
   11517   11516   11518   11520   11519   11521   11523   11522   11524
   11526   11525   11527   11529   11528   11530   11532   11531   11533
   11535   11534   11536   11538   11537   11539   11541   11540   11542
   11544   11543   11545   11547   11546   11548   11550   11549   11551
   11553   11552   11554   11556   11555   11557   11559   11558   11560
   11562   11561   11563   11565   11564   11566   11568   11567   11569
   11571   11570   11572   11574   11573   11575   11577   11576   11578
   11580   11579   11581   11583   11582   11584   11586   11585   11587
   11589   11588   11590   11592   11591   11593   11595   11594   11596
   11598   11597   11599   11601   11600   11602   11604   11603   11605
   11607   11606   11608   11610   11609   11611   11613   11612   11614
   11616   11615   11617   11619   11618   11620   11622   11621   11623
   11625   11624   11626   11628   11627   11629   11631   11630   11632
   11634   11633   11635   11637   11636   11638   11640   11639   11641
   11643   11642   11644   11646   11645   11647   11649   11648   11650
   11652   11651   11653   11655   11654   11656   11658   11657   11659
   11661   11660   11662   11664   11663   11665   11667   11666   11668
   11670   11669   11671   11673   11672   11674   11676   11675   11677
   11679   11678   11680   11682   11681   11683   11685   11684   11686
   11688   11687   11689   11691   11690   11692   11694   11693   11695
   11697   11696   11698   11700   11699   11701   11703   11702   11704
   11706   11705   11707   11709   11708   11710   11712   11711   11713
   11715   11714   11716   11718   11717   11719   11721   11720   11722
   11724   11723   11725   11727   11726   11728   11730   11729   11731
   11733   11732   11734   11736   11735   11737   11739   11738   11740
   11742   11741   11743   11745   11744   11746   11748   11747   11749
   11751   11750   11752   11754   11753   11755   11757   11756   11758
   11760   11759   11761   11763   11762   11764   11766   11765   11767
   11769   11768   11770   11772   11771   11773   11775   11774   11776
   11778   11777   11779   11781   11780   11782   11784   11783   11785
   11787   11786   11788   11790   11789   11791   11793   11792   11794
   11796   11795   11797   11799   11798   11800   11802   11801   11803
   11805   11804   11806   11808   11807   11809   11811   11810   11812
   11814   11813   11815   11817   11816   11818   11820   11819   11821
   11823   11822   11824   11826   11825   11827   11829   11828   11830
   11832   11831   11833   11835   11834   11836   11838   11837   11839
   11841   11840   11842   11844   11843   11845   11847   11846   11848
   11850   11849   11851   11853   11852   11854   11856   11855   11857
   11859   11858   11860   11862   11861   11863   11865   11864   11866
   11868   11867   11869   11871   11870   11872   11874   11873   11875
   11877   11876   11878   11880   11879   11881   11883   11882   11884
   11886   11885   11887   11889   11888   11890   11892   11891   11893
   11895   11894   11896   11898   11897   11899   11901   11900   11902
   11904   11903   11905   11907   11906   11908   11910   11909   11911
   11913   11912   11914   11916   11915   11917   11919   11918   11920
   11922   11921   11923   11925   11924   11926   11928   11927   11929
   11931   11930   11932   11934   11933   11935   11937   11936   11938
   11940   11939   11941   11943   11942   11944   11946   11945   11947
   11949   11948   11950   11952   11951   11953   11955   11954   11956
   11958   11957   11959   11961   11960   11962   11964   11963   11965
   11967   11966   11968   11970   11969   11971   11973   11972   11974
   11976   11975   11977   11979   11978   11980   11982   11981   11983
   11985   11984   11986   11988   11987   11989   11991   11990   11992
   11994   11993   11995   11997   11996   11998   12000   11999   12001
   12003   12002   12004   12006   12005   12007   12009   12008   12010
   12012   12011   12013   12015   12014   12016   12018   12017   12019
   12021   12020   12022   12024   12023   12025   12027   12026   12028
   12030   12029   12031   12033   12032   12034   12036   12035   12037
   12039   12038   12040   12042   12041   12043   12045   12044   12046
   12048   12047   12049   12051   12050   12052   12054   12053   12055
   12057   12056   12058   12060   12059   12061   12063   12062   12064
   12066   12065   12067   12069   12068   12070   12072   12071   12073
   12075   12074   12076   12078   12077   12079   12081   12080   12082
   12084   12083   12085   12087   12086   12088   12090   12089   12091
   12093   12092   12094   12096   12095   12097   12099   12098   12100
   12102   12101   12103   12105   12104   12106   12108   12107   12109
   12111   12110   12112   12114   12113   12115   12117   12116   12118
   12120   12119   12121   12123   12122   12124   12126   12125   12127
   12129   12128   12130   12132   12131   12133   12135   12134   12136
   12138   12137   12139   12141   12140   12142   12144   12143   12145
   12147   12146   12148   12150   12149   12151   12153   12152   12154
   12156   12155   12157   12159   12158   12160   12162   12161   12163
   12165   12164   12166   12168   12167   12169   12171   12170   12172
   12174   12173   12175   12177   12176   12178   12180   12179   12181
   12183   12182   12184   12186   12185   12187   12189   12188   12190
   12192   12191   12193   12195   12194   12196   12198   12197   12199
   12201   12200   12202   12204   12203   12205   12207   12206   12208
   12210   12209   12211   12213   12212   12214   12216   12215   12217
   12219   12218   12220   12222   12221   12223   12225   12224   12226
   12228   12227   12229   12231   12230   12232   12234   12233   12235
   12237   12236   12238   12240   12239   12241   12243   12242   12244
   12246   12245   12247   12249   12248   12250   12252   12251   12253
   12255   12254   12256   12258   12257   12259   12261   12260   12262
   12264   12263   12265   12267   12266   12268   12270   12269   12271
   12273   12272   12274   12276   12275   12277   12279   12278   12280
   12282   12281   12283   12285   12284   12286   12288   12287   12289
   12291   12290   12292   12294   12293   12295   12297   12296   12298
   12300   12299   12301   12303   12302   12304   12306   12305   12307
   12309   12308   12310   12312   12311   12313   12315   12314   12316
   12318   12317   12319   12321   12320   12322   12324   12323   12325
   12327   12326   12328   12330   12329   12331   12333   12332   12334
   12336   12335   12337   12339   12338   12340   12342   12341   12343
   12345   12344   12346   12348   12347   12349   12351   12350   12352
   12354   12353   12355   12357   12356   12358   12360   12359   12361
   12363   12362   12364   12366   12365   12367   12369   12368   12370
   12372   12371   12373   12375   12374   12376   12378   12377   12379
   12381   12380   12382   12384   12383   12385   12387   12386   12388
   12390   12389   12391   12393   12392   12394   12396   12395   12397
   12399   12398   12400   12402   12401   12403   12405   12404   12406
   12408   12407   12409   12411   12410   12412   12414   12413   12415
   12417   12416   12418   12420   12419   12421   12423   12422   12424
   12426   12425   12427   12429   12428   12430   12432   12431   12433
   12435   12434   12436   12438   12437   12439   12441   12440   12442
   12444   12443   12445   12447   12446   12448   12450   12449   12451
   12453   12452   12454   12456   12455   12457   12459   12458   12460
   12462   12461   12463   12465   12464   12466   12468   12467   12469
   12471   12470   12472   12474   12473   12475   12477   12476   12478
   12480   12479   12481   12483   12482   12484   12486   12485   12487
   12489   12488   12490   12492   12491   12493   12495   12494   12496
   12498   12497   12499   12501   12500   12502   12504   12503   12505
   12507   12506   12508   12510   12509   12511   12513   12512   12514
   12516   12515   12517   12519   12518   12520   12522   12521   12523
   12525   12524   12526   12528   12527   12529   12531   12530   12532
   12534   12533   12535   12537   12536   12538   12540   12539   12541
   12543   12542   12544   12546   12545   12547   12549   12548   12550
   12552   12551   12553   12555   12554   12556   12558   12557   12559
   12561   12560   12562   12564   12563   12565   12567   12566   12568
   12570   12569   12571   12573   12572   12574   12576   12575   12577
   12579   12578   12580   12582   12581   12583   12585   12584   12586
   12588   12587   12589   12591   12590   12592   12594   12593   12595
   12597   12596   12598   12600   12599   12601   12603   12602   12604
   12606   12605   12607   12609   12608   12610   12612   12611   12613
   12615   12614   12616   12618   12617   12619   12621   12620   12622
   12624   12623   12625   12627   12626   12628   12630   12629   12631
   12633   12632   12634   12636   12635   12637   12639   12638   12640
   12642   12641   12643   12645   12644   12646   12648   12647   12649
   12651   12650   12652   12654   12653   12655   12657   12656   12658
   12660   12659   12661   12663   12662   12664   12666   12665   12667
   12669   12668   12670   12672   12671   12673   12675   12674   12676
   12678   12677   12679   12681   12680   12682   12684   12683   12685
   12687   12686   12688   12690   12689   12691   12693   12692   12694
   12696   12695   12697   12699   12698   12700   12702   12701   12703
   12705   12704   12706   12708   12707   12709   12711   12710   12712
   12714   12713   12715   12717   12716   12718   12720   12719   12721
   12723   12722   12724   12726   12725   12727   12729   12728   12730
   12732   12731   12733   12735   12734   12736   12738   12737   12739
   12741   12740   12742   12744   12743   12745   12747   12746   12748
   12750   12749   12751   12753   12752   12754   12756   12755   12757
   12759   12758   12760   12762   12761   12763   12765   12764   12766
   12768   12767   12769   12771   12770   12772   12774   12773   12775
   12777   12776   12778   12780   12779   12781   12783   12782   12784
   12786   12785   12787   12789   12788   12790   12792   12791   12793
   12795   12794   12796   12798   12797   12799   12801   12800   12802
   12804   12803   12805   12807   12806   12808   12810   12809   12811
   12813   12812   12814   12816   12815   12817   12819   12818   12820
   12822   12821   12823   12825   12824   12826   12828   12827   12829
   12831   12830   12832   12834   12833   12835   12837   12836   12838
   12840   12839   12841   12843   12842   12844   12846   12845   12847
   12849   12848   12850   12852   12851   12853   12855   12854   12856
   12858   12857   12859   12861   12860   12862   12864   12863   12865
   12867   12866   12868   12870   12869   12871   12873   12872   12874
   12876   12875   12877   12879   12878   12880   12882   12881   12883
   12885   12884   12886   12888   12887   12889   12891   12890   12892
   12894   12893   12895   12897   12896   12898   12900   12899   12901
   12903   12902   12904   12906   12905   12907   12909   12908   12910
   12912   12911   12913   12915   12914   12916   12918   12917   12919
   12921   12920   12922   12924   12923   12925   12927   12926   12928
   12930   12929   12931   12933   12932   12934   12936   12935   12937
   12939   12938   12940   12942   12941   12943   12945   12944   12946
   12948   12947   12949   12951   12950   12952   12954   12953   12955
   12957   12956   12958   12960   12959   12961   12963   12962   12964
   12966   12965   12967   12969   12968   12970   12972   12971   12973
   12975   12974   12976   12978   12977   12979   12981   12980   12982
   12984   12983   12985   12987   12986   12988   12990   12989   12991
   12993   12992   12994   12996   12995   12997   12999   12998   13000
   13002   13001   13003   13005   13004   13006   13008   13007   13009
   13011   13010   13012   13014   13013   13015   13017   13016   13018
   13020   13019   13021   13023   13022   13024   13026   13025   13027
   13029   13028   13030   13032   13031   13033   13035   13034   13036
   13038   13037   13039   13041   13040   13042   13044   13043   13045
   13047   13046   13048   13050   13049   13051   13053   13052   13054
   13056   13055   13057   13059   13058   13060   13062   13061   13063
   13065   13064   13066   13068   13067   13069   13071   13070   13072
   13074   13073   13075   13077   13076   13078   13080   13079   13081
   13083   13082   13084   13086   13085   13087   13089   13088   13090
   13092   13091   13093   13095   13094   13096   13098   13097   13099
   13101   13100   13102   13104   13103   13105   13107   13106   13108
   13110   13109   13111   13113   13112   13114   13116   13115   13117
   13119   13118   13120   13122   13121   13123   13125   13124   13126
   13128   13127   13129   13131   13130   13132   13134   13133   13135
   13137   13136   13138   13140   13139   13141   13143   13142   13144
   13146   13145   13147   13149   13148   13150   13152   13151   13153
   13155   13154   13156   13158   13157   13159   13161   13160   13162
   13164   13163   13165   13167   13166   13168   13170   13169   13171
   13173   13172   13174   13176   13175   13177   13179   13178   13180
   13182   13181   13183   13185   13184   13186   13188   13187   13189
   13191   13190   13192   13194   13193   13195   13197   13196   13198
   13200   13199   13201   13203   13202   13204   13206   13205   13207
   13209   13208   13210   13212   13211   13213   13215   13214   13216
   13218   13217   13219   13221   13220   13222   13224   13223   13225
   13227   13226   13228   13230   13229   13231   13233   13232   13234
   13236   13235   13237   13239   13238   13240   13242   13241   13243
   13245   13244   13246   13248   13247   13249   13251   13250   13252
   13254   13253   13255   13257   13256   13258   13260   13259   13261
   13263   13262   13264   13266   13265   13267   13269   13268   13270
   13272   13271   13273   13275   13274   13276   13278   13277   13279
   13281   13280   13282   13284   13283   13285   13287   13286   13288
   13290   13289   13291   13293   13292   13294   13296   13295   13297
   13299   13298   13300   13302   13301   13303   13305   13304   13306
   13308   13307   13309   13311   13310   13312   13314   13313   13315
   13317   13316   13318   13320   13319   13321   13323   13322   13324
   13326   13325   13327   13329   13328   13330   13332   13331   13333
   13335   13334   13336   13338   13337   13339   13341   13340   13342
   13344   13343   13345   13347   13346   13348   13350   13349   13351
   13353   13352   13354   13356   13355   13357   13359   13358   13360
   13362   13361   13363   13365   13364   13366   13368   13367   13369
   13371   13370   13372   13374   13373   13375   13377   13376   13378
   13380   13379   13381   13383   13382   13384   13386   13385   13387
   13389   13388   13390   13392   13391   13393   13395   13394   13396
   13398   13397   13399   13401   13400   13402   13404   13403   13405
   13407   13406   13408   13410   13409   13411   13413   13412   13414
   13416   13415   13417   13419   13418   13420   13422   13421   13423
   13425   13424   13426   13428   13427   13429   13431   13430   13432
   13434   13433   13435   13437   13436   13438   13440   13439   13441
   13443   13442   13444   13446   13445   13447   13449   13448   13450
   13452   13451   13453   13455   13454   13456   13458   13457   13459
   13461   13460   13462   13464   13463   13465   13467   13466   13468
   13470   13469   13471   13473   13472   13474   13476   13475   13477
   13479   13478   13480   13482   13481   13483   13485   13484   13486
   13488   13487   13489   13491   13490   13492   13494   13493   13495
   13497   13496   13498   13500   13499   13501   13503   13502   13504
   13506   13505   13507   13509   13508   13510   13512   13511   13513
   13515   13514   13516   13518   13517   13519   13521   13520   13522
   13524   13523   13525   13527   13526   13528   13530   13529   13531
   13533   13532   13534   13536   13535   13537   13539   13538   13540
   13542   13541   13543   13545   13544   13546   13548   13547   13549
   13551   13550   13552   13554   13553   13555   13557   13556   13558
   13560   13559   13561   13563   13562   13564   13566   13565   13567
   13569   13568   13570   13572   13571   13573   13575   13574   13576
   13578   13577   13579   13581   13580   13582   13584   13583   13585
   13587   13586   13588   13590   13589   13591   13593   13592   13594
   13596   13595   13597   13599   13598   13600   13602   13601   13603
   13605   13604   13606   13608   13607   13609   13611   13610   13612
   13614   13613   13615   13617   13616   13618   13620   13619   13621
   13623   13622   13624   13626   13625   13627   13629   13628   13630
   13632   13631   13633   13635   13634   13636   13638   13637   13639
   13641   13640   13642   13644   13643   13645   13647   13646   13648
   13650   13649   13651   13653   13652   13654   13656   13655   13657
   13659   13658   13660   13662   13661   13663   13665   13664   13666
   13668   13667   13669   13671   13670   13672   13674   13673   13675
   13677   13676   13678   13680   13679   13681   13683   13682   13684
   13686   13685   13687   13689   13688   13690   13692   13691   13693
   13695   13694   13696   13698   13697   13699   13701   13700   13702
   13704   13703   13705   13707   13706   13708   13710   13709   13711
   13713   13712   13714   13716   13715   13717   13719   13718   13720
   13722   13721   13723   13725   13724   13726   13728   13727   13729
   13731   13730   13732   13734   13733   13735   13737   13736   13738
   13740   13739   13741   13743   13742   13744   13746   13745   13747
   13749   13748   13750   13752   13751   13753   13755   13754   13756
   13758   13757   13759   13761   13760   13762   13764   13763   13765
   13767   13766   13768   13770   13769   13771   13773   13772   13774
   13776   13775   13777   13779   13778   13780   13782   13781   13783
   13785   13784   13786   13788   13787   13789   13791   13790   13792
   13794   13793   13795   13797   13796   13798   13800   13799   13801
   13803   13802   13804   13806   13805   13807   13809   13808   13810
   13812   13811   13813   13815   13814   13816   13818   13817   13819
   13821   13820   13822   13824   13823   13825   13827   13826   13828
   13830   13829   13831   13833   13832   13834   13836   13835   13837
   13839   13838   13840   13842   13841   13843   13845   13844   13846
   13848   13847   13849   13851   13850   13852   13854   13853   13855
   13857   13856   13858   13860   13859   13861   13863   13862   13864
   13866   13865   13867   13869   13868   13870   13872   13871   13873
   13875   13874   13876   13878   13877   13879   13881   13880   13882
   13884   13883   13885   13887   13886   13888   13890   13889   13891
   13893   13892   13894   13896   13895   13897   13899   13898   13900
   13902   13901   13903   13905   13904   13906   13908   13907   13909
   13911   13910   13912   13914   13913   13915   13917   13916   13918
   13920   13919   13921   13923   13922   13924   13926   13925   13927
   13929   13928   13930   13932   13931   13933   13935   13934   13936
   13938   13937   13939   13941   13940   13942   13944   13943   13945
   13947   13946   13948   13950   13949   13951   13953   13952   13954
   13956   13955   13957   13959   13958   13960   13962   13961   13963
   13965   13964   13966   13968   13967   13969   13971   13970   13972
   13974   13973   13975   13977   13976   13978   13980   13979   13981
   13983   13982   13984   13986   13985   13987   13989   13988   13990
   13992   13991   13993   13995   13994   13996   13998   13997   13999
   14001   14000   14002   14004   14003   14005   14007   14006   14008
   14010   14009   14011   14013   14012   14014   14016   14015   14017
   14019   14018   14020   14022   14021   14023   14025   14024   14026
   14028   14027   14029   14031   14030   14032   14034   14033   14035
   14037   14036   14038   14040   14039   14041   14043   14042   14044
   14046   14045   14047   14049   14048   14050   14052   14051   14053
   14055   14054   14056   14058   14057   14059   14061   14060   14062
   14064   14063   14065   14067   14066   14068   14070   14069   14071
   14073   14072   14074   14076   14075   14077   14079   14078   14080
   14082   14081   14083   14085   14084   14086   14088   14087   14089
   14091   14090   14092   14094   14093   14095   14097   14096   14098
   14100   14099   14101   14103   14102   14104   14106   14105   14107
   14109   14108   14110   14112   14111   14113   14115   14114   14116
   14118   14117   14119   14121   14120   14122   14124   14123   14125
   14127   14126   14128   14130   14129   14131   14133   14132   14134
   14136   14135   14137   14139   14138   14140   14142   14141   14143
   14145   14144   14146   14148   14147   14149   14151   14150   14152
   14154   14153   14155   14157   14156   14158   14160   14159   14161
   14163   14162   14164   14166   14165   14167   14169   14168   14170
   14172   14171   14173   14175   14174   14176   14178   14177   14179
   14181   14180   14182   14184   14183   14185   14187   14186   14188
   14190   14189   14191   14193   14192   14194   14196   14195   14197
   14199   14198   14200   14202   14201   14203   14205   14204   14206
   14208   14207   14209   14211   14210   14212   14214   14213   14215
   14217   14216   14218   14220   14219   14221   14223   14222   14224
   14226   14225   14227   14229   14228   14230   14232   14231   14233
   14235   14234   14236   14238   14237   14239   14241   14240   14242
   14244   14243   14245   14247   14246   14248   14250   14249   14251
   14253   14252   14254   14256   14255   14257   14259   14258   14260
   14262   14261   14263   14265   14264   14266   14268   14267   14269
   14271   14270   14272   14274   14273   14275   14277   14276   14278
   14280   14279   14281   14283   14282   14284   14286   14285   14287
   14289   14288   14290   14292   14291   14293   14295   14294   14296
   14298   14297   14299   14301   14300   14302   14304   14303   14305
   14307   14306   14308   14310   14309   14311   14313   14312   14314
   14316   14315   14317   14319   14318   14320   14322   14321   14323
   14325   14324   14326   14328   14327   14329   14331   14330   14332
   14334   14333   14335   14337   14336   14338   14340   14339   14341
   14343   14342   14344   14346   14345   14347   14349   14348   14350
   14352   14351   14353   14355   14354   14356   14358   14357   14359
   14361   14360   14362   14364   14363   14365   14367   14366   14368
   14370   14369   14371   14373   14372   14374   14376   14375   14377
   14379   14378   14380   14382   14381   14383   14385   14384   14386
   14388   14387   14389   14391   14390   14392   14394   14393   14395
   14397   14396   14398   14400   14399   14401   14403   14402   14404
   14406   14405   14407   14409   14408   14410   14412   14411   14413
   14415   14414   14416   14418   14417   14419   14421   14420   14422
   14424   14423   14425   14427   14426   14428   14430   14429   14431
   14433   14432   14434   14436   14435   14437   14439   14438   14440
   14442   14441   14443   14445   14444   14446   14448   14447   14449
   14451   14450   14452   14454   14453   14455   14457   14456   14458
   14460   14459   14461   14463   14462   14464   14466   14465   14467
   14469   14468   14470   14472   14471   14473   14475   14474   14476
   14478   14477   14479   14481   14480   14482   14484   14483   14485
   14487   14486   14488   14490   14489   14491   14493   14492   14494
   14496   14495   14497   14499   14498   14500   14502   14501   14503
   14505   14504   14506   14508   14507   14509   14511   14510   14512
   14514   14513   14515   14517   14516   14518   14520   14519   14521
   14523   14522   14524   14526   14525   14527   14529   14528   14530
   14532   14531   14533   14535   14534   14536   14538   14537   14539
   14541   14540   14542   14544   14543   14545   14547   14546   14548
   14550   14549   14551   14553   14552   14554   14556   14555   14557
   14559   14558   14560   14562   14561   14563   14565   14564   14566
   14568   14567   14569   14571   14570   14572   14574   14573   14575
   14577   14576   14578   14580   14579   14581   14583   14582   14584
   14586   14585   14587   14589   14588   14590   14592   14591   14593
   14595   14594   14596   14598   14597   14599   14601   14600   14602
   14604   14603   14605   14607   14606   14608   14610   14609   14611
   14613   14612   14614   14616   14615   14617   14619   14618   14620
   14622   14621   14623   14625   14624   14626   14628   14627   14629
   14631   14630   14632   14634   14633   14635   14637   14636   14638
   14640   14639   14641   14643   14642   14644   14646   14645   14647
   14649   14648   14650   14652   14651   14653   14655   14654   14656
   14658   14657   14659   14661   14660   14662   14664   14663   14665
   14667   14666   14668   14670   14669   14671   14673   14672   14674
   14676   14675   14677   14679   14678   14680   14682   14681   14683
   14685   14684   14686   14688   14687   14689   14691   14690   14692
   14694   14693   14695   14697   14696   14698   14700   14699   14701
   14703   14702   14704   14706   14705   14707   14709   14708   14710
   14712   14711   14713   14715   14714   14716   14718   14717   14719
   14721   14720   14722   14724   14723   14725   14727   14726   14728
   14730   14729   14731   14733   14732   14734   14736   14735   14737
   14739   14738   14740   14742   14741   14743   14745   14744   14746
   14748   14747   14749   14751   14750   14752   14754   14753   14755
   14757   14756   14758   14760   14759   14761   14763   14762   14764
   14766   14765   14767   14769   14768   14770   14772   14771   14773
   14775   14774   14776   14778   14777   14779   14781   14780   14782
   14784   14783   14785   14787   14786   14788   14790   14789   14791
   14793   14792   14794   14796   14795   14797   14799   14798   14800
   14802   14801   14803   14805   14804   14806   14808   14807   14809
   14811   14810   14812   14814   14813   14815   14817   14816   14818
   14820   14819   14821   14823   14822   14824   14826   14825   14827
   14829   14828   14830   14832   14831   14833   14835   14834   14836
   14838   14837   14839   14841   14840   14842   14844   14843   14845
   14847   14846   14848   14850   14849   14851   14853   14852   14854
   14856   14855   14857   14859   14858   14860   14862   14861   14863
   14865   14864   14866   14868   14867   14869   14871   14870   14872
   14874   14873   14875   14877   14876   14878   14880   14879   14881
   14883   14882   14884   14886   14885   14887   14889   14888   14890
   14892   14891   14893   14895   14894   14896   14898   14897   14899
   14901   14900   14902   14904   14903   14905   14907   14906   14908
   14910   14909   14911   14913   14912   14914   14916   14915   14917
   14919   14918   14920   14922   14921   14923   14925   14924   14926
   14928   14927   14929   14931   14930   14932   14934   14933   14935
   14937   14936   14938   14940   14939   14941   14943   14942   14944
   14946   14945   14947   14949   14948   14950   14952   14951   14953
   14955   14954   14956   14958   14957   14959   14961   14960   14962
   14964   14963   14965   14967   14966   14968   14970   14969   14971
   14973   14972   14974   14976   14975   14977   14979   14978   14980
   14982   14981   14983   14985   14984   14986   14988   14987   14989
   14991   14990   14992   14994   14993   14995   14997   14996   14998
   15000   14999   15001   15003   15002   15004   15006   15005   15007
   15009   15008   15010   15012   15011   15013   15015   15014   15016
   15018   15017   15019   15021   15020   15022   15024   15023   15025
   15027   15026   15028   15030   15029   15031   15033   15032   15034
   15036   15035   15037   15039   15038   15040   15042   15041   15043
   15045   15044   15046   15048   15047   15049   15051   15050   15052
   15054   15053   15055   15057   15056   15058   15060   15059   15061
   15063   15062   15064   15066   15065   15067   15069   15068   15070
   15072   15071   15073   15075   15074   15076   15078   15077   15079
   15081   15080   15082   15084   15083   15085   15087   15086   15088
   15090   15089   15091   15093   15092   15094   15096   15095   15097
   15099   15098   15100   15102   15101   15103   15105   15104   15106
   15108   15107   15109   15111   15110   15112   15114   15113   15115
   15117   15116   15118   15120   15119   15121   15123   15122   15124
   15126   15125   15127   15129   15128   15130   15132   15131   15133
   15135   15134   15136   15138   15137   15139   15141   15140   15142
   15144   15143   15145   15147   15146   15148   15150   15149   15151
   15153   15152   15154   15156   15155   15157   15159   15158   15160
   15162   15161   15163   15165   15164   15166   15168   15167   15169
   15171   15170   15172   15174   15173   15175   15177   15176   15178
   15180   15179   15181   15183   15182   15184   15186   15185   15187
   15189   15188   15190   15192   15191   15193   15195   15194   15196
   15198   15197   15199   15201   15200   15202   15204   15203   15205
   15207   15206   15208   15210   15209   15211   15213   15212   15214
   15216   15215   15217   15219   15218   15220   15222   15221   15223
   15225   15224   15226   15228   15227   15229   15231   15230   15232
   15234   15233   15235   15237   15236   15238   15240   15239   15241
   15243   15242   15244   15246   15245   15247   15249   15248   15250
   15252   15251   15253   15255   15254   15256   15258   15257   15259
   15261   15260   15262   15264   15263   15265   15267   15266   15268
   15270   15269   15271   15273   15272   15274   15276   15275   15277
   15279   15278   15280   15282   15281   15283   15285   15284   15286
   15288   15287   15289   15291   15290   15292   15294   15293   15295
   15297   15296   15298   15300   15299   15301   15303   15302   15304
   15306   15305   15307   15309   15308   15310   15312   15311   15313
   15315   15314   15316   15318   15317   15319   15321   15320   15322
   15324   15323   15325   15327   15326   15328   15330   15329   15331
   15333   15332   15334   15336   15335   15337   15339   15338   15340
   15342   15341   15343   15345   15344   15346   15348   15347   15349
   15351   15350   15352   15354   15353   15355   15357   15356   15358
   15360   15359   15361   15363   15362   15364   15366   15365   15367
   15369   15368   15370   15372   15371   15373   15375   15374   15376
   15378   15377   15379   15381   15380   15382   15384   15383   15385
   15387   15386   15388   15390   15389   15391   15393   15392   15394
   15396   15395   15397   15399   15398   15400   15402   15401   15403
   15405   15404   15406   15408   15407   15409   15411   15410   15412
   15414   15413   15415   15417   15416   15418   15420   15419   15421
   15423   15422   15424   15426   15425   15427   15429   15428   15430
   15432   15431   15433   15435   15434   15436   15438   15437   15439
   15441   15440   15442   15444   15443   15445   15447   15446   15448
   15450   15449   15451   15453   15452   15454   15456   15455   15457
   15459   15458   15460   15462   15461   15463   15465   15464   15466
   15468   15467   15469   15471   15470   15472   15474   15473   15475
   15477   15476   15478   15480   15479   15481   15483   15482   15484
   15486   15485   15487   15489   15488   15490   15492   15491   15493
   15495   15494   15496   15498   15497   15499   15501   15500   15502
   15504   15503   15505   15507   15506   15508   15510   15509   15511
   15513   15512   15514   15516   15515   15517   15519   15518   15520
   15522   15521   15523   15525   15524   15526   15528   15527   15529
   15531   15530   15532   15534   15533   15535   15537   15536   15538
   15540   15539   15541   15543   15542   15544   15546   15545   15547
   15549   15548   15550   15552   15551   15553   15555   15554   15556
   15558   15557   15559   15561   15560   15562   15564   15563   15565
   15567   15566   15568   15570   15569   15571   15573   15572   15574
   15576   15575   15577   15579   15578   15580   15582   15581   15583
   15585   15584   15586   15588   15587   15589   15591   15590   15592
   15594   15593   15595   15597   15596   15598   15600   15599   15601
   15603   15602   15604   15606   15605   15607   15609   15608   15610
   15612   15611   15613   15615   15614   15616   15618   15617   15619
   15621   15620   15622   15624   15623   15625   15627   15626   15628
   15630   15629   15631   15633   15632   15634   15636   15635   15637
   15639   15638   15640   15642   15641   15643   15645   15644   15646
   15648   15647   15649   15651   15650   15652   15654   15653   15655
   15657   15656   15658   15660   15659   15661   15663   15662   15664
   15666   15665   15667   15669   15668   15670   15672   15671   15673
   15675   15674   15676   15678   15677   15679   15681   15680   15682
   15684   15683   15685   15687   15686   15688   15690   15689   15691
   15693   15692   15694   15696   15695   15697   15699   15698   15700
   15702   15701   15703   15705   15704   15706   15708   15707   15709
   15711   15710   15712   15714   15713   15715   15717   15716   15718
   15720   15719   15721   15723   15722   15724   15726   15725   15727
   15729   15728   15730   15732   15731   15733   15735   15734   15736
   15738   15737   15739   15741   15740   15742   15744   15743   15745
   15747   15746   15748   15750   15749   15751   15753   15752   15754
   15756   15755   15757   15759   15758   15760   15762   15761   15763
   15765   15764   15766   15768   15767   15769   15771   15770   15772
   15774   15773   15775   15777   15776   15778   15780   15779   15781
   15783   15782   15784   15786   15785   15787   15789   15788   15790
   15792   15791   15793   15795   15794   15796   15798   15797   15799
   15801   15800   15802   15804   15803   15805   15807   15806   15808
   15810   15809   15811   15813   15812   15814   15816   15815   15817
   15819   15818   15820   15822   15821   15823   15825   15824   15826
   15828   15827   15829   15831   15830   15832   15834   15833   15835
   15837   15836   15838   15840   15839   15841   15843   15842   15844
   15846   15845   15847   15849   15848   15850   15852   15851   15853
   15855   15854   15856   15858   15857   15859   15861   15860   15862
   15864   15863   15865   15867   15866   15868   15870   15869   15871
   15873   15872   15874   15876   15875   15877   15879   15878   15880
   15882   15881   15883   15885   15884   15886   15888   15887   15889
   15891   15890   15892   15894   15893   15895   15897   15896   15898
   15900   15899   15901   15903   15902   15904   15906   15905   15907
   15909   15908   15910   15912   15911   15913   15915   15914   15916
   15918   15917   15919   15921   15920   15922   15924   15923   15925
   15927   15926   15928   15930   15929   15931   15933   15932   15934
   15936   15935   15937   15939   15938   15940   15942   15941   15943
   15945   15944   15946   15948   15947   15949   15951   15950   15952
   15954   15953   15955   15957   15956   15958   15960   15959   15961
   15963   15962   15964   15966   15965   15967   15969   15968   15970
   15972   15971   15973   15975   15974   15976   15978   15977   15979
   15981   15980   15982   15984   15983   15985   15987   15986   15988
   15990   15989   15991   15993   15992   15994   15996   15995   15997
   15999   15998   16000   16002   16001   16003   16005   16004   16006
   16008   16007   16009   16011   16010   16012   16014   16013   16015
   16017   16016   16018   16020   16019   16021   16023   16022   16024
   16026   16025   16027   16029   16028   16030   16032   16031   16033
   16035   16034   16036   16038   16037   16039   16041   16040   16042
   16044   16043   16045   16047   16046   16048   16050   16049   16051
   16053   16052   16054   16056   16055   16057   16059   16058   16060
   16062   16061   16063   16065   16064   16066   16068   16067   16069
   16071   16070   16072   16074   16073   16075   16077   16076   16078
   16080   16079   16081   16083   16082   16084   16086   16085   16087
   16089   16088   16090   16092   16091   16093   16095   16094   16096
   16098   16097   16099   16101   16100   16102   16104   16103   16105
   16107   16106   16108   16110   16109   16111   16113   16112   16114
   16116   16115   16117   16119   16118   16120   16122   16121   16123
   16125   16124   16126   16128   16127   16129   16131   16130   16132
   16134   16133   16135   16137   16136   16138   16140   16139   16141
   16143   16142   16144   16146   16145   16147   16149   16148   16150
   16152   16151   16153   16155   16154   16156   16158   16157   16159
   16161   16160   16162   16164   16163   16165   16167   16166   16168
   16170   16169   16171   16173   16172   16174   16176   16175   16177
   16179   16178   16180   16182   16181   16183   16185   16184   16186
   16188   16187   16189   16191   16190   16192   16194   16193   16195
   16197   16196   16198   16200   16199   16201   16203   16202   16204
   16206   16205   16207   16209   16208   16210   16212   16211   16213
   16215   16214   16216   16218   16217   16219   16221   16220   16222
   16224   16223   16225   16227   16226   16228   16230   16229   16231
   16233   16232   16234   16236   16235   16237   16239   16238   16240
   16242   16241   16243   16245   16244   16246   16248   16247   16249
   16251   16250   16252   16254   16253   16255   16257   16256   16258
   16260   16259   16261   16263   16262   16264   16266   16265   16267
   16269   16268   16270   16272   16271   16273   16275   16274   16276
   16278   16277   16279   16281   16280   16282   16284   16283   16285
   16287   16286   16288   16290   16289   16291   16293   16292   16294
   16296   16295   16297   16299   16298   16300   16302   16301   16303
   16305   16304   16306   16308   16307   16309   16311   16310   16312
   16314   16313   16315   16317   16316   16318   16320   16319   16321
   16323   16322   16324   16326   16325   16327   16329   16328   16330
   16332   16331   16333   16335   16334   16336   16338   16337   16339
   16341   16340   16342   16344   16343   16345   16347   16346   16348
   16350   16349   16351   16353   16352   16354   16356   16355   16357
   16359   16358   16360   16362   16361   16363   16365   16364   16366
   16368   16367   16369   16371   16370   16372   16374   16373   16375
   16377   16376   16378   16380   16379   16381   16383   16382   16384
   16386   16385   16387   16389   16388   16390   16392   16391   16393
   16395   16394   16396   16398   16397   16399   16401   16400   16402
   16404   16403   16405   16407   16406   16408   16410   16409   16411
   16413   16412   16414   16416   16415   16417   16419   16418   16420
   16422   16421   16423   16425   16424   16426   16428   16427   16429
   16431   16430   16432   16434   16433   16435   16437   16436   16438
   16440   16439   16441   16443   16442   16444   16446   16445   16447
   16449   16448   16450   16452   16451   16453   16455   16454   16456
   16458   16457   16459   16461   16460   16462   16464   16463   16465
   16467   16466   16468   16470   16469   16471   16473   16472   16474
   16476   16475   16477   16479   16478   16480   16482   16481   16483
   16485   16484   16486   16488   16487   16489   16491   16490   16492
   16494   16493   16495   16497   16496   16498   16500   16499   16501
   16503   16502   16504   16506   16505   16507   16509   16508   16510
   16512   16511   16513   16515   16514   16516   16518   16517   16519
   16521   16520   16522   16524   16523   16525   16527   16526   16528
   16530   16529   16531   16533   16532   16534   16536   16535   16537
   16539   16538   16540   16542   16541   16543   16545   16544   16546
   16548   16547   16549   16551   16550   16552   16554   16553   16555
   16557   16556   16558   16560   16559   16561   16563   16562   16564
   16566   16565   16567   16569   16568   16570   16572   16571   16573
   16575   16574   16576   16578   16577   16579   16581   16580   16582
   16584   16583   16585   16587   16586   16588   16590   16589   16591
   16593   16592   16594   16596   16595   16597   16599   16598   16600
   16602   16601   16603   16605   16604   16606   16608   16607   16609
   16611   16610   16612   16614   16613   16615   16617   16616   16618
   16620   16619   16621   16623   16622   16624   16626   16625   16627
   16629   16628   16630   16632   16631   16633   16635   16634   16636
   16638   16637   16639   16641   16640   16642   16644   16643   16645
   16647   16646   16648   16650   16649   16651   16653   16652   16654
   16656   16655   16657   16659   16658   16660   16662   16661   16663
   16665   16664   16666   16668   16667   16669   16671   16670   16672
   16674   16673   16675   16677   16676   16678   16680   16679   16681
   16683   16682   16684   16686   16685   16687   16689   16688   16690
   16692   16691   16693   16695   16694   16696   16698   16697   16699
   16701   16700   16702   16704   16703   16705   16707   16706   16708
   16710   16709   16711   16713   16712   16714   16716   16715   16717
   16719   16718   16720   16722   16721   16723   16725   16724   16726
   16728   16727   16729   16731   16730   16732   16734   16733   16735
   16737   16736   16738   16740   16739   16741   16743   16742   16744
   16746   16745   16747   16749   16748   16750   16752   16751   16753
   16755   16754   16756   16758   16757   16759   16761   16760   16762
   16764   16763   16765   16767   16766   16768   16770   16769   16771
   16773   16772   16774   16776   16775   16777   16779   16778   16780
   16782   16781   16783   16785   16784   16786   16788   16787   16789
   16791   16790   16792   16794   16793   16795   16797   16796   16798
   16800   16799   16801   16803   16802   16804   16806   16805   16807
   16809   16808   16810   16812   16811   16813   16815   16814   16816
   16818   16817   16819   16821   16820   16822   16824   16823   16825
   16827   16826   16828   16830   16829   16831   16833   16832   16834
   16836   16835   16837   16839   16838   16840   16842   16841   16843
   16845   16844   16846   16848   16847   16849   16851   16850   16852
   16854   16853   16855   16857   16856   16858   16860   16859   16861
   16863   16862   16864   16866   16865   16867   16869   16868   16870
   16872   16871   16873   16875   16874   16876   16878   16877   16879
   16881   16880   16882   16884   16883   16885   16887   16886   16888
   16890   16889   16891   16893   16892   16894   16896   16895   16897
   16899   16898   16900   16902   16901   16903   16905   16904   16906
   16908   16907   16909   16911   16910   16912   16914   16913   16915
   16917   16916   16918   16920   16919   16921   16923   16922   16924
   16926   16925   16927   16929   16928   16930   16932   16931   16933
   16935   16934   16936   16938   16937   16939   16941   16940   16942
   16944   16943   16945   16947   16946   16948   16950   16949   16951
   16953   16952   16954   16956   16955   16957   16959   16958   16960
   16962   16961   16963   16965   16964   16966   16968   16967   16969
   16971   16970   16972   16974   16973   16975   16977   16976   16978
   16980   16979   16981   16983   16982   16984   16986   16985   16987
   16989   16988   16990   16992   16991   16993   16995   16994   16996
   16998   16997   16999   17001   17000   17002   17004   17003   17005
   17007   17006   17008   17010   17009   17011   17013   17012   17014
   17016   17015   17017   17019   17018   17020   17022   17021   17023
   17025   17024   17026   17028   17027   17029   17031   17030   17032
   17034   17033   17035   17037   17036   17038   17040   17039   17041
   17043   17042   17044   17046   17045   17047   17049   17048   17050
   17052   17051   17053   17055   17054   17056   17058   17057   17059
   17061   17060   17062   17064   17063   17065   17067   17066   17068
   17070   17069   17071   17073   17072   17074   17076   17075   17077
   17079   17078   17080   17082   17081   17083   17085   17084   17086
   17088   17087   17089   17091   17090   17092   17094   17093   17095
   17097   17096   17098   17100   17099   17101   17103   17102   17104
   17106   17105   17107   17109   17108   17110   17112   17111   17113
   17115   17114   17116   17118   17117   17119   17121   17120   17122
   17124   17123   17125   17127   17126   17128   17130   17129   17131
   17133   17132   17134   17136   17135   17137   17139   17138   17140
   17142   17141   17143   17145   17144   17146   17148   17147   17149
   17151   17150   17152   17154   17153   17155   17157   17156   17158
   17160   17159   17161   17163   17162   17164   17166   17165   17167
   17169   17168   17170   17172   17171   17173   17175   17174   17176
   17178   17177   17179   17181   17180   17182   17184   17183   17185
   17187   17186   17188   17190   17189   17191   17193   17192   17194
   17196   17195   17197   17199   17198   17200   17202   17201   17203
   17205   17204   17206   17208   17207   17209   17211   17210   17212
   17214   17213   17215   17217   17216   17218   17220   17219   17221
   17223   17222   17224   17226   17225   17227   17229   17228   17230
   17232   17231   17233   17235   17234   17236   17238   17237   17239
   17241   17240   17242   17244   17243   17245   17247   17246   17248
   17250   17249   17251   17253   17252   17254   17256   17255   17257
   17259   17258   17260   17262   17261   17263   17265   17264   17266
   17268   17267   17269   17271   17270   17272   17274   17273   17275
   17277   17276   17278   17280   17279   17281   17283   17282   17284
   17286   17285   17287   17289   17288   17290   17292   17291   17293
   17295   17294   17296   17298   17297   17299   17301   17300   17302
   17304   17303   17305   17307   17306   17308   17310   17309   17311
   17313   17312   17314   17316   17315   17317   17319   17318   17320
   17322   17321   17323   17325   17324   17326   17328   17327   17329
   17331   17330   17332   17334   17333   17335   17337   17336   17338
   17340   17339   17341   17343   17342   17344   17346   17345   17347
   17349   17348   17350   17352   17351   17353   17355   17354   17356
   17358   17357   17359   17361   17360   17362   17364   17363   17365
   17367   17366   17368   17370   17369   17371   17373   17372   17374
   17376   17375   17377   17379   17378   17380   17382   17381   17383
   17385   17384   17386   17388   17387   17389   17391   17390   17392
   17394   17393   17395   17397   17396   17398   17400   17399   17401
   17403   17402   17404   17406   17405   17407   17409   17408   17410
   17412   17411   17413   17415   17414   17416   17418   17417   17419
   17421   17420   17422   17424   17423   17425   17427   17426   17428
   17430   17429   17431   17433   17432   17434   17436   17435   17437
   17439   17438   17440   17442   17441   17443   17445   17444   17446
   17448   17447   17449   17451   17450   17452   17454   17453   17455
   17457   17456   17458   17460   17459   17461   17463   17462   17464
   17466   17465   17467   17469   17468   17470   17472   17471   17473
   17475   17474   17476   17478   17477   17479   17481   17480   17482
   17484   17483   17485   17487   17486   17488   17490   17489   17491
   17493   17492   17494   17496   17495   17497   17499   17498   17500
   17502   17501   17503   17505   17504   17506   17508   17507   17509
   17511   17510   17512   17514   17513   17515   17517   17516   17518
   17520   17519   17521   17523   17522   17524   17526   17525   17527
   17529   17528   17530   17532   17531   17533   17535   17534   17536
   17538   17537   17539   17541   17540   17542   17544   17543   17545
   17547   17546   17548   17550   17549   17551   17553   17552   17554
   17556   17555   17557   17559   17558   17560   17562   17561   17563
   17565   17564   17566   17568   17567   17569   17571   17570   17572
   17574   17573   17575   17577   17576   17578   17580   17579   17581
   17583   17582   17584   17586   17585   17587   17589   17588   17590
   17592   17591   17593   17595   17594   17596   17598   17597   17599
   17601   17600   17602   17604   17603   17605   17607   17606   17608
   17610   17609   17611   17613   17612   17614   17616   17615   17617
   17619   17618   17620   17622   17621   17623   17625   17624   17626
   17628   17627   17629   17631   17630   17632   17634   17633   17635
   17637   17636   17638   17640   17639   17641   17643   17642   17644
   17646   17645   17647   17649   17648   17650   17652   17651   17653
   17655   17654   17656   17658   17657   17659   17661   17660   17662
   17664   17663   17665   17667   17666   17668   17670   17669   17671
   17673   17672   17674   17676   17675   17677   17679   17678   17680
   17682   17681   17683   17685   17684   17686   17688   17687   17689
   17691   17690   17692   17694   17693   17695   17697   17696   17698
   17700   17699   17701   17703   17702   17704   17706   17705   17707
   17709   17708   17710   17712   17711   17713   17715   17714   17716
   17718   17717   17719   17721   17720   17722   17724   17723   17725
   17727   17726   17728   17730   17729   17731   17733   17732   17734
   17736   17735   17737   17739   17738   17740   17742   17741   17743
   17745   17744   17746   17748   17747   17749   17751   17750   17752
   17754   17753   17755   17757   17756   17758   17760   17759   17761
   17763   17762   17764   17766   17765   17767   17769   17768   17770
   17772   17771   17773   17775   17774   17776   17778   17777   17779
   17781   17780   17782   17784   17783   17785   17787   17786   17788
   17790   17789   17791   17793   17792   17794   17796   17795   17797
   17799   17798   17800   17802   17801   17803   17805   17804   17806
   17808   17807   17809   17811   17810   17812   17814   17813   17815
   17817   17816   17818   17820   17819   17821   17823   17822   17824
   17826   17825   17827   17829   17828   17830   17832   17831   17833
   17835   17834   17836   17838   17837   17839   17841   17840   17842
   17844   17843   17845   17847   17846   17848   17850   17849   17851
   17853   17852   17854   17856   17855   17857   17859   17858   17860
   17862   17861   17863   17865   17864   17866   17868   17867   17869
   17871   17870   17872   17874   17873   17875   17877   17876   17878
   17880   17879   17881   17883   17882   17884   17886   17885   17887
   17889   17888   17890   17892   17891   17893   17895   17894   17896
   17898   17897   17899   17901   17900   17902   17904   17903   17905
   17907   17906   17908   17910   17909   17911   17913   17912   17914
   17916   17915   17917   17919   17918   17920   17922   17921   17923
   17925   17924   17926   17928   17927   17929   17931   17930   17932
   17934   17933   17935   17937   17936   17938   17940   17939   17941
   17943   17942   17944   17946   17945   17947   17949   17948   17950
   17952   17951   17953   17955   17954   17956   17958   17957   17959
   17961   17960   17962   17964   17963   17965   17967   17966   17968
   17970   17969   17971   17973   17972   17974   17976   17975   17977
   17979   17978   17980   17982   17981   17983   17985   17984   17986
   17988   17987   17989   17991   17990   17992   17994   17993   17995
   17997   17996   17998   18000   17999   18001   18003   18002   18004
   18006   18005   18007   18009   18008   18010   18012   18011   18013
   18015   18014   18016   18018   18017   18019   18021   18020   18022
   18024   18023   18025   18027   18026   18028   18030   18029   18031
   18033   18032   18034   18036   18035   18037   18039   18038   18040
   18042   18041   18043   18045   18044   18046   18048   18047   18049
   18051   18050   18052   18054   18053   18055   18057   18056   18058
   18060   18059   18061   18063   18062   18064   18066   18065   18067
   18069   18068   18070   18072   18071   18073   18075   18074   18076
   18078   18077   18079   18081   18080   18082   18084   18083   18085
   18087   18086   18088   18090   18089   18091   18093   18092   18094
   18096   18095   18097   18099   18098   18100   18102   18101   18103
   18105   18104   18106   18108   18107   18109   18111   18110   18112
   18114   18113   18115   18117   18116   18118   18120   18119   18121
   18123   18122   18124   18126   18125   18127   18129   18128   18130
   18132   18131   18133   18135   18134   18136   18138   18137   18139
   18141   18140   18142   18144   18143   18145   18147   18146   18148
   18150   18149   18151   18153   18152   18154   18156   18155   18157
   18159   18158   18160   18162   18161   18163   18165   18164   18166
   18168   18167   18169   18171   18170   18172   18174   18173   18175
   18177   18176   18178   18180   18179   18181   18183   18182   18184
   18186   18185   18187   18189   18188   18190   18192   18191   18193
   18195   18194   18196   18198   18197   18199   18201   18200   18202
   18204   18203   18205   18207   18206   18208   18210   18209   18211
   18213   18212   18214   18216   18215   18217   18219   18218   18220
   18222   18221   18223   18225   18224   18226   18228   18227   18229
   18231   18230   18232   18234   18233   18235   18237   18236   18238
   18240   18239   18241   18243   18242   18244   18246   18245   18247
   18249   18248   18250   18252   18251   18253   18255   18254   18256
   18258   18257   18259   18261   18260   18262   18264   18263   18265
   18267   18266   18268   18270   18269   18271   18273   18272   18274
   18276   18275   18277   18279   18278   18280   18282   18281   18283
   18285   18284   18286   18288   18287   18289   18291   18290   18292
   18294   18293   18295   18297   18296   18298   18300   18299   18301
   18303   18302   18304   18306   18305   18307   18309   18308   18310
   18312   18311   18313   18315   18314   18316   18318   18317   18319
   18321   18320   18322   18324   18323   18325   18327   18326   18328
   18330   18329   18331   18333   18332   18334   18336   18335   18337
   18339   18338   18340   18342   18341   18343   18345   18344   18346
   18348   18347   18349   18351   18350   18352   18354   18353   18355
   18357   18356   18358   18360   18359   18361   18363   18362   18364
   18366   18365   18367   18369   18368   18370   18372   18371   18373
   18375   18374   18376   18378   18377   18379   18381   18380   18382
   18384   18383   18385   18387   18386   18388   18390   18389   18391
   18393   18392   18394   18396   18395   18397   18399   18398   18400
   18402   18401   18403   18405   18404   18406   18408   18407   18409
   18411   18410   18412   18414   18413   18415   18417   18416   18418
   18420   18419   18421   18423   18422   18424   18426   18425   18427
   18429   18428   18430   18432   18431   18433   18435   18434   18436
   18438   18437   18439   18441   18440   18442   18444   18443   18445
   18447   18446   18448   18450   18449   18451   18453   18452   18454
   18456   18455   18457   18459   18458   18460   18462   18461   18463
   18465   18464   18466   18468   18467   18469   18471   18470   18472
   18474   18473   18475   18477   18476   18478   18480   18479   18481
   18483   18482   18484   18486   18485   18487   18489   18488   18490
   18492   18491   18493   18495   18494   18496   18498   18497   18499
   18501   18500   18502   18504   18503   18505   18507   18506   18508
   18510   18509   18511   18513   18512   18514   18516   18515   18517
   18519   18518   18520   18522   18521   18523   18525   18524   18526
   18528   18527   18529   18531   18530   18532   18534   18533   18535
   18537   18536   18538   18540   18539   18541   18543   18542   18544
   18546   18545   18547   18549   18548   18550   18552   18551   18553
   18555   18554   18556   18558   18557   18559   18561   18560   18562
   18564   18563   18565   18567   18566   18568   18570   18569   18571
   18573   18572   18574   18576   18575   18577   18579   18578   18580
   18582   18581   18583   18585   18584   18586   18588   18587   18589
   18591   18590   18592   18594   18593   18595   18597   18596   18598
   18600   18599   18601   18603   18602   18604   18606   18605   18607
   18609   18608   18610   18612   18611   18613   18615   18614   18616
   18618   18617   18619   18621   18620   18622   18624   18623   18625
   18627   18626   18628   18630   18629   18631   18633   18632   18634
   18636   18635   18637   18639   18638   18640   18642   18641   18643
   18645   18644   18646   18648   18647   18649   18651   18650   18652
   18654   18653   18655   18657   18656   18658   18660   18659   18661
   18663   18662   18664   18666   18665   18667   18669   18668   18670
   18672   18671   18673   18675   18674   18676   18678   18677   18679
   18681   18680   18682   18684   18683   18685   18687   18686   18688
   18690   18689   18691   18693   18692   18694   18696   18695   18697
   18699   18698   18700   18702   18701   18703   18705   18704   18706
   18708   18707   18709   18711   18710   18712   18714   18713   18715
   18717   18716   18718   18720   18719   18721   18723   18722   18724
   18726   18725   18727   18729   18728   18730   18732   18731   18733
   18735   18734   18736   18738   18737   18739   18741   18740   18742
   18744   18743   18745   18747   18746   18748   18750   18749   18751
   18753   18752   18754   18756   18755   18757   18759   18758   18760
   18762   18761   18763   18765   18764   18766   18768   18767   18769
   18771   18770   18772   18774   18773   18775   18777   18776   18778
   18780   18779   18781   18783   18782   18784   18786   18785   18787
   18789   18788   18790   18792   18791   18793   18795   18794   18796
   18798   18797   18799   18801   18800   18802   18804   18803   18805
   18807   18806   18808   18810   18809   18811   18813   18812   18814
   18816   18815   18817   18819   18818   18820   18822   18821   18823
   18825   18824   18826   18828   18827   18829   18831   18830   18832
   18834   18833   18835   18837   18836   18838   18840   18839   18841
   18843   18842   18844   18846   18845   18847   18849   18848   18850
   18852   18851   18853   18855   18854   18856   18858   18857   18859
   18861   18860   18862   18864   18863   18865   18867   18866   18868
   18870   18869   18871   18873   18872   18874   18876   18875   18877
   18879   18878   18880   18882   18881   18883   18885   18884   18886
   18888   18887   18889   18891   18890   18892   18894   18893   18895
   18897   18896   18898   18900   18899   18901   18903   18902   18904
   18906   18905   18907   18909   18908   18910   18912   18911   18913
   18915   18914   18916   18918   18917   18919   18921   18920   18922
   18924   18923   18925   18927   18926   18928   18930   18929   18931
   18933   18932   18934   18936   18935   18937   18939   18938   18940
   18942   18941   18943   18945   18944   18946   18948   18947   18949
   18951   18950   18952   18954   18953   18955   18957   18956   18958
   18960   18959   18961   18963   18962   18964   18966   18965   18967
   18969   18968   18970   18972   18971   18973   18975   18974   18976
   18978   18977   18979   18981   18980   18982   18984   18983   18985
   18987   18986   18988   18990   18989   18991   18993   18992   18994
   18996   18995   18997   18999   18998   19000   19002   19001   19003
   19005   19004   19006   19008   19007   19009   19011   19010   19012
   19014   19013   19015   19017   19016   19018   19020   19019   19021
   19023   19022   19024   19026   19025   19027   19029   19028   19030
   19032   19031   19033   19035   19034   19036   19038   19037   19039
   19041   19040   19042   19044   19043   19045   19047   19046   19048
   19050   19049   19051   19053   19052   19054   19056   19055   19057
   19059   19058   19060   19062   19061   19063   19065   19064   19066
   19068   19067   19069   19071   19070   19072   19074   19073   19075
   19077   19076   19078   19080   19079   19081   19083   19082   19084
   19086   19085   19087   19089   19088   19090   19092   19091   19093
   19095   19094   19096   19098   19097   19099   19101   19100   19102
   19104   19103   19105   19107   19106   19108   19110   19109   19111
   19113   19112   19114   19116   19115   19117   19119   19118   19120
   19122   19121   19123   19125   19124   19126   19128   19127   19129
   19131   19130   19132   19134   19133   19135   19137   19136   19138
   19140   19139   19141   19143   19142   19144   19146   19145   19147
   19149   19148   19150   19152   19151   19153   19155   19154   19156
   19158   19157   19159   19161   19160   19162   19164   19163   19165
   19167   19166   19168   19170   19169   19171   19173   19172   19174
   19176   19175   19177   19179   19178   19180   19182   19181   19183
   19185   19184   19186   19188   19187   19189   19191   19190   19192
   19194   19193   19195   19197   19196   19198   19200   19199   19201
   19203   19202   19204   19206   19205   19207   19209   19208   19210
   19212   19211   19213   19215   19214   19216   19218   19217   19219
   19221   19220   19222   19224   19223   19225   19227   19226   19228
   19230   19229   19231   19233   19232   19234   19236   19235   19237
   19239   19238   19240   19242   19241   19243   19245   19244   19246
   19248   19247   19249   19251   19250   19252   19254   19253   19255
   19257   19256   19258   19260   19259   19261   19263   19262   19264
   19266   19265   19267   19269   19268   19270   19272   19271   19273
   19275   19274   19276   19278   19277   19279   19281   19280   19282
   19284   19283   19285   19287   19286   19288   19290   19289   19291
   19293   19292   19294   19296   19295   19297   19299   19298   19300
   19302   19301   19303   19305   19304   19306   19308   19307   19309
   19311   19310   19312   19314   19313   19315   19317   19316   19318
   19320   19319   19321   19323   19322   19324   19326   19325   19327
   19329   19328   19330   19332   19331   19333   19335   19334   19336
   19338   19337   19339   19341   19340   19342   19344   19343   19345
   19347   19346   19348   19350   19349   19351   19353   19352   19354
   19356   19355   19357   19359   19358   19360   19362   19361   19363
   19365   19364   19366   19368   19367   19369   19371   19370   19372
   19374   19373   19375   19377   19376   19378   19380   19379   19381
   19383   19382   19384   19386   19385   19387   19389   19388   19390
   19392   19391   19393   19395   19394   19396   19398   19397   19399
   19401   19400   19402   19404   19403   19405   19407   19406   19408
   19410   19409   19411   19413   19412   19414   19416   19415   19417
   19419   19418   19420   19422   19421   19423   19425   19424   19426
   19428   19427   19429   19431   19430   19432   19434   19433   19435
   19437   19436   19438   19440   19439   19441   19443   19442   19444
   19446   19445   19447   19449   19448   19450   19452   19451   19453
   19455   19454   19456   19458   19457   19459   19461   19460   19462
   19464   19463   19465   19467   19466   19468   19470   19469   19471
   19473   19472   19474   19476   19475   19477   19479   19478   19480
   19482   19481   19483   19485   19484   19486   19488   19487   19489
   19491   19490   19492   19494   19493   19495   19497   19496   19498
   19500   19499   19501   19503   19502   19504   19506   19505   19507
   19509   19508   19510   19512   19511   19513   19515   19514   19516
   19518   19517   19519   19521   19520   19522   19524   19523   19525
   19527   19526   19528   19530   19529   19531   19533   19532   19534
   19536   19535   19537   19539   19538   19540   19542   19541   19543
   19545   19544   19546   19548   19547   19549   19551   19550   19552
   19554   19553   19555   19557   19556   19558   19560   19559   19561
   19563   19562   19564   19566   19565   19567   19569   19568   19570
   19572   19571   19573   19575   19574   19576   19578   19577   19579
   19581   19580   19582   19584   19583   19585   19587   19586   19588
   19590   19589   19591   19593   19592   19594   19596   19595   19597
   19599   19598   19600   19602   19601   19603   19605   19604   19606
   19608   19607   19609   19611   19610   19612   19614   19613   19615
   19617   19616   19618   19620   19619   19621   19623   19622   19624
   19626   19625   19627   19629   19628   19630   19632   19631   19633
   19635   19634   19636   19638   19637   19639   19641   19640   19642
   19644   19643   19645   19647   19646   19648   19650   19649   19651
   19653   19652   19654   19656   19655   19657   19659   19658   19660
   19662   19661   19663   19665   19664   19666   19668   19667   19669
   19671   19670   19672   19674   19673   19675   19677   19676   19678
   19680   19679   19681   19683   19682   19684   19686   19685   19687
   19689   19688   19690   19692   19691   19693   19695   19694   19696
   19698   19697   19699   19701   19700   19702   19704   19703   19705
   19707   19706   19708   19710   19709   19711   19713   19712   19714
   19716   19715   19717   19719   19718   19720   19722   19721   19723
   19725   19724   19726   19728   19727   19729   19731   19730   19732
   19734   19733   19735   19737   19736   19738   19740   19739   19741
   19743   19742   19744   19746   19745   19747   19749   19748   19750
   19752   19751   19753   19755   19754   19756   19758   19757   19759
   19761   19760   19762   19764   19763   19765   19767   19766   19768
   19770   19769   19771   19773   19772   19774   19776   19775   19777
   19779   19778   19780   19782   19781   19783   19785   19784   19786
   19788   19787   19789   19791   19790   19792   19794   19793   19795
   19797   19796   19798   19800   19799   19801   19803   19802   19804
   19806   19805   19807   19809   19808   19810   19812   19811   19813
   19815   19814   19816   19818   19817   19819   19821   19820   19822
   19824   19823   19825   19827   19826   19828   19830   19829   19831
   19833   19832   19834   19836   19835   19837   19839   19838   19840
   19842   19841   19843   19845   19844   19846   19848   19847   19849
   19851   19850   19852   19854   19853   19855   19857   19856   19858
   19860   19859   19861   19863   19862   19864   19866   19865   19867
   19869   19868   19870   19872   19871   19873   19875   19874   19876
   19878   19877   19879   19881   19880   19882   19884   19883   19885
   19887   19886   19888   19890   19889   19891   19893   19892   19894
   19896   19895   19897   19899   19898   19900   19902   19901   19903
   19905   19904   19906   19908   19907   19909   19911   19910   19912
   19914   19913   19915   19917   19916   19918   19920   19919   19921
   19923   19922   19924   19926   19925   19927   19929   19928   19930
   19932   19931   19933   19935   19934   19936   19938   19937   19939
   19941   19940   19942   19944   19943   19945   19947   19946   19948
   19950   19949   19951   19953   19952   19954   19956   19955   19957
   19959   19958   19960   19962   19961   19963   19965   19964   19966
   19968   19967   19969   19971   19970   19972   19974   19973   19975
   19977   19976   19978   19980   19979   19981   19983   19982   19984
   19986   19985   19987   19989   19988   19990   19992   19991   19993
   19995   19994   19996   19998   19997   19999   20001   20000   20002
   20004   20003   20005   20007   20006   20008   20010   20009   20011
   20013   20012   20014   20016   20015   20017   20019   20018   20020
   20022   20021   20023   20025   20024   20026   20028   20027   20029
   20031   20030   20032   20034   20033   20035   20037   20036   20038
   20040   20039   20041   20043   20042   20044   20046   20045   20047
   20049   20048   20050   20052   20051   20053   20055   20054   20056
   20058   20057   20059   20061   20060   20062   20064   20063   20065
   20067   20066   20068   20070   20069   20071   20073   20072   20074
   20076   20075   20077   20079   20078   20080   20082   20081   20083
   20085   20084   20086   20088   20087   20089   20091   20090   20092
   20094   20093   20095   20097   20096   20098   20100   20099   20101
   20103   20102   20104   20106   20105   20107   20109   20108   20110
   20112   20111   20113   20115   20114   20116   20118   20117   20119
   20121   20120   20122   20124   20123   20125   20127   20126   20128
   20130   20129   20131   20133   20132   20134   20136   20135   20137
   20139   20138   20140   20142   20141   20143   20145   20144   20146
   20148   20147   20149   20151   20150   20152   20154   20153   20155
   20157   20156   20158   20160   20159   20161   20163   20162   20164
   20166   20165   20167   20169   20168   20170   20172   20171   20173
   20175   20174   20176   20178   20177   20179   20181   20180   20182
   20184   20183   20185   20187   20186   20188   20190   20189   20191
   20193   20192   20194   20196   20195   20197   20199   20198   20200
   20202   20201   20203   20205   20204   20206   20208   20207   20209
   20211   20210   20212   20214   20213   20215   20217   20216   20218
   20220   20219   20221   20223   20222   20224   20226   20225   20227
   20229   20228   20230   20232   20231   20233   20235   20234   20236
   20238   20237   20239   20241   20240   20242   20244   20243   20245
   20247   20246   20248   20250   20249   20251   20253   20252   20254
   20256   20255   20257   20259   20258   20260   20262   20261   20263
   20265   20264   20266   20268   20267   20269   20271   20270   20272
   20274   20273   20275   20277   20276   20278   20280   20279   20281
   20283   20282   20284   20286   20285   20287   20289   20288   20290
   20292   20291   20293   20295   20294   20296   20298   20297   20299
   20301   20300   20302   20304   20303   20305   20307   20306   20308
   20310   20309   20311   20313   20312   20314   20316   20315   20317
   20319   20318   20320   20322   20321   20323   20325   20324   20326
   20328   20327   20329   20331   20330   20332   20334   20333   20335
   20337   20336   20338   20340   20339   20341   20343   20342   20344
   20346   20345   20347   20349   20348   20350   20352   20351   20353
   20355   20354   20356   20358   20357   20359   20361   20360   20362
   20364   20363   20365   20367   20366   20368   20370   20369   20371
   20373   20372   20374   20376   20375   20377   20379   20378   20380
   20382   20381   20383   20385   20384   20386   20388   20387   20389
   20391   20390   20392   20394   20393   20395   20397   20396   20398
   20400   20399   20401   20403   20402   20404   20406   20405   20407
   20409   20408   20410   20412   20411   20413   20415   20414   20416
   20418   20417   20419   20421   20420   20422   20424   20423   20425
   20427   20426   20428   20430   20429   20431   20433   20432   20434
   20436   20435   20437   20439   20438   20440   20442   20441   20443
   20445   20444   20446   20448   20447   20449   20451   20450   20452
   20454   20453   20455   20457   20456   20458   20460   20459   20461
   20463   20462   20464   20466   20465   20467   20469   20468   20470
   20472   20471   20473   20475   20474   20476   20478   20477   20479
   20481   20480   20482   20484   20483   20485   20487   20486   20488
   20490   20489   20491   20493   20492   20494   20496   20495   20497
   20499   20498   20500   20502   20501   20503   20505   20504   20506
   20508   20507   20509   20511   20510   20512   20514   20513   20515
   20517   20516   20518   20520   20519   20521   20523   20522   20524
   20526   20525   20527   20529   20528   20530   20532   20531   20533
   20535   20534   20536   20538   20537   20539   20541   20540   20542
   20544   20543   20545   20547   20546   20548   20550   20549   20551
   20553   20552   20554   20556   20555   20557   20559   20558   20560
   20562   20561   20563   20565   20564   20566   20568   20567   20569
   20571   20570   20572   20574   20573   20575   20577   20576   20578
   20580   20579   20581   20583   20582   20584   20586   20585   20587
   20589   20588   20590   20592   20591   20593   20595   20594   20596
   20598   20597   20599   20601   20600   20602   20604   20603   20605
   20607   20606   20608   20610   20609   20611   20613   20612   20614
   20616   20615   20617   20619   20618   20620   20622   20621   20623
   20625   20624   20626   20628   20627   20629   20631   20630   20632
   20634   20633   20635   20637   20636   20638   20640   20639   20641
   20643   20642   20644   20646   20645   20647   20649   20648   20650
   20652   20651   20653   20655   20654   20656   20658   20657   20659
   20661   20660   20662   20664   20663   20665   20667   20666   20668
   20670   20669   20671   20673   20672   20674   20676   20675   20677
   20679   20678   20680   20682   20681   20683   20685   20684   20686
   20688   20687   20689   20691   20690   20692   20694   20693   20695
   20697   20696   20698   20700   20699   20701   20703   20702   20704
   20706   20705   20707   20709   20708   20710   20712   20711   20713
   20715   20714   20716   20718   20717   20719   20721   20720   20722
   20724   20723   20725   20727   20726   20728   20730   20729   20731
   20733   20732   20734   20736   20735   20737   20739   20738   20740
   20742   20741   20743   20745   20744   20746   20748   20747   20749
   20751   20750   20752   20754   20753   20755   20757   20756   20758
   20760   20759   20761   20763   20762   20764   20766   20765   20767
   20769   20768   20770   20772   20771   20773   20775   20774   20776
   20778   20777   20779   20781   20780   20782   20784   20783   20785
   20787   20786   20788   20790   20789   20791   20793   20792   20794
   20796   20795   20797   20799   20798   20800   20802   20801   20803
   20805   20804   20806   20808   20807   20809   20811   20810   20812
   20814   20813   20815   20817   20816   20818   20820   20819   20821
   20823   20822   20824   20826   20825   20827   20829   20828   20830
   20832   20831   20833   20835   20834   20836   20838   20837   20839
   20841   20840   20842   20844   20843   20845   20847   20846   20848
   20850   20849   20851   20853   20852   20854   20856   20855   20857
   20859   20858   20860   20862   20861   20863   20865   20864   20866
   20868   20867   20869   20871   20870   20872   20874   20873   20875
   20877   20876   20878   20880   20879   20881   20883   20882   20884
   20886   20885   20887   20889   20888   20890   20892   20891   20893
   20895   20894   20896   20898   20897   20899   20901   20900   20902
   20904   20903   20905   20907   20906   20908   20910   20909   20911
   20913   20912   20914   20916   20915   20917   20919   20918   20920
   20922   20921   20923   20925   20924   20926   20928   20927   20929
   20931   20930   20932   20934   20933   20935   20937   20936   20938
   20940   20939   20941   20943   20942   20944   20946   20945   20947
   20949   20948   20950   20952   20951   20953   20955   20954   20956
   20958   20957   20959   20961   20960   20962   20964   20963   20965
   20967   20966   20968   20970   20969   20971   20973   20972   20974
   20976   20975   20977   20979   20978   20980   20982   20981   20983
   20985   20984   20986   20988   20987   20989   20991   20990   20992
   20994   20993   20995   20997   20996   20998   21000   20999   21001
   21003   21002   21004   21006   21005   21007   21009   21008   21010
   21012   21011   21013   21015   21014   21016   21018   21017   21019
   21021   21020   21022   21024   21023   21025   21027   21026   21028
   21030   21029   21031   21033   21032   21034   21036   21035   21037
   21039   21038   21040   21042   21041   21043   21045   21044   21046
   21048   21047   21049   21051   21050   21052   21054   21053   21055
   21057   21056   21058   21060   21059   21061   21063   21062   21064
   21066   21065   21067   21069   21068   21070   21072   21071   21073
   21075   21074   21076   21078   21077   21079   21081   21080   21082
   21084   21083   21085   21087   21086   21088   21090   21089   21091
   21093   21092   21094   21096   21095   21097   21099   21098   21100
   21102   21101   21103   21105   21104   21106   21108   21107   21109
   21111   21110   21112   21114   21113   21115   21117   21116   21118
   21120   21119   21121   21123   21122   21124   21126   21125   21127
   21129   21128   21130   21132   21131   21133   21135   21134   21136
   21138   21137   21139   21141   21140   21142   21144   21143   21145
   21147   21146   21148   21150   21149   21151   21153   21152   21154
   21156   21155   21157   21159   21158   21160   21162   21161   21163
   21165   21164   21166   21168   21167   21169   21171   21170   21172
   21174   21173   21175   21177   21176   21178   21180   21179   21181
   21183   21182   21184   21186   21185   21187   21189   21188   21190
   21192   21191   21193   21195   21194   21196   21198   21197   21199
   21201   21200   21202   21204   21203   21205   21207   21206   21208
   21210   21209   21211   21213   21212   21214   21216   21215   21217
   21219   21218   21220   21222   21221   21223   21225   21224   21226
   21228   21227   21229   21231   21230   21232   21234   21233   21235
   21237   21236   21238   21240   21239   21241   21243   21242   21244
   21246   21245   21247   21249   21248   21250   21252   21251   21253
   21255   21254   21256   21258   21257   21259   21261   21260   21262
   21264   21263   21265   21267   21266   21268   21270   21269   21271
   21273   21272   21274   21276   21275   21277   21279   21278   21280
   21282   21281   21283   21285   21284   21286   21288   21287   21289
   21291   21290   21292   21294   21293   21295   21297   21296   21298
   21300   21299   21301   21303   21302   21304   21306   21305   21307
   21309   21308   21310   21312   21311   21313   21315   21314   21316
   21318   21317   21319   21321   21320   21322   21324   21323   21325
   21327   21326   21328   21330   21329   21331   21333   21332   21334
   21336   21335   21337   21339   21338   21340   21342   21341   21343
   21345   21344   21346   21348   21347   21349   21351   21350   21352
   21354   21353   21355   21357   21356   21358   21360   21359   21361
   21363   21362   21364   21366   21365   21367   21369   21368   21370
   21372   21371   21373   21375   21374   21376   21378   21377   21379
   21381   21380   21382   21384   21383   21385   21387   21386   21388
   21390   21389   21391   21393   21392   21394   21396   21395   21397
   21399   21398   21400   21402   21401   21403   21405   21404   21406
   21408   21407   21409   21411   21410   21412   21414   21413   21415
   21417   21416   21418   21420   21419   21421   21423   21422   21424
   21426   21425   21427   21429   21428   21430   21432   21431   21433
   21435   21434   21436   21438   21437   21439   21441   21440   21442
   21444   21443   21445   21447   21446   21448   21450   21449   21451
   21453   21452   21454   21456   21455   21457   21459   21458   21460
   21462   21461   21463   21465   21464   21466   21468   21467   21469
   21471   21470   21472   21474   21473   21475   21477   21476   21478
   21480   21479   21481   21483   21482   21484   21486   21485   21487
   21489   21488   21490   21492   21491   21493   21495   21494   21496
   21498   21497   21499   21501   21500   21502   21504   21503   21505
   21507   21506   21508   21510   21509   21511   21513   21512   21514
   21516   21515   21517   21519   21518   21520   21522   21521   21523
   21525   21524   21526   21528   21527   21529   21531   21530   21532
   21534   21533   21535   21537   21536   21538   21540   21539   21541
   21543   21542   21544   21546   21545   21547   21549   21548   21550
   21552   21551   21553   21555   21554   21556   21558   21557   21559
   21561   21560   21562   21564   21563   21565   21567   21566   21568
   21570   21569   21571   21573   21572   21574   21576   21575   21577
   21579   21578   21580   21582   21581   21583   21585   21584   21586
   21588   21587   21589   21591   21590   21592   21594   21593   21595
   21597   21596   21598   21600   21599   21601   21603   21602   21604
   21606   21605   21607   21609   21608   21610   21612   21611   21613
   21615   21614   21616   21618   21617   21619   21621   21620   21622
   21624   21623   21625   21627   21626   21628   21630   21629   21631
   21633   21632   21634   21636   21635   21637   21639   21638   21640
   21642   21641   21643   21645   21644   21646   21648   21647   21649
   21651   21650   21652   21654   21653   21655   21657   21656   21658
   21660   21659   21661   21663   21662   21664   21666   21665   21667
   21669   21668   21670   21672   21671   21673   21675   21674   21676
   21678   21677   21679   21681   21680   21682   21684   21683   21685
   21687   21686   21688   21690   21689   21691   21693   21692   21694
   21696   21695   21697   21699   21698   21700   21702   21701   21703
   21705   21704   21706   21708   21707   21709   21711   21710   21712
   21714   21713   21715   21717   21716   21718   21720   21719   21721
   21723   21722   21724   21726   21725   21727   21729   21728   21730
   21732   21731   21733   21735   21734   21736   21738   21737   21739
   21741   21740   21742   21744   21743   21745   21747   21746   21748
   21750   21749   21751   21753   21752   21754   21756   21755   21757
   21759   21758   21760   21762   21761   21763   21765   21764   21766
   21768   21767   21769   21771   21770   21772   21774   21773   21775
   21777   21776   21778   21780   21779   21781   21783   21782   21784
   21786   21785   21787   21789   21788   21790   21792   21791   21793
   21795   21794   21796   21798   21797   21799   21801   21800   21802
   21804   21803   21805   21807   21806   21808   21810   21809   21811
   21813   21812   21814   21816   21815   21817   21819   21818   21820
   21822   21821   21823   21825   21824   21826   21828   21827   21829
   21831   21830   21832   21834   21833   21835   21837   21836   21838
   21840   21839   21841   21843   21842   21844   21846   21845   21847
   21849   21848   21850   21852   21851   21853   21855   21854   21856
   21858   21857   21859   21861   21860   21862   21864   21863   21865
   21867   21866   21868   21870   21869   21871   21873   21872   21874
   21876   21875   21877   21879   21878   21880   21882   21881   21883
   21885   21884   21886   21888   21887   21889   21891   21890   21892
   21894   21893   21895   21897   21896   21898   21900   21899   21901
   21903   21902   21904   21906   21905   21907   21909   21908   21910
   21912   21911   21913   21915   21914   21916   21918   21917   21919
   21921   21920   21922   21924   21923   21925   21927   21926   21928
   21930   21929   21931   21933   21932   21934   21936   21935   21937
   21939   21938   21940   21942   21941   21943   21945   21944   21946
   21948   21947   21949   21951   21950   21952   21954   21953   21955
   21957   21956   21958   21960   21959   21961   21963   21962   21964
   21966   21965   21967   21969   21968   21970   21972   21971   21973
   21975   21974   21976   21978   21977   21979   21981   21980   21982
   21984   21983   21985   21987   21986   21988   21990   21989   21991
   21993   21992   21994   21996   21995   21997   21999   21998   22000
   22002   22001   22003   22005   22004   22006   22008   22007   22009
   22011   22010   22012   22014   22013   22015   22017   22016   22018
   22020   22019   22021   22023   22022   22024   22026   22025   22027
   22029   22028   22030   22032   22031   22033   22035   22034   22036
   22038   22037   22039   22041   22040   22042   22044   22043   22045
   22047   22046   22048   22050   22049   22051   22053   22052   22054
   22056   22055   22057   22059   22058   22060   22062   22061   22063
   22065   22064   22066   22068   22067   22069   22071   22070   22072
   22074   22073   22075   22077   22076   22078   22080   22079   22081
   22083   22082   22084   22086   22085   22087   22089   22088   22090
   22092   22091   22093   22095   22094   22096   22098   22097   22099
   22101   22100   22102   22104   22103   22105   22107   22106   22108
   22110   22109   22111   22113   22112   22114   22116   22115   22117
   22119   22118   22120   22122   22121   22123   22125   22124   22126
   22128   22127   22129   22131   22130   22132   22134   22133   22135
   22137   22136   22138   22140   22139   22141   22143   22142   22144
   22146   22145   22147   22149   22148   22150   22152   22151   22153
   22155   22154   22156   22158   22157   22159   22161   22160   22162
   22164   22163   22165   22167   22166   22168   22170   22169   22171
   22173   22172   22174   22176   22175   22177   22179   22178   22180
   22182   22181   22183   22185   22184   22186   22188   22187   22189
   22191   22190   22192   22194   22193   22195   22197   22196   22198
   22200   22199   22201   22203   22202   22204   22206   22205   22207
   22209   22208   22210   22212   22211   22213   22215   22214   22216
   22218   22217   22219   22221   22220   22222   22224   22223   22225
   22227   22226   22228   22230   22229   22231   22233   22232   22234
   22236   22235   22237   22239   22238   22240   22242   22241   22243
   22245   22244   22246   22248   22247   22249   22251   22250   22252
   22254   22253   22255   22257   22256   22258   22260   22259   22261
   22263   22262   22264   22266   22265   22267   22269   22268   22270
   22272   22271   22273   22275   22274   22276   22278   22277   22279
   22281   22280   22282   22284   22283   22285   22287   22286   22288
   22290   22289   22291   22293   22292   22294   22296   22295   22297
   22299   22298   22300   22302   22301   22303   22305   22304   22306
   22308   22307   22309   22311   22310   22312   22314   22313   22315
   22317   22316   22318   22320   22319   22321   22323   22322   22324
   22326   22325   22327   22329   22328   22330   22332   22331   22333
   22335   22334   22336   22338   22337   22339   22341   22340   22342
   22344   22343   22345   22347   22346   22348   22350   22349   22351
   22353   22352   22354   22356   22355   22357   22359   22358   22360
   22362   22361   22363   22365   22364   22366   22368   22367   22369
   22371   22370   22372   22374   22373   22375   22377   22376   22378
   22380   22379   22381   22383   22382   22384   22386   22385   22387
   22389   22388   22390   22392   22391   22393   22395   22394   22396
   22398   22397   22399   22401   22400   22402   22404   22403   22405
   22407   22406   22408   22410   22409   22411   22413   22412   22414
   22416   22415   22417   22419   22418   22420   22422   22421   22423
   22425   22424   22426   22428   22427   22429   22431   22430   22432
   22434   22433   22435   22437   22436   22438   22440   22439   22441

   22339 !NPHI: dihedrals
       1       5       7       9       1       5       7       8
       2       1       5       6       2       1       5       7
       3       1       5       6       3       1       5       7
       4       1       5       6       4       1       5       7
       5       7       9      10       5       7       9      22
       5       7       9      11       6       5       7       9
       6       5       7       8       7       9      22      23
       7       9      22      24       7       9      11      13
       7       9      11      12       7       9      11      14
       8       7       9      10       8       7       9      22
       8       7       9      11       9      22      24      26
       9      22      24      25       9      11      14      16
       9      11      14      15       9      11      14      17
      10       9      22      23      10       9      22      24
      10       9      11      13      10       9      11      12
      10       9      11      14      11      14      17      18
      11      14      17      19      11       9      22      23
      11       9      22      24      12      11      14      16
      12      11      14      15      12      11      14      17
      12      11       9      22      13      11      14      16
      13      11      14      15      13      11      14      17
      13      11       9      22      14      17      19      21
      14      17      19      20      14      11       9      22
      15      14      17      18      15      14      17      19
      16      14      17      18      16      14      17      19
      18      17      19      21      18      17      19      20
      22      24      26      27      22      24      26      32
      22      24      26      28      23      22      24      26
      23      22      24      25      24      26      32      33
      24      26      32      34      24      26      28      31
      24      26      28      30      24      26      28      29
      25      24      26      27      25      24      26      32
      25      24      26      28      26      32      34      35
      26      32      34      38      27      26      32      33
      27      26      32      34      27      26      28      31
      27      26      28      30      27      26      28      29
      28      26      32      33      28      26      32      34
      29      28      26      32      30      28      26      32
      31      28      26      32      32      34      35      37
      32      34      35      36      32      34      35      43
      32      34      38      39      32      34      38      40
      32      34      38      46      33      32      34      35
      33      32      34      38      34      35      43      45
      34      35      43      44      34      35      43      40
      34      38      40      42      34      38      40      41
      34      38      40      43      34      38      46      47
      34      38      46      48      35      34      38      39
      35      34      38      40      35      34      38      46
      35      43      40      42      35      43      40      41
      35      43      40      38      36      35      34      38
      36      35      43      45      36      35      43      44
      36      35      43      40      37      35      34      38
      37      35      43      45      37      35      43      44
      37      35      43      40      38      40      43      45
      38      40      43      44      38      34      35      43
      38      46      48      50      38      46      48      49
      39      38      40      42      39      38      40      41
      39      38      40      43      39      38      46      47
      39      38      46      48      40      38      46      47
      40      38      46      48      41      40      43      45
      41      40      43      44      41      40      38      46
      42      40      43      45      42      40      43      44
      42      40      38      46      43      40      38      46
      46      48      50      51      46      48      50      56
      46      48      50      52      47      46      48      50
      47      46      48      49      48      50      56      57
      48      50      56      58      48      50      52      55
      48      50      52      54      48      50      52      53
      49      48      50      51      49      48      50      56
      49      48      50      52      50      56      58      60
      50      56      58      59      51      50      56      57
      51      50      56      58      51      50      52      55
      51      50      52      54      51      50      52      53
      52      50      56      57      52      50      56      58
      53      52      50      56      54      52      50      56
      55      52      50      56      56      58      60      61
      56      58      60      77      56      58      60      62
      57      56      58      60      57      56      58      59
      58      60      77      78      58      60      77      79
      58      60      62      64      58      60      62      63
      58      60      62      65      59      58      60      61
      59      58      60      77      59      58      60      62
      60      77      79      81      60      77      79      80
      60      62      65      66      60      62      65      73
      61      60      77      78      61      60      77      79
      61      60      62      64      61      60      62      63
      61      60      62      65      62      65      66      67
      62      65      66      68      62      65      73      75
      62      65      73      74      62      60      77      78
      62      60      77      79      63      62      65      66
      63      62      65      73      63      62      60      77
      64      62      65      66      64      62      65      73
      64      62      60      77      65      66      68      70
      65      66      68      69      65      73      75      76
      65      73      75      70      65      62      60      77
      66      65      73      75      66      65      73      74
      66      68      70      71      66      68      70      75
      67      66      65      73      67      66      68      70
      67      66      68      69      68      70      71      72
      68      70      75      73      68      70      75      76
      68      66      65      73      69      68      70      71
      69      68      70      75      70      75      73      74
      71      70      75      73      71      70      75      76
      72      71      70      75      74      73      75      76
      77      79      81      82      77      79      81      99
      77      79      81      83      78      77      79      81
      78      77      79      80      79      81      99     100
      79      81      99     101      79      81      83      85
      79      81      83      84      79      81      83      86
      80      79      81      82      80      79      81      99
      80      79      81      83      81      99     101     103
      81      99     101     102      81      83      86      88
      81      83      86      87      81      83      86      89
      82      81      99     100      82      81      99     101
      82      81      83      85      82      81      83      84
      82      81      83      86      83      86      89      91
      83      86      89      90      83      86      89      92
      83      81      99     100      83      81      99     101
      84      83      86      88      84      83      86      87
      84      83      86      89      84      83      81      99
      85      83      86      88      85      83      86      87
      85      83      86      89      85      83      81      99
      86      89      92      94      86      89      92      93
      86      89      92      95      86      83      81      99
      87      86      89      91      87      86      89      90
      87      86      89      92      88      86      89      91
      88      86      89      90      88      86      89      92
      89      92      95      98      89      92      95      97
      89      92      95      96      90      89      92      94
      90      89      92      93      90      89      92      95
      91      89      92      94      91      89      92      93
      91      89      92      95      93      92      95      98
      93      92      95      97      93      92      95      96
      94      92      95      98      94      92      95      97
      94      92      95      96      99     101     103     104
      99     101     103     121      99     101     103     105
     100      99     101     103     100      99     101     102
     101     103     121     122     101     103     121     123
     101     103     105     107     101     103     105     106
     101     103     105     108     102     101     103     104
     102     101     103     121     102     101     103     105
     103     121     123     125     103     121     123     124
     103     105     108     110     103     105     108     109
     103     105     108     111     104     103     121     122
     104     103     121     123     104     103     105     107
     104     103     105     106     104     103     105     108
     105     108     111     113     105     108     111     112
     105     108     111     114     105     103     121     122
     105     103     121     123     106     105     108     110
     106     105     108     109     106     105     108     111
     106     105     103     121     107     105     108     110
     107     105     108     109     107     105     108     111
     107     105     103     121     108     111     114     116
     108     111     114     115     108     111     114     117
     108     105     103     121     109     108     111     113
     109     108     111     112     109     108     111     114
     110     108     111     113     110     108     111     112
     110     108     111     114     111     114     117     120
     111     114     117     119     111     114     117     118
     112     111     114     116     112     111     114     115
     112     111     114     117     113     111     114     116
     113     111     114     115     113     111     114     117
     115     114     117     120     115     114     117     119
     115     114     117     118     116     114     117     120
     116     114     117     119     116     114     117     118
     121     123     125     126     121     123     125     131
     121     123     125     127     122     121     123     125
     122     121     123     124     123     125     131     132
     123     125     131     133     123     125     127     130
     123     125     127     129     123     125     127     128
     124     123     125     126     124     123     125     131
     124     123     125     127     125     131     133     135
     125     131     133     134     126     125     131     132
     126     125     131     133     126     125     127     130
     126     125     127     129     126     125     127     128
     127     125     131     132     127     125     131     133
     128     127     125     131     129     127     125     131
     130     127     125     131     131     133     135     136
     131     133     135     141     131     133     135     137
     132     131     133     135     132     131     133     134
     133     135     141     142     133     135     141     143
     133     135     137     140     133     135     137     139
     133     135     137     138     134     133     135     136
     134     133     135     141     134     133     135     137
     135     141     143     145     135     141     143     144
     136     135     141     142     136     135     141     143
     136     135     137     140     136     135     137     139
     136     135     137     138     137     135     141     142
     137     135     141     143     138     137     135     141
     139     137     135     141     140     137     135     141
     141     143     145     146     141     143     145     163
     141     143     145     147     142     141     143     145
     142     141     143     144     143     145     163     164
     143     145     163     165     143     145     147     149
     143     145     147     148     143     145     147     150
     144     143     145     146     144     143     145     163
     144     143     145     147     145     163     165     167
     145     163     165     166     145     147     150     152
     145     147     150     151     145     147     150     153
     146     145     163     164     146     145     163     165
     146     145     147     149     146     145     147     148
     146     145     147     150     147     150     153     155
     147     150     153     154     147     150     153     156
     147     145     163     164     147     145     163     165
     148     147     150     152     148     147     150     151
     148     147     150     153     148     147     145     163
     149     147     150     152     149     147     150     151
     149     147     150     153     149     147     145     163
     150     153     156     158     150     153     156     157
     150     153     156     159     150     147     145     163
     151     150     153     155     151     150     153     154
     151     150     153     156     152     150     153     155
     152     150     153     154     152     150     153     156
     153     156     159     162     153     156     159     161
     153     156     159     160     154     153     156     158
     154     153     156     157     154     153     156     159
     155     153     156     158     155     153     156     157
     155     153     156     159     157     156     159     162
     157     156     159     161     157     156     159     160
     158     156     159     162     158     156     159     161
     158     156     159     160     163     165     167     168
     163     165     167     185     163     165     167     169
     164     163     165     167     164     163     165     166
     165     167     185     186     165     167     185     187
     165     167     169     171     165     167     169     170
     165     167     169     172     166     165     167     168
     166     165     167     185     166     165     167     169
     167     185     187     189     167     185     187     188
     167     169     172     174     167     169     172     173
     167     169     172     175     168     167     185     186
     168     167     185     187     168     167     169     171
     168     167     169     170     168     167     169     172
     169     172     175     177     169     172     175     176
     169     172     175     178     169     167     185     186
     169     167     185     187     170     169     172     174
     170     169     172     173     170     169     172     175
     170     169     167     185     171     169     172     174
     171     169     172     173     171     169     172     175
     171     169     167     185     172     175     178     180
     172     175     178     179     172     175     178     181
     172     169     167     185     173     172     175     177
     173     172     175     176     173     172     175     178
     174     172     175     177     174     172     175     176
     174     172     175     178     175     178     181     184
     175     178     181     183     175     178     181     182
     176     175     178     180     176     175     178     179
     176     175     178     181     177     175     178     180
     177     175     178     179     177     175     178     181
     179     178     181     184     179     178     181     183
     179     178     181     182     180     178     181     184
     180     178     181     183     180     178     181     182
     185     187     189     190     185     187     189     204
     185     187     189     191     186     185     187     189
     186     185     187     188     187     189     204     205
     187     189     204     206     187     189     191     193
     187     189     191     192     187     189     191     194
     188     187     189     190     188     187     189     204
     188     187     189     191     189     204     206     208
     189     204     206     207     189     191     194     195
     189     191     194     200     189     191     194     196
     190     189     204     205     190     189     204     206
     190     189     191     193     190     189     191     192
     190     189     191     194     191     194     200     203
     191     194     200     202     191     194     200     201
     191     194     196     199     191     194     196     198
     191     194     196     197     191     189     204     205
     191     189     204     206     192     191     194     195
     192     191     194     200     192     191     194     196
     192     191     189     204     193     191     194     195
     193     191     194     200     193     191     194     196
     193     191     189     204     194     191     189     204
     195     194     200     203     195     194     200     202
     195     194     200     201     195     194     196     199
     195     194     196     198     195     194     196     197
     196     194     200     203     196     194     200     202
     196     194     200     201     197     196     194     200
     198     196     194     200     199     196     194     200
     204     206     208     209     204     206     208     214
     204     206     208     210     205     204     206     208
     205     204     206     207     206     208     214     215
     206     208     214     216     206     208     210     213
     206     208     210     212     206     208     210     211
     207     206     208     209     207     206     208     214
     207     206     208     210     208     214     216     218
     208     214     216     217     209     208     214     215
     209     208     214     216     209     208     210     213
     209     208     210     212     209     208     210     211
     210     208     214     215     210     208     214     216
     211     210     208     214     212     210     208     214
     213     210     208     214     214     216     218     219
     214     216     218     229     214     216     218     220
     215     214     216     218     215     214     216     217
     216     218     229     230     216     218     229     231
     216     218     220     222     216     218     220     221
     216     218     220     223     217     216     218     219
     217     216     218     229     217     216     218     220
     218     229     231     233     218     229     231     232
     218     220     223     225     218     220     223     224
     218     220     223     226     219     218     229     230
     219     218     229     231     219     218     220     222
     219     218     220     221     219     218     220     223
     220     223     226     227     220     223     226     228
     220     218     229     230     220     218     229     231
     221     220     223     225     221     220     223     224
     221     220     223     226     221     220     218     229
     222     220     223     225     222     220     223     224
     222     220     223     226     222     220     218     229
     223     220     218     229     224     223     226     227
     224     223     226     228     225     223     226     227
     225     223     226     228     229     231     233     234
     229     231     233     240     229     231     233     235
     230     229     231     233     230     229     231     232
     231     233     240     242     231     233     240     241
     231     233     235     237     231     233     235     236
     231     233     235     238     232     231     233     234
     232     231     233     240     232     231     233     235
     233     240     242     244     233     240     242     243
     233     235     238     239     234     233     240     242
     234     233     240     241     234     233     235     237
     234     233     235     236     234     233     235     238
     235     233     240     242     235     233     240     241
     236     235     238     239     236     235     233     240
     237     235     238     239     237     235     233     240
     238     235     233     240     240     242     244     247
     240     242     244     246     240     242     244     245
     241     240     242     244     241     240     242     243
     243     242     244     247     243     242     244     246
     243     242     244     245     248     252     255     256
     248     252     255     286     248     294     291     286
     248     294     291     293     248     294     291     292
     249     248     252     255     249     248     252     254
     249     248     252     253     249     248     294     291
     249     248     294     296     249     248     294     295
     249     248     250     251     250     248     252     255
     250     248     252     254     250     248     252     253
     250     248     294     291     250     248     294     296
     250     248     294     295     251     250     248     252
     251     250     248     294     252     255     256     258
     252     255     256     257     252     255     286     284
     252     255     286     287     252     255     286     291
     252     248     294     291     252     248     294     296
     252     248     294     295     253     252     255     256
     253     252     255     286     253     252     248     294
     254     252     255     256     254     252     255     286
     254     252     248     294     255     256     258     261
     255     256     258     260     255     256     258     259
     255     286     284     281     255     286     284     285
     255     286     284     261     255     286     287     290
     255     286     287     289     255     286     287     288
     255     286     291     293     255     286     291     292
     255     286     291     294     255     252     248     294
     256     258     261     263     256     258     261     284
     256     258     261     262     256     255     286     284
     256     255     286     287     256     255     286     291
     257     256     258     261     257     256     258     260
     257     256     258     259     257     256     255     286
     258     261     263     265     258     261     263     273
     258     261     263     264     258     261     284     281
     258     261     284     286     258     261     284     285
     258     256     255     286     259     258     261     263
     259     258     261     284     259     258     261     262
     260     258     261     263     260     258     261     284
     260     258     261     262     261     263     265     268
     261     263     265     267     261     263     265     266
     261     263     273     271     261     263     273     274
     261     263     273     278     261     284     281     283
     261     284     281     282     261     284     281     278
     261     284     286     287     261     284     286     291
     262     261     263     265     262     261     263     273
     262     261     263     264     262     261     284     281
     262     261     284     286     262     261     284     285
     263     265     268     271     263     265     268     270
     263     265     268     269     263     273     271     297
     263     273     271     272     263     273     271     268
     263     273     274     277     263     273     274     276
     263     273     274     275     263     273     278     281
     263     273     278     280     263     273     278     279
     263     261     284     281     263     261     284     286
     263     261     284     285     264     263     265     268
     264     263     265     267     264     263     265     266
     264     263     273     271     264     263     273     274
     264     263     273     278     264     263     261     284
     265     268     271     297     265     268     271     273
     265     268     271     272     265     263     273     271
     265     263     273     274     265     263     273     278
     265     263     261     284     266     265     268     271
     266     265     268     270     266     265     268     269
     266     265     263     273     267     265     268     271
     267     265     268     270     267     265     268     269
     267     265     263     273     268     271     297     303
     268     271     297     299     268     271     297     298
     268     271     273     274     268     271     273     278
     268     265     263     273     269     268     271     297
     269     268     271     273     269     268     271     272
     270     268     271     297     270     268     271     273
     270     268     271     272     271     297     303     306
     271     297     303     305     271     297     303     304
     271     297     299     302     271     297     299     301
     271     297     299     300     271     273     274     277
     271     273     274     276     271     273     274     275
     271     273     278     281     271     273     278     280
     271     273     278     279     272     271     297     303
     272     271     297     299     272     271     297     298
     272     271     273     274     272     271     273     278
     273     271     297     303     273     271     297     299
     273     271     297     298     273     278     281     284
     273     278     281     283     273     278     281     282
     273     263     261     284     274     273     271     297
     274     273     278     281     274     273     278     280
     274     273     278     279     275     274     273     278
     276     274     273     278     277     274     273     278
     278     281     284     286     278     281     284     285
     278     273     271     297     279     278     281     284
     279     278     281     283     279     278     281     282
     280     278     281     284     280     278     281     283
     280     278     281     282     281     284     286     287
     281     284     286     291     282     281     284     286
     282     281     284     285     283     281     284     286
     283     281     284     285     284     286     287     290
     284     286     287     289     284     286     287     288
     284     286     291     293     284     286     291     292
     284     286     291     294     285     284     286     287
     285     284     286     291     286     291     294     296
     286     291     294     295     287     286     291     293
     287     286     291     292     287     286     291     294
     288     287     286     291     289     287     286     291
     290     287     286     291     292     291     294     296
     292     291     294     295     293     291     294     296
     293     291     294     295     297     303     306     309
     297     303     306     308     297     303     306     307
     298     297     303     306     298     297     303     305
     298     297     303     304     298     297     299     302
     298     297     299     301     298     297     299     300
     299     297     303     306     299     297     303     305
     299     297     303     304     300     299     297     303
     301     299     297     303     302     299     297     303
     303     306     309     312     303     306     309     311
     303     306     309     310     304     303     306     309
     304     303     306     308     304     303     306     307
     305     303     306     309     305     303     306     308
     305     303     306     307     306     309     312     318
     306     309     312     314     306     309     312     313
     307     306     309     312     307     306     309     311
     307     306     309     310     308     306     309     312
     308     306     309     311     308     306     309     310
     309     312     318     321     309     312     318     320
     309     312     318     319     309     312     314     317
     309     312     314     316     309     312     314     315
     310     309     312     318     310     309     312     314
     310     309     312     313     311     309     312     318
     311     309     312     314     311     309     312     313
     313     312     318     321     313     312     318     320
     313     312     318     319     313     312     314     317
     313     312     314     316     313     312     314     315
     314     312     318     321     314     312     318     320
     314     312     318     319     315     314     312     318
     316     314     312     318     317     314     312     318
     322     326     329     330     322     326     329     360
     322     368     365     360     322     368     365     367
     322     368     365     366     323     322     326     329
     323     322     326     328     323     322     326     327
     323     322     368     365     323     322     368     370
     323     322     368     369     323     322     324     325
     324     322     326     329     324     322     326     328
     324     322     326     327     324     322     368     365
     324     322     368     370     324     322     368     369
     325     324     322     326     325     324     322     368
     326     329     330     332     326     329     330     331
     326     329     360     358     326     329     360     361
     326     329     360     365     326     322     368     365
     326     322     368     370     326     322     368     369
     327     326     329     330     327     326     329     360
     327     326     322     368     328     326     329     330
     328     326     329     360     328     326     322     368
     329     330     332     335     329     330     332     334
     329     330     332     333     329     360     358     355
     329     360     358     359     329     360     358     335
     329     360     361     364     329     360     361     363
     329     360     361     362     329     360     365     367
     329     360     365     366     329     360     365     368
     329     326     322     368     330     332     335     337
     330     332     335     358     330     332     335     336
     330     329     360     358     330     329     360     361
     330     329     360     365     331     330     332     335
     331     330     332     334     331     330     332     333
     331     330     329     360     332     335     337     339
     332     335     337     347     332     335     337     338
     332     335     358     355     332     335     358     360
     332     335     358     359     332     330     329     360
     333     332     335     337     333     332     335     358
     333     332     335     336     334     332     335     337
     334     332     335     358     334     332     335     336
     335     337     339     342     335     337     339     341
     335     337     339     340     335     337     347     345
     335     337     347     348     335     337     347     352
     335     358     355     357     335     358     355     356
     335     358     355     352     335     358     360     361
     335     358     360     365     336     335     337     339
     336     335     337     347     336     335     337     338
     336     335     358     355     336     335     358     360
     336     335     358     359     337     339     342     345
     337     339     342     344     337     339     342     343
     337     347     345     371     337     347     345     346
     337     347     345     342     337     347     348     351
     337     347     348     350     337     347     348     349
     337     347     352     355     337     347     352     354
     337     347     352     353     337     335     358     355
     337     335     358     360     337     335     358     359
     338     337     339     342     338     337     339     341
     338     337     339     340     338     337     347     345
     338     337     347     348     338     337     347     352
     338     337     335     358     339     342     345     371
     339     342     345     347     339     342     345     346
     339     337     347     345     339     337     347     348
     339     337     347     352     339     337     335     358
     340     339     342     345     340     339     342     344
     340     339     342     343     340     339     337     347
     341     339     342     345     341     339     342     344
     341     339     342     343     341     339     337     347
     342     345     371     377     342     345     371     373
     342     345     371     372     342     345     347     348
     342     345     347     352     342     339     337     347
     343     342     345     371     343     342     345     347
     343     342     345     346     344     342     345     371
     344     342     345     347     344     342     345     346
     345     371     377     380     345     371     377     379
     345     371     377     378     345     371     373     376
     345     371     373     375     345     371     373     374
     345     347     348     351     345     347     348     350
     345     347     348     349     345     347     352     355
     345     347     352     354     345     347     352     353
     346     345     371     377     346     345     371     373
     346     345     371     372     346     345     347     348
     346     345     347     352     347     345     371     377
     347     345     371     373     347     345     371     372
     347     352     355     358     347     352     355     357
     347     352     355     356     347     337     335     358
     348     347     345     371     348     347     352     355
     348     347     352     354     348     347     352     353
     349     348     347     352     350     348     347     352
     351     348     347     352     352     355     358     360
     352     355     358     359     352     347     345     371
     353     352     355     358     353     352     355     357
     353     352     355     356     354     352     355     358
     354     352     355     357     354     352     355     356
     355     358     360     361     355     358     360     365
     356     355     358     360     356     355     358     359
     357     355     358     360     357     355     358     359
     358     360     361     364     358     360     361     363
     358     360     361     362     358     360     365     367
     358     360     365     366     358     360     365     368
     359     358     360     361     359     358     360     365
     360     365     368     370     360     365     368     369
     361     360     365     367     361     360     365     366
     361     360     365     368     362     361     360     365
     363     361     360     365     364     361     360     365
     366     365     368     370     366     365     368     369
     367     365     368     370     367     365     368     369
     371     377     380     383     371     377     380     382
     371     377     380     381     372     371     377     380
     372     371     377     379     372     371     377     378
     372     371     373     376     372     371     373     375
     372     371     373     374     373     371     377     380
     373     371     377     379     373     371     377     378
     374     373     371     377     375     373     371     377
     376     373     371     377     377     380     383     386
     377     380     383     385     377     380     383     384
     378     377     380     383     378     377     380     382
     378     377     380     381     379     377     380     383
     379     377     380     382     379     377     380     381
     380     383     386     392     380     383     386     388
     380     383     386     387     381     380     383     386
     381     380     383     385     381     380     383     384
     382     380     383     386     382     380     383     385
     382     380     383     384     383     386     392     395
     383     386     392     394     383     386     392     393
     383     386     388     391     383     386     388     390
     383     386     388     389     384     383     386     392
     384     383     386     388     384     383     386     387
     385     383     386     392     385     383     386     388
     385     383     386     387     387     386     392     395
     387     386     392     394     387     386     392     393
     387     386     388     391     387     386     388     390
     387     386     388     389     388     386     392     395
     388     386     392     394     388     386     392     393
     389     388     386     392     390     388     386     392
     391     388     386     392     396     400     403     404
     396     400     403     434     396     442     439     434
     396     442     439     441     396     442     439     440
     397     396     400     403     397     396     400     402
     397     396     400     401     397     396     442     439
     397     396     442     444     397     396     442     443
     397     396     398     399     398     396     400     403
     398     396     400     402     398     396     400     401
     398     396     442     439     398     396     442     444
     398     396     442     443     399     398     396     400
     399     398     396     442     400     403     404     406
     400     403     404     405     400     403     434     432
     400     403     434     435     400     403     434     439
     400     396     442     439     400     396     442     444
     400     396     442     443     401     400     403     404
     401     400     403     434     401     400     396     442
     402     400     403     404     402     400     403     434
     402     400     396     442     403     404     406     409
     403     404     406     408     403     404     406     407
     403     434     432     429     403     434     432     433
     403     434     432     409     403     434     435     438
     403     434     435     437     403     434     435     436
     403     434     439     441     403     434     439     440
     403     434     439     442     403     400     396     442
     404     406     409     411     404     406     409     432
     404     406     409     410     404     403     434     432
     404     403     434     435     404     403     434     439
     405     404     406     409     405     404     406     408
     405     404     406     407     405     404     403     434
     406     409     411     413     406     409     411     421
     406     409     411     412     406     409     432     429
     406     409     432     434     406     409     432     433
     406     404     403     434     407     406     409     411
     407     406     409     432     407     406     409     410
     408     406     409     411     408     406     409     432
     408     406     409     410     409     411     413     416
     409     411     413     415     409     411     413     414
     409     411     421     419     409     411     421     422
     409     411     421     426     409     432     429     431
     409     432     429     430     409     432     429     426
     409     432     434     435     409     432     434     439
     410     409     411     413     410     409     411     421
     410     409     411     412     410     409     432     429
     410     409     432     434     410     409     432     433
     411     413     416     419     411     413     416     418
     411     413     416     417     411     421     419     445
     411     421     419     420     411     421     419     416
     411     421     422     425     411     421     422     424
     411     421     422     423     411     421     426     429
     411     421     426     428     411     421     426     427
     411     409     432     429     411     409     432     434
     411     409     432     433     412     411     413     416
     412     411     413     415     412     411     413     414
     412     411     421     419     412     411     421     422
     412     411     421     426     412     411     409     432
     413     416     419     445     413     416     419     421
     413     416     419     420     413     411     421     419
     413     411     421     422     413     411     421     426
     413     411     409     432     414     413     416     419
     414     413     416     418     414     413     416     417
     414     413     411     421     415     413     416     419
     415     413     416     418     415     413     416     417
     415     413     411     421     416     419     445     451
     416     419     445     447     416     419     445     446
     416     419     421     422     416     419     421     426
     416     413     411     421     417     416     419     445
     417     416     419     421     417     416     419     420
     418     416     419     445     418     416     419     421
     418     416     419     420     419     445     451     454
     419     445     451     453     419     445     451     452
     419     445     447     450     419     445     447     449
     419     445     447     448     419     421     422     425
     419     421     422     424     419     421     422     423
     419     421     426     429     419     421     426     428
     419     421     426     427     420     419     445     451
     420     419     445     447     420     419     445     446
     420     419     421     422     420     419     421     426
     421     419     445     451     421     419     445     447
     421     419     445     446     421     426     429     432
     421     426     429     431     421     426     429     430
     421     411     409     432     422     421     419     445
     422     421     426     429     422     421     426     428
     422     421     426     427     423     422     421     426
     424     422     421     426     425     422     421     426
     426     429     432     434     426     429     432     433
     426     421     419     445     427     426     429     432
     427     426     429     431     427     426     429     430
     428     426     429     432     428     426     429     431
     428     426     429     430     429     432     434     435
     429     432     434     439     430     429     432     434
     430     429     432     433     431     429     432     434
     431     429     432     433     432     434     435     438
     432     434     435     437     432     434     435     436
     432     434     439     441     432     434     439     440
     432     434     439     442     433     432     434     435
     433     432     434     439     434     439     442     444
     434     439     442     443     435     434     439     441
     435     434     439     440     435     434     439     442
     436     435     434     439     437     435     434     439
     438     435     434     439     440     439     442     444
     440     439     442     443     441     439     442     444
     441     439     442     443     445     451     454     457
     445     451     454     456     445     451     454     455
     446     445     451     454     446     445     451     453
     446     445     451     452     446     445     447     450
     446     445     447     449     446     445     447     448
     447     445     451     454     447     445     451     453
     447     445     451     452     448     447     445     451
     449     447     445     451     450     447     445     451
     451     454     457     460     451     454     457     459
     451     454     457     458     452     451     454     457
     452     451     454     456     452     451     454     455
     453     451     454     457     453     451     454     456
     453     451     454     455     454     457     460     466
     454     457     460     462     454     457     460     461
     455     454     457     460     455     454     457     459
     455     454     457     458     456     454     457     460
     456     454     457     459     456     454     457     458
     457     460     466     469     457     460     466     468
     457     460     466     467     457     460     462     465
     457     460     462     464     457     460     462     463
     458     457     460     466     458     457     460     462
     458     457     460     461     459     457     460     466
     459     457     460     462     459     457     460     461
     461     460     466     469     461     460     466     468
     461     460     466     467     461     460     462     465
     461     460     462     464     461     460     462     463
     462     460     466     469     462     460     466     468
     462     460     466     467     463     462     460     466
     464     462     460     466     465     462     460     466
     470     474     477     478     470     474     477     508
     470     516     513     508     470     516     513     515
     470     516     513     514     471     470     474     477
     471     470     474     476     471     470     474     475
     471     470     516     513     471     470     516     518
     471     470     516     517     471     470     472     473
     472     470     474     477     472     470     474     476
     472     470     474     475     472     470     516     513
     472     470     516     518     472     470     516     517
     473     472     470     474     473     472     470     516
     474     477     478     480     474     477     478     479
     474     477     508     506     474     477     508     509
     474     477     508     513     474     470     516     513
     474     470     516     518     474     470     516     517
     475     474     477     478     475     474     477     508
     475     474     470     516     476     474     477     478
     476     474     477     508     476     474     470     516
     477     478     480     483     477     478     480     482
     477     478     480     481     477     508     506     503
     477     508     506     507     477     508     506     483
     477     508     509     512     477     508     509     511
     477     508     509     510     477     508     513     515
     477     508     513     514     477     508     513     516
     477     474     470     516     478     480     483     485
     478     480     483     506     478     480     483     484
     478     477     508     506     478     477     508     509
     478     477     508     513     479     478     480     483
     479     478     480     482     479     478     480     481
     479     478     477     508     480     483     485     487
     480     483     485     495     480     483     485     486
     480     483     506     503     480     483     506     508
     480     483     506     507     480     478     477     508
     481     480     483     485     481     480     483     506
     481     480     483     484     482     480     483     485
     482     480     483     506     482     480     483     484
     483     485     487     490     483     485     487     489
     483     485     487     488     483     485     495     493
     483     485     495     496     483     485     495     500
     483     506     503     505     483     506     503     504
     483     506     503     500     483     506     508     509
     483     506     508     513     484     483     485     487
     484     483     485     495     484     483     485     486
     484     483     506     503     484     483     506     508
     484     483     506     507     485     487     490     493
     485     487     490     492     485     487     490     491
     485     495     493     519     485     495     493     494
     485     495     493     490     485     495     496     499
     485     495     496     498     485     495     496     497
     485     495     500     503     485     495     500     502
     485     495     500     501     485     483     506     503
     485     483     506     508     485     483     506     507
     486     485     487     490     486     485     487     489
     486     485     487     488     486     485     495     493
     486     485     495     496     486     485     495     500
     486     485     483     506     487     490     493     519
     487     490     493     495     487     490     493     494
     487     485     495     493     487     485     495     496
     487     485     495     500     487     485     483     506
     488     487     490     493     488     487     490     492
     488     487     490     491     488     487     485     495
     489     487     490     493     489     487     490     492
     489     487     490     491     489     487     485     495
     490     493     519     525     490     493     519     521
     490     493     519     520     490     493     495     496
     490     493     495     500     490     487     485     495
     491     490     493     519     491     490     493     495
     491     490     493     494     492     490     493     519
     492     490     493     495     492     490     493     494
     493     519     525     528     493     519     525     527
     493     519     525     526     493     519     521     524
     493     519     521     523     493     519     521     522
     493     495     496     499     493     495     496     498
     493     495     496     497     493     495     500     503
     493     495     500     502     493     495     500     501
     494     493     519     525     494     493     519     521
     494     493     519     520     494     493     495     496
     494     493     495     500     495     493     519     525
     495     493     519     521     495     493     519     520
     495     500     503     506     495     500     503     505
     495     500     503     504     495     485     483     506
     496     495     493     519     496     495     500     503
     496     495     500     502     496     495     500     501
     497     496     495     500     498     496     495     500
     499     496     495     500     500     503     506     508
     500     503     506     507     500     495     493     519
     501     500     503     506     501     500     503     505
     501     500     503     504     502     500     503     506
     502     500     503     505     502     500     503     504
     503     506     508     509     503     506     508     513
     504     503     506     508     504     503     506     507
     505     503     506     508     505     503     506     507
     506     508     509     512     506     508     509     511
     506     508     509     510     506     508     513     515
     506     508     513     514     506     508     513     516
     507     506     508     509     507     506     508     513
     508     513     516     518     508     513     516     517
     509     508     513     515     509     508     513     514
     509     508     513     516     510     509     508     513
     511     509     508     513     512     509     508     513
     514     513     516     518     514     513     516     517
     515     513     516     518     515     513     516     517
     519     525     528     531     519     525     528     530
     519     525     528     529     520     519     525     528
     520     519     525     527     520     519     525     526
     520     519     521     524     520     519     521     523
     520     519     521     522     521     519     525     528
     521     519     525     527     521     519     525     526
     522     521     519     525     523     521     519     525
     524     521     519     525     525     528     531     534
     525     528     531     533     525     528     531     532
     526     525     528     531     526     525     528     530
     526     525     528     529     527     525     528     531
     527     525     528     530     527     525     528     529
     528     531     534     540     528     531     534     536
     528     531     534     535     529     528     531     534
     529     528     531     533     529     528     531     532
     530     528     531     534     530     528     531     533
     530     528     531     532     531     534     540     543
     531     534     540     542     531     534     540     541
     531     534     536     539     531     534     536     538
     531     534     536     537     532     531     534     540
     532     531     534     536     532     531     534     535
     533     531     534     540     533     531     534     536
     533     531     534     535     535     534     540     543
     535     534     540     542     535     534     540     541
     535     534     536     539     535     534     536     538
     535     534     536     537     536     534     540     543
     536     534     540     542     536     534     540     541
     537     536     534     540     538     536     534     540
     539     536     534     540     544     548     551     552
     544     548     551     582     544     590     587     582
     544     590     587     589     544     590     587     588
     545     544     548     551     545     544     548     550
     545     544     548     549     545     544     590     587
     545     544     590     592     545     544     590     591
     545     544     546     547     546     544     548     551
     546     544     548     550     546     544     548     549
     546     544     590     587     546     544     590     592
     546     544     590     591     547     546     544     548
     547     546     544     590     548     551     552     554
     548     551     552     553     548     551     582     580
     548     551     582     583     548     551     582     587
     548     544     590     587     548     544     590     592
     548     544     590     591     549     548     551     552
     549     548     551     582     549     548     544     590
     550     548     551     552     550     548     551     582
     550     548     544     590     551     552     554     557
     551     552     554     556     551     552     554     555
     551     582     580     577     551     582     580     581
     551     582     580     557     551     582     583     586
     551     582     583     585     551     582     583     584
     551     582     587     589     551     582     587     588
     551     582     587     590     551     548     544     590
     552     554     557     559     552     554     557     580
     552     554     557     558     552     551     582     580
     552     551     582     583     552     551     582     587
     553     552     554     557     553     552     554     556
     553     552     554     555     553     552     551     582
     554     557     559     561     554     557     559     569
     554     557     559     560     554     557     580     577
     554     557     580     582     554     557     580     581
     554     552     551     582     555     554     557     559
     555     554     557     580     555     554     557     558
     556     554     557     559     556     554     557     580
     556     554     557     558     557     559     561     564
     557     559     561     563     557     559     561     562
     557     559     569     567     557     559     569     570
     557     559     569     574     557     580     577     579
     557     580     577     578     557     580     577     574
     557     580     582     583     557     580     582     587
     558     557     559     561     558     557     559     569
     558     557     559     560     558     557     580     577
     558     557     580     582     558     557     580     581
     559     561     564     567     559     561     564     566
     559     561     564     565     559     569     567     593
     559     569     567     568     559     569     567     564
     559     569     570     573     559     569     570     572
     559     569     570     571     559     569     574     577
     559     569     574     576     559     569     574     575
     559     557     580     577     559     557     580     582
     559     557     580     581     560     559     561     564
     560     559     561     563     560     559     561     562
     560     559     569     567     560     559     569     570
     560     559     569     574     560     559     557     580
     561     564     567     593     561     564     567     569
     561     564     567     568     561     559     569     567
     561     559     569     570     561     559     569     574
     561     559     557     580     562     561     564     567
     562     561     564     566     562     561     564     565
     562     561     559     569     563     561     564     567
     563     561     564     566     563     561     564     565
     563     561     559     569     564     567     593     599
     564     567     593     595     564     567     593     594
     564     567     569     570     564     567     569     574
     564     561     559     569     565     564     567     593
     565     564     567     569     565     564     567     568
     566     564     567     593     566     564     567     569
     566     564     567     568     567     593     599     602
     567     593     599     601     567     593     599     600
     567     593     595     598     567     593     595     597
     567     593     595     596     567     569     570     573
     567     569     570     572     567     569     570     571
     567     569     574     577     567     569     574     576
     567     569     574     575     568     567     593     599
     568     567     593     595     568     567     593     594
     568     567     569     570     568     567     569     574
     569     567     593     599     569     567     593     595
     569     567     593     594     569     574     577     580
     569     574     577     579     569     574     577     578
     569     559     557     580     570     569     567     593
     570     569     574     577     570     569     574     576
     570     569     574     575     571     570     569     574
     572     570     569     574     573     570     569     574
     574     577     580     582     574     577     580     581
     574     569     567     593     575     574     577     580
     575     574     577     579     575     574     577     578
     576     574     577     580     576     574     577     579
     576     574     577     578     577     580     582     583
     577     580     582     587     578     577     580     582
     578     577     580     581     579     577     580     582
     579     577     580     581     580     582     583     586
     580     582     583     585     580     582     583     584
     580     582     587     589     580     582     587     588
     580     582     587     590     581     580     582     583
     581     580     582     587     582     587     590     592
     582     587     590     591     583     582     587     589
     583     582     587     588     583     582     587     590
     584     583     582     587     585     583     582     587
     586     583     582     587     588     587     590     592
     588     587     590     591     589     587     590     592
     589     587     590     591     593     599     602     605
     593     599     602     604     593     599     602     603
     594     593     599     602     594     593     599     601
     594     593     599     600     594     593     595     598
     594     593     595     597     594     593     595     596
     595     593     599     602     595     593     599     601
     595     593     599     600     596     595     593     599
     597     595     593     599     598     595     593     599
     599     602     605     608     599     602     605     607
     599     602     605     606     600     599     602     605
     600     599     602     604     600     599     602     603
     601     599     602     605     601     599     602     604
     601     599     602     603     602     605     608     614
     602     605     608     610     602     605     608     609
     603     602     605     608     603     602     605     607
     603     602     605     606     604     602     605     608
     604     602     605     607     604     602     605     606
     605     608     614     617     605     608     614     616
     605     608     614     615     605     608     610     613
     605     608     610     612     605     608     610     611
     606     605     608     614     606     605     608     610
     606     605     608     609     607     605     608     614
     607     605     608     610     607     605     608     609
     609     608     614     617     609     608     614     616
     609     608     614     615     609     608     610     613
     609     608     610     612     609     608     610     611
     610     608     614     617     610     608     614     616
     610     608     614     615     611     610     608     614
     612     610     608     614     613     610     608     614
     618     622     625     626     618     622     625     656
     618     664     661     656     618     664     661     663
     618     664     661     662     619     618     622     625
     619     618     622     624     619     618     622     623
     619     618     664     661     619     618     664     666
     619     618     664     665     619     618     620     621
     620     618     622     625     620     618     622     624
     620     618     622     623     620     618     664     661
     620     618     664     666     620     618     664     665
     621     620     618     622     621     620     618     664
     622     625     626     628     622     625     626     627
     622     625     656     654     622     625     656     657
     622     625     656     661     622     618     664     661
     622     618     664     666     622     618     664     665
     623     622     625     626     623     622     625     656
     623     622     618     664     624     622     625     626
     624     622     625     656     624     622     618     664
     625     626     628     631     625     626     628     630
     625     626     628     629     625     656     654     651
     625     656     654     655     625     656     654     631
     625     656     657     660     625     656     657     659
     625     656     657     658     625     656     661     663
     625     656     661     662     625     656     661     664
     625     622     618     664     626     628     631     633
     626     628     631     654     626     628     631     632
     626     625     656     654     626     625     656     657
     626     625     656     661     627     626     628     631
     627     626     628     630     627     626     628     629
     627     626     625     656     628     631     633     635
     628     631     633     643     628     631     633     634
     628     631     654     651     628     631     654     656
     628     631     654     655     628     626     625     656
     629     628     631     633     629     628     631     654
     629     628     631     632     630     628     631     633
     630     628     631     654     630     628     631     632
     631     633     635     638     631     633     635     637
     631     633     635     636     631     633     643     641
     631     633     643     644     631     633     643     648
     631     654     651     653     631     654     651     652
     631     654     651     648     631     654     656     657
     631     654     656     661     632     631     633     635
     632     631     633     643     632     631     633     634
     632     631     654     651     632     631     654     656
     632     631     654     655     633     635     638     641
     633     635     638     640     633     635     638     639
     633     643     641     667     633     643     641     642
     633     643     641     638     633     643     644     647
     633     643     644     646     633     643     644     645
     633     643     648     651     633     643     648     650
     633     643     648     649     633     631     654     651
     633     631     654     656     633     631     654     655
     634     633     635     638     634     633     635     637
     634     633     635     636     634     633     643     641
     634     633     643     644     634     633     643     648
     634     633     631     654     635     638     641     667
     635     638     641     643     635     638     641     642
     635     633     643     641     635     633     643     644
     635     633     643     648     635     633     631     654
     636     635     638     641     636     635     638     640
     636     635     638     639     636     635     633     643
     637     635     638     641     637     635     638     640
     637     635     638     639     637     635     633     643
     638     641     667     673     638     641     667     669
     638     641     667     668     638     641     643     644
     638     641     643     648     638     635     633     643
     639     638     641     667     639     638     641     643
     639     638     641     642     640     638     641     667
     640     638     641     643     640     638     641     642
     641     667     673     676     641     667     673     675
     641     667     673     674     641     667     669     672
     641     667     669     671     641     667     669     670
     641     643     644     647     641     643     644     646
     641     643     644     645     641     643     648     651
     641     643     648     650     641     643     648     649
     642     641     667     673     642     641     667     669
     642     641     667     668     642     641     643     644
     642     641     643     648     643     641     667     673
     643     641     667     669     643     641     667     668
     643     648     651     654     643     648     651     653
     643     648     651     652     643     633     631     654
     644     643     641     667     644     643     648     651
     644     643     648     650     644     643     648     649
     645     644     643     648     646     644     643     648
     647     644     643     648     648     651     654     656
     648     651     654     655     648     643     641     667
     649     648     651     654     649     648     651     653
     649     648     651     652     650     648     651     654
     650     648     651     653     650     648     651     652
     651     654     656     657     651     654     656     661
     652     651     654     656     652     651     654     655
     653     651     654     656     653     651     654     655
     654     656     657     660     654     656     657     659
     654     656     657     658     654     656     661     663
     654     656     661     662     654     656     661     664
     655     654     656     657     655     654     656     661
     656     661     664     666     656     661     664     665
     657     656     661     663     657     656     661     662
     657     656     661     664     658     657     656     661
     659     657     656     661     660     657     656     661
     662     661     664     666     662     661     664     665
     663     661     664     666     663     661     664     665
     667     673     676     679     667     673     676     678
     667     673     676     677     668     667     673     676
     668     667     673     675     668     667     673     674
     668     667     669     672     668     667     669     671
     668     667     669     670     669     667     673     676
     669     667     673     675     669     667     673     674
     670     669     667     673     671     669     667     673
     672     669     667     673     673     676     679     682
     673     676     679     681     673     676     679     680
     674     673     676     679     674     673     676     678
     674     673     676     677     675     673     676     679
     675     673     676     678     675     673     676     677
     676     679     682     688     676     679     682     684
     676     679     682     683     677     676     679     682
     677     676     679     681     677     676     679     680
     678     676     679     682     678     676     679     681
     678     676     679     680     679     682     688     691
     679     682     688     690     679     682     688     689
     679     682     684     687     679     682     684     686
     679     682     684     685     680     679     682     688
     680     679     682     684     680     679     682     683
     681     679     682     688     681     679     682     684
     681     679     682     683     683     682     688     691
     683     682     688     690     683     682     688     689
     683     682     684     687     683     682     684     686
     683     682     684     685     684     682     688     691
     684     682     688     690     684     682     688     689
     685     684     682     688     686     684     682     688
     687     684     682     688     692     696     699     700
     692     696     699     730     692     738     735     730
     692     738     735     737     692     738     735     736
     693     692     696     699     693     692     696     698
     693     692     696     697     693     692     738     735
     693     692     738     740     693     692     738     739
     693     692     694     695     694     692     696     699
     694     692     696     698     694     692     696     697
     694     692     738     735     694     692     738     740
     694     692     738     739     695     694     692     696
     695     694     692     738     696     699     700     702
     696     699     700     701     696     699     730     728
     696     699     730     731     696     699     730     735
     696     692     738     735     696     692     738     740
     696     692     738     739     697     696     699     700
     697     696     699     730     697     696     692     738
     698     696     699     700     698     696     699     730
     698     696     692     738     699     700     702     705
     699     700     702     704     699     700     702     703
     699     730     728     725     699     730     728     729
     699     730     728     705     699     730     731     734
     699     730     731     733     699     730     731     732
     699     730     735     737     699     730     735     736
     699     730     735     738     699     696     692     738
     700     702     705     707     700     702     705     728
     700     702     705     706     700     699     730     728
     700     699     730     731     700     699     730     735
     701     700     702     705     701     700     702     704
     701     700     702     703     701     700     699     730
     702     705     707     709     702     705     707     717
     702     705     707     708     702     705     728     725
     702     705     728     730     702     705     728     729
     702     700     699     730     703     702     705     707
     703     702     705     728     703     702     705     706
     704     702     705     707     704     702     705     728
     704     702     705     706     705     707     709     712
     705     707     709     711     705     707     709     710
     705     707     717     715     705     707     717     718
     705     707     717     722     705     728     725     727
     705     728     725     726     705     728     725     722
     705     728     730     731     705     728     730     735
     706     705     707     709     706     705     707     717
     706     705     707     708     706     705     728     725
     706     705     728     730     706     705     728     729
     707     709     712     715     707     709     712     714
     707     709     712     713     707     717     715     741
     707     717     715     716     707     717     715     712
     707     717     718     721     707     717     718     720
     707     717     718     719     707     717     722     725
     707     717     722     724     707     717     722     723
     707     705     728     725     707     705     728     730
     707     705     728     729     708     707     709     712
     708     707     709     711     708     707     709     710
     708     707     717     715     708     707     717     718
     708     707     717     722     708     707     705     728
     709     712     715     741     709     712     715     717
     709     712     715     716     709     707     717     715
     709     707     717     718     709     707     717     722
     709     707     705     728     710     709     712     715
     710     709     712     714     710     709     712     713
     710     709     707     717     711     709     712     715
     711     709     712     714     711     709     712     713
     711     709     707     717     712     715     741     747
     712     715     741     743     712     715     741     742
     712     715     717     718     712     715     717     722
     712     709     707     717     713     712     715     741
     713     712     715     717     713     712     715     716
     714     712     715     741     714     712     715     717
     714     712     715     716     715     741     747     750
     715     741     747     749     715     741     747     748
     715     741     743     746     715     741     743     745
     715     741     743     744     715     717     718     721
     715     717     718     720     715     717     718     719
     715     717     722     725     715     717     722     724
     715     717     722     723     716     715     741     747
     716     715     741     743     716     715     741     742
     716     715     717     718     716     715     717     722
     717     715     741     747     717     715     741     743
     717     715     741     742     717     722     725     728
     717     722     725     727     717     722     725     726
     717     707     705     728     718     717     715     741
     718     717     722     725     718     717     722     724
     718     717     722     723     719     718     717     722
     720     718     717     722     721     718     717     722
     722     725     728     730     722     725     728     729
     722     717     715     741     723     722     725     728
     723     722     725     727     723     722     725     726
     724     722     725     728     724     722     725     727
     724     722     725     726     725     728     730     731
     725     728     730     735     726     725     728     730
     726     725     728     729     727     725     728     730
     727     725     728     729     728     730     731     734
     728     730     731     733     728     730     731     732
     728     730     735     737     728     730     735     736
     728     730     735     738     729     728     730     731
     729     728     730     735     730     735     738     740
     730     735     738     739     731     730     735     737
     731     730     735     736     731     730     735     738
     732     731     730     735     733     731     730     735
     734     731     730     735     736     735     738     740
     736     735     738     739     737     735     738     740
     737     735     738     739     741     747     750     753
     741     747     750     752     741     747     750     751
     742     741     747     750     742     741     747     749
     742     741     747     748     742     741     743     746
     742     741     743     745     742     741     743     744
     743     741     747     750     743     741     747     749
     743     741     747     748     744     743     741     747
     745     743     741     747     746     743     741     747
     747     750     753     756     747     750     753     755
     747     750     753     754     748     747     750     753
     748     747     750     752     748     747     750     751
     749     747     750     753     749     747     750     752
     749     747     750     751     750     753     756     762
     750     753     756     758     750     753     756     757
     751     750     753     756     751     750     753     755
     751     750     753     754     752     750     753     756
     752     750     753     755     752     750     753     754
     753     756     762     765     753     756     762     764
     753     756     762     763     753     756     758     761
     753     756     758     760     753     756     758     759
     754     753     756     762     754     753     756     758
     754     753     756     757     755     753     756     762
     755     753     756     758     755     753     756     757
     757     756     762     765     757     756     762     764
     757     756     762     763     757     756     758     761
     757     756     758     760     757     756     758     759
     758     756     762     765     758     756     762     764
     758     756     762     763     759     758     756     762
     760     758     756     762     761     758     756     762
     766     770     773     774     766     770     773     804
     766     812     809     804     766     812     809     811
     766     812     809     810     767     766     770     773
     767     766     770     772     767     766     770     771
     767     766     812     809     767     766     812     814
     767     766     812     813     767     766     768     769
     768     766     770     773     768     766     770     772
     768     766     770     771     768     766     812     809
     768     766     812     814     768     766     812     813
     769     768     766     770     769     768     766     812
     770     773     774     776     770     773     774     775
     770     773     804     802     770     773     804     805
     770     773     804     809     770     766     812     809
     770     766     812     814     770     766     812     813
     771     770     773     774     771     770     773     804
     771     770     766     812     772     770     773     774
     772     770     773     804     772     770     766     812
     773     774     776     779     773     774     776     778
     773     774     776     777     773     804     802     799
     773     804     802     803     773     804     802     779
     773     804     805     808     773     804     805     807
     773     804     805     806     773     804     809     811
     773     804     809     810     773     804     809     812
     773     770     766     812     774     776     779     781
     774     776     779     802     774     776     779     780
     774     773     804     802     774     773     804     805
     774     773     804     809     775     774     776     779
     775     774     776     778     775     774     776     777
     775     774     773     804     776     779     781     783
     776     779     781     791     776     779     781     782
     776     779     802     799     776     779     802     804
     776     779     802     803     776     774     773     804
     777     776     779     781     777     776     779     802
     777     776     779     780     778     776     779     781
     778     776     779     802     778     776     779     780
     779     781     783     786     779     781     783     785
     779     781     783     784     779     781     791     789
     779     781     791     792     779     781     791     796
     779     802     799     801     779     802     799     800
     779     802     799     796     779     802     804     805
     779     802     804     809     780     779     781     783
     780     779     781     791     780     779     781     782
     780     779     802     799     780     779     802     804
     780     779     802     803     781     783     786     789
     781     783     786     788     781     783     786     787
     781     791     789     815     781     791     789     790
     781     791     789     786     781     791     792     795
     781     791     792     794     781     791     792     793
     781     791     796     799     781     791     796     798
     781     791     796     797     781     779     802     799
     781     779     802     804     781     779     802     803
     782     781     783     786     782     781     783     785
     782     781     783     784     782     781     791     789
     782     781     791     792     782     781     791     796
     782     781     779     802     783     786     789     815
     783     786     789     791     783     786     789     790
     783     781     791     789     783     781     791     792
     783     781     791     796     783     781     779     802
     784     783     786     789     784     783     786     788
     784     783     786     787     784     783     781     791
     785     783     786     789     785     783     786     788
     785     783     786     787     785     783     781     791
     786     789     815     821     786     789     815     817
     786     789     815     816     786     789     791     792
     786     789     791     796     786     783     781     791
     787     786     789     815     787     786     789     791
     787     786     789     790     788     786     789     815
     788     786     789     791     788     786     789     790
     789     815     821     824     789     815     821     823
     789     815     821     822     789     815     817     820
     789     815     817     819     789     815     817     818
     789     791     792     795     789     791     792     794
     789     791     792     793     789     791     796     799
     789     791     796     798     789     791     796     797
     790     789     815     821     790     789     815     817
     790     789     815     816     790     789     791     792
     790     789     791     796     791     789     815     821
     791     789     815     817     791     789     815     816
     791     796     799     802     791     796     799     801
     791     796     799     800     791     781     779     802
     792     791     789     815     792     791     796     799
     792     791     796     798     792     791     796     797
     793     792     791     796     794     792     791     796
     795     792     791     796     796     799     802     804
     796     799     802     803     796     791     789     815
     797     796     799     802     797     796     799     801
     797     796     799     800     798     796     799     802
     798     796     799     801     798     796     799     800
     799     802     804     805     799     802     804     809
     800     799     802     804     800     799     802     803
     801     799     802     804     801     799     802     803
     802     804     805     808     802     804     805     807
     802     804     805     806     802     804     809     811
     802     804     809     810     802     804     809     812
     803     802     804     805     803     802     804     809
     804     809     812     814     804     809     812     813
     805     804     809     811     805     804     809     810
     805     804     809     812     806     805     804     809
     807     805     804     809     808     805     804     809
     810     809     812     814     810     809     812     813
     811     809     812     814     811     809     812     813
     815     821     824     827     815     821     824     826
     815     821     824     825     816     815     821     824
     816     815     821     823     816     815     821     822
     816     815     817     820     816     815     817     819
     816     815     817     818     817     815     821     824
     817     815     821     823     817     815     821     822
     818     817     815     821     819     817     815     821
     820     817     815     821     821     824     827     830
     821     824     827     829     821     824     827     828
     822     821     824     827     822     821     824     826
     822     821     824     825     823     821     824     827
     823     821     824     826     823     821     824     825
     824     827     830     836     824     827     830     832
     824     827     830     831     825     824     827     830
     825     824     827     829     825     824     827     828
     826     824     827     830     826     824     827     829
     826     824     827     828     827     830     836     839
     827     830     836     838     827     830     836     837
     827     830     832     835     827     830     832     834
     827     830     832     833     828     827     830     836
     828     827     830     832     828     827     830     831
     829     827     830     836     829     827     830     832
     829     827     830     831     831     830     836     839
     831     830     836     838     831     830     836     837
     831     830     832     835     831     830     832     834
     831     830     832     833     832     830     836     839
     832     830     836     838     832     830     836     837
     833     832     830     836     834     832     830     836
     835     832     830     836     840     844     847     848
     840     844     847     878     840     886     883     878
     840     886     883     885     840     886     883     884
     841     840     844     847     841     840     844     846
     841     840     844     845     841     840     886     883
     841     840     886     888     841     840     886     887
     841     840     842     843     842     840     844     847
     842     840     844     846     842     840     844     845
     842     840     886     883     842     840     886     888
     842     840     886     887     843     842     840     844
     843     842     840     886     844     847     848     850
     844     847     848     849     844     847     878     876
     844     847     878     879     844     847     878     883
     844     840     886     883     844     840     886     888
     844     840     886     887     845     844     847     848
     845     844     847     878     845     844     840     886
     846     844     847     848     846     844     847     878
     846     844     840     886     847     848     850     853
     847     848     850     852     847     848     850     851
     847     878     876     873     847     878     876     877
     847     878     876     853     847     878     879     882
     847     878     879     881     847     878     879     880
     847     878     883     885     847     878     883     884
     847     878     883     886     847     844     840     886
     848     850     853     855     848     850     853     876
     848     850     853     854     848     847     878     876
     848     847     878     879     848     847     878     883
     849     848     850     853     849     848     850     852
     849     848     850     851     849     848     847     878
     850     853     855     857     850     853     855     865
     850     853     855     856     850     853     876     873
     850     853     876     878     850     853     876     877
     850     848     847     878     851     850     853     855
     851     850     853     876     851     850     853     854
     852     850     853     855     852     850     853     876
     852     850     853     854     853     855     857     860
     853     855     857     859     853     855     857     858
     853     855     865     863     853     855     865     866
     853     855     865     870     853     876     873     875
     853     876     873     874     853     876     873     870
     853     876     878     879     853     876     878     883
     854     853     855     857     854     853     855     865
     854     853     855     856     854     853     876     873
     854     853     876     878     854     853     876     877
     855     857     860     863     855     857     860     862
     855     857     860     861     855     865     863     889
     855     865     863     864     855     865     863     860
     855     865     866     869     855     865     866     868
     855     865     866     867     855     865     870     873
     855     865     870     872     855     865     870     871
     855     853     876     873     855     853     876     878
     855     853     876     877     856     855     857     860
     856     855     857     859     856     855     857     858
     856     855     865     863     856     855     865     866
     856     855     865     870     856     855     853     876
     857     860     863     889     857     860     863     865
     857     860     863     864     857     855     865     863
     857     855     865     866     857     855     865     870
     857     855     853     876     858     857     860     863
     858     857     860     862     858     857     860     861
     858     857     855     865     859     857     860     863
     859     857     860     862     859     857     860     861
     859     857     855     865     860     863     889     895
     860     863     889     891     860     863     889     890
     860     863     865     866     860     863     865     870
     860     857     855     865     861     860     863     889
     861     860     863     865     861     860     863     864
     862     860     863     889     862     860     863     865
     862     860     863     864     863     889     895     898
     863     889     895     897     863     889     895     896
     863     889     891     894     863     889     891     893
     863     889     891     892     863     865     866     869
     863     865     866     868     863     865     866     867
     863     865     870     873     863     865     870     872
     863     865     870     871     864     863     889     895
     864     863     889     891     864     863     889     890
     864     863     865     866     864     863     865     870
     865     863     889     895     865     863     889     891
     865     863     889     890     865     870     873     876
     865     870     873     875     865     870     873     874
     865     855     853     876     866     865     863     889
     866     865     870     873     866     865     870     872
     866     865     870     871     867     866     865     870
     868     866     865     870     869     866     865     870
     870     873     876     878     870     873     876     877
     870     865     863     889     871     870     873     876
     871     870     873     875     871     870     873     874
     872     870     873     876     872     870     873     875
     872     870     873     874     873     876     878     879
     873     876     878     883     874     873     876     878
     874     873     876     877     875     873     876     878
     875     873     876     877     876     878     879     882
     876     878     879     881     876     878     879     880
     876     878     883     885     876     878     883     884
     876     878     883     886     877     876     878     879
     877     876     878     883     878     883     886     888
     878     883     886     887     879     878     883     885
     879     878     883     884     879     878     883     886
     880     879     878     883     881     879     878     883
     882     879     878     883     884     883     886     888
     884     883     886     887     885     883     886     888
     885     883     886     887     889     895     898     901
     889     895     898     900     889     895     898     899
     890     889     895     898     890     889     895     897
     890     889     895     896     890     889     891     894
     890     889     891     893     890     889     891     892
     891     889     895     898     891     889     895     897
     891     889     895     896     892     891     889     895
     893     891     889     895     894     891     889     895
     895     898     901     904     895     898     901     903
     895     898     901     902     896     895     898     901
     896     895     898     900     896     895     898     899
     897     895     898     901     897     895     898     900
     897     895     898     899     898     901     904     910
     898     901     904     906     898     901     904     905
     899     898     901     904     899     898     901     903
     899     898     901     902     900     898     901     904
     900     898     901     903     900     898     901     902
     901     904     910     913     901     904     910     912
     901     904     910     911     901     904     906     909
     901     904     906     908     901     904     906     907
     902     901     904     910     902     901     904     906
     902     901     904     905     903     901     904     910
     903     901     904     906     903     901     904     905
     905     904     910     913     905     904     910     912
     905     904     910     911     905     904     906     909
     905     904     906     908     905     904     906     907
     906     904     910     913     906     904     910     912
     906     904     910     911     907     906     904     910
     908     906     904     910     909     906     904     910
     914     918     921     922     914     918     921     952
     914     960     957     952     914     960     957     959
     914     960     957     958     915     914     918     921
     915     914     918     920     915     914     918     919
     915     914     960     957     915     914     960     962
     915     914     960     961     915     914     916     917
     916     914     918     921     916     914     918     920
     916     914     918     919     916     914     960     957
     916     914     960     962     916     914     960     961
     917     916     914     918     917     916     914     960
     918     921     922     924     918     921     922     923
     918     921     952     950     918     921     952     953
     918     921     952     957     918     914     960     957
     918     914     960     962     918     914     960     961
     919     918     921     922     919     918     921     952
     919     918     914     960     920     918     921     922
     920     918     921     952     920     918     914     960
     921     922     924     927     921     922     924     926
     921     922     924     925     921     952     950     947
     921     952     950     951     921     952     950     927
     921     952     953     956     921     952     953     955
     921     952     953     954     921     952     957     959
     921     952     957     958     921     952     957     960
     921     918     914     960     922     924     927     929
     922     924     927     950     922     924     927     928
     922     921     952     950     922     921     952     953
     922     921     952     957     923     922     924     927
     923     922     924     926     923     922     924     925
     923     922     921     952     924     927     929     931
     924     927     929     939     924     927     929     930
     924     927     950     947     924     927     950     952
     924     927     950     951     924     922     921     952
     925     924     927     929     925     924     927     950
     925     924     927     928     926     924     927     929
     926     924     927     950     926     924     927     928
     927     929     931     934     927     929     931     933
     927     929     931     932     927     929     939     937
     927     929     939     940     927     929     939     944
     927     950     947     949     927     950     947     948
     927     950     947     944     927     950     952     953
     927     950     952     957     928     927     929     931
     928     927     929     939     928     927     929     930
     928     927     950     947     928     927     950     952
     928     927     950     951     929     931     934     937
     929     931     934     936     929     931     934     935
     929     939     937     963     929     939     937     938
     929     939     937     934     929     939     940     943
     929     939     940     942     929     939     940     941
     929     939     944     947     929     939     944     946
     929     939     944     945     929     927     950     947
     929     927     950     952     929     927     950     951
     930     929     931     934     930     929     931     933
     930     929     931     932     930     929     939     937
     930     929     939     940     930     929     939     944
     930     929     927     950     931     934     937     963
     931     934     937     939     931     934     937     938
     931     929     939     937     931     929     939     940
     931     929     939     944     931     929     927     950
     932     931     934     937     932     931     934     936
     932     931     934     935     932     931     929     939
     933     931     934     937     933     931     934     936
     933     931     934     935     933     931     929     939
     934     937     963     969     934     937     963     965
     934     937     963     964     934     937     939     940
     934     937     939     944     934     931     929     939
     935     934     937     963     935     934     937     939
     935     934     937     938     936     934     937     963
     936     934     937     939     936     934     937     938
     937     963     969     972     937     963     969     971
     937     963     969     970     937     963     965     968
     937     963     965     967     937     963     965     966
     937     939     940     943     937     939     940     942
     937     939     940     941     937     939     944     947
     937     939     944     946     937     939     944     945
     938     937     963     969     938     937     963     965
     938     937     963     964     938     937     939     940
     938     937     939     944     939     937     963     969
     939     937     963     965     939     937     963     964
     939     944     947     950     939     944     947     949
     939     944     947     948     939     929     927     950
     940     939     937     963     940     939     944     947
     940     939     944     946     940     939     944     945
     941     940     939     944     942     940     939     944
     943     940     939     944     944     947     950     952
     944     947     950     951     944     939     937     963
     945     944     947     950     945     944     947     949
     945     944     947     948     946     944     947     950
     946     944     947     949     946     944     947     948
     947     950     952     953     947     950     952     957
     948     947     950     952     948     947     950     951
     949     947     950     952     949     947     950     951
     950     952     953     956     950     952     953     955
     950     952     953     954     950     952     957     959
     950     952     957     958     950     952     957     960
     951     950     952     953     951     950     952     957
     952     957     960     962     952     957     960     961
     953     952     957     959     953     952     957     958
     953     952     957     960     954     953     952     957
     955     953     952     957     956     953     952     957
     958     957     960     962     958     957     960     961
     959     957     960     962     959     957     960     961
     963     969     972     975     963     969     972     974
     963     969     972     973     964     963     969     972
     964     963     969     971     964     963     969     970
     964     963     965     968     964     963     965     967
     964     963     965     966     965     963     969     972
     965     963     969     971     965     963     969     970
     966     965     963     969     967     965     963     969
     968     965     963     969     969     972     975     978
     969     972     975     977     969     972     975     976
     970     969     972     975     970     969     972     974
     970     969     972     973     971     969     972     975
     971     969     972     974     971     969     972     973
     972     975     978     984     972     975     978     980
     972     975     978     979     973     972     975     978
     973     972     975     977     973     972     975     976
     974     972     975     978     974     972     975     977
     974     972     975     976     975     978     984     987
     975     978     984     986     975     978     984     985
     975     978     980     983     975     978     980     982
     975     978     980     981     976     975     978     984
     976     975     978     980     976     975     978     979
     977     975     978     984     977     975     978     980
     977     975     978     979     979     978     984     987
     979     978     984     986     979     978     984     985
     979     978     980     983     979     978     980     982
     979     978     980     981     980     978     984     987
     980     978     984     986     980     978     984     985
     981     980     978     984     982     980     978     984
     983     980     978     984     988     992     995     996
     988     992     995    1026     988    1034    1031    1026
     988    1034    1031    1033     988    1034    1031    1032
     989     988     992     995     989     988     992     994
     989     988     992     993     989     988    1034    1031
     989     988    1034    1036     989     988    1034    1035
     989     988     990     991     990     988     992     995
     990     988     992     994     990     988     992     993
     990     988    1034    1031     990     988    1034    1036
     990     988    1034    1035     991     990     988     992
     991     990     988    1034     992     995     996     998
     992     995     996     997     992     995    1026    1024
     992     995    1026    1027     992     995    1026    1031
     992     988    1034    1031     992     988    1034    1036
     992     988    1034    1035     993     992     995     996
     993     992     995    1026     993     992     988    1034
     994     992     995     996     994     992     995    1026
     994     992     988    1034     995     996     998    1001
     995     996     998    1000     995     996     998     999
     995    1026    1024    1021     995    1026    1024    1025
     995    1026    1024    1001     995    1026    1027    1030
     995    1026    1027    1029     995    1026    1027    1028
     995    1026    1031    1033     995    1026    1031    1032
     995    1026    1031    1034     995     992     988    1034
     996     998    1001    1003     996     998    1001    1024
     996     998    1001    1002     996     995    1026    1024
     996     995    1026    1027     996     995    1026    1031
     997     996     998    1001     997     996     998    1000
     997     996     998     999     997     996     995    1026
     998    1001    1003    1005     998    1001    1003    1013
     998    1001    1003    1004     998    1001    1024    1021
     998    1001    1024    1026     998    1001    1024    1025
     998     996     995    1026     999     998    1001    1003
     999     998    1001    1024     999     998    1001    1002
    1000     998    1001    1003    1000     998    1001    1024
    1000     998    1001    1002    1001    1003    1005    1008
    1001    1003    1005    1007    1001    1003    1005    1006
    1001    1003    1013    1011    1001    1003    1013    1014
    1001    1003    1013    1018    1001    1024    1021    1023
    1001    1024    1021    1022    1001    1024    1021    1018
    1001    1024    1026    1027    1001    1024    1026    1031
    1002    1001    1003    1005    1002    1001    1003    1013
    1002    1001    1003    1004    1002    1001    1024    1021
    1002    1001    1024    1026    1002    1001    1024    1025
    1003    1005    1008    1011    1003    1005    1008    1010
    1003    1005    1008    1009    1003    1013    1011    1037
    1003    1013    1011    1012    1003    1013    1011    1008
    1003    1013    1014    1017    1003    1013    1014    1016
    1003    1013    1014    1015    1003    1013    1018    1021
    1003    1013    1018    1020    1003    1013    1018    1019
    1003    1001    1024    1021    1003    1001    1024    1026
    1003    1001    1024    1025    1004    1003    1005    1008
    1004    1003    1005    1007    1004    1003    1005    1006
    1004    1003    1013    1011    1004    1003    1013    1014
    1004    1003    1013    1018    1004    1003    1001    1024
    1005    1008    1011    1037    1005    1008    1011    1013
    1005    1008    1011    1012    1005    1003    1013    1011
    1005    1003    1013    1014    1005    1003    1013    1018
    1005    1003    1001    1024    1006    1005    1008    1011
    1006    1005    1008    1010    1006    1005    1008    1009
    1006    1005    1003    1013    1007    1005    1008    1011
    1007    1005    1008    1010    1007    1005    1008    1009
    1007    1005    1003    1013    1008    1011    1037    1043
    1008    1011    1037    1039    1008    1011    1037    1038
    1008    1011    1013    1014    1008    1011    1013    1018
    1008    1005    1003    1013    1009    1008    1011    1037
    1009    1008    1011    1013    1009    1008    1011    1012
    1010    1008    1011    1037    1010    1008    1011    1013
    1010    1008    1011    1012    1011    1037    1043    1046
    1011    1037    1043    1045    1011    1037    1043    1044
    1011    1037    1039    1042    1011    1037    1039    1041
    1011    1037    1039    1040    1011    1013    1014    1017
    1011    1013    1014    1016    1011    1013    1014    1015
    1011    1013    1018    1021    1011    1013    1018    1020
    1011    1013    1018    1019    1012    1011    1037    1043
    1012    1011    1037    1039    1012    1011    1037    1038
    1012    1011    1013    1014    1012    1011    1013    1018
    1013    1011    1037    1043    1013    1011    1037    1039
    1013    1011    1037    1038    1013    1018    1021    1024
    1013    1018    1021    1023    1013    1018    1021    1022
    1013    1003    1001    1024    1014    1013    1011    1037
    1014    1013    1018    1021    1014    1013    1018    1020
    1014    1013    1018    1019    1015    1014    1013    1018
    1016    1014    1013    1018    1017    1014    1013    1018
    1018    1021    1024    1026    1018    1021    1024    1025
    1018    1013    1011    1037    1019    1018    1021    1024
    1019    1018    1021    1023    1019    1018    1021    1022
    1020    1018    1021    1024    1020    1018    1021    1023
    1020    1018    1021    1022    1021    1024    1026    1027
    1021    1024    1026    1031    1022    1021    1024    1026
    1022    1021    1024    1025    1023    1021    1024    1026
    1023    1021    1024    1025    1024    1026    1027    1030
    1024    1026    1027    1029    1024    1026    1027    1028
    1024    1026    1031    1033    1024    1026    1031    1032
    1024    1026    1031    1034    1025    1024    1026    1027
    1025    1024    1026    1031    1026    1031    1034    1036
    1026    1031    1034    1035    1027    1026    1031    1033
    1027    1026    1031    1032    1027    1026    1031    1034
    1028    1027    1026    1031    1029    1027    1026    1031
    1030    1027    1026    1031    1032    1031    1034    1036
    1032    1031    1034    1035    1033    1031    1034    1036
    1033    1031    1034    1035    1037    1043    1046    1049
    1037    1043    1046    1048    1037    1043    1046    1047
    1038    1037    1043    1046    1038    1037    1043    1045
    1038    1037    1043    1044    1038    1037    1039    1042
    1038    1037    1039    1041    1038    1037    1039    1040
    1039    1037    1043    1046    1039    1037    1043    1045
    1039    1037    1043    1044    1040    1039    1037    1043
    1041    1039    1037    1043    1042    1039    1037    1043
    1043    1046    1049    1052    1043    1046    1049    1051
    1043    1046    1049    1050    1044    1043    1046    1049
    1044    1043    1046    1048    1044    1043    1046    1047
    1045    1043    1046    1049    1045    1043    1046    1048
    1045    1043    1046    1047    1046    1049    1052    1058
    1046    1049    1052    1054    1046    1049    1052    1053
    1047    1046    1049    1052    1047    1046    1049    1051
    1047    1046    1049    1050    1048    1046    1049    1052
    1048    1046    1049    1051    1048    1046    1049    1050
    1049    1052    1058    1061    1049    1052    1058    1060
    1049    1052    1058    1059    1049    1052    1054    1057
    1049    1052    1054    1056    1049    1052    1054    1055
    1050    1049    1052    1058    1050    1049    1052    1054
    1050    1049    1052    1053    1051    1049    1052    1058
    1051    1049    1052    1054    1051    1049    1052    1053
    1053    1052    1058    1061    1053    1052    1058    1060
    1053    1052    1058    1059    1053    1052    1054    1057
    1053    1052    1054    1056    1053    1052    1054    1055
    1054    1052    1058    1061    1054    1052    1058    1060
    1054    1052    1058    1059    1055    1054    1052    1058
    1056    1054    1052    1058    1057    1054    1052    1058
    1062    1066    1069    1070    1062    1066    1069    1100
    1062    1108    1105    1100    1062    1108    1105    1107
    1062    1108    1105    1106    1063    1062    1066    1069
    1063    1062    1066    1068    1063    1062    1066    1067
    1063    1062    1108    1105    1063    1062    1108    1110
    1063    1062    1108    1109    1063    1062    1064    1065
    1064    1062    1066    1069    1064    1062    1066    1068
    1064    1062    1066    1067    1064    1062    1108    1105
    1064    1062    1108    1110    1064    1062    1108    1109
    1065    1064    1062    1066    1065    1064    1062    1108
    1066    1069    1070    1072    1066    1069    1070    1071
    1066    1069    1100    1098    1066    1069    1100    1101
    1066    1069    1100    1105    1066    1062    1108    1105
    1066    1062    1108    1110    1066    1062    1108    1109
    1067    1066    1069    1070    1067    1066    1069    1100
    1067    1066    1062    1108    1068    1066    1069    1070
    1068    1066    1069    1100    1068    1066    1062    1108
    1069    1070    1072    1075    1069    1070    1072    1074
    1069    1070    1072    1073    1069    1100    1098    1095
    1069    1100    1098    1099    1069    1100    1098    1075
    1069    1100    1101    1104    1069    1100    1101    1103
    1069    1100    1101    1102    1069    1100    1105    1107
    1069    1100    1105    1106    1069    1100    1105    1108
    1069    1066    1062    1108    1070    1072    1075    1077
    1070    1072    1075    1098    1070    1072    1075    1076
    1070    1069    1100    1098    1070    1069    1100    1101
    1070    1069    1100    1105    1071    1070    1072    1075
    1071    1070    1072    1074    1071    1070    1072    1073
    1071    1070    1069    1100    1072    1075    1077    1079
    1072    1075    1077    1087    1072    1075    1077    1078
    1072    1075    1098    1095    1072    1075    1098    1100
    1072    1075    1098    1099    1072    1070    1069    1100
    1073    1072    1075    1077    1073    1072    1075    1098
    1073    1072    1075    1076    1074    1072    1075    1077
    1074    1072    1075    1098    1074    1072    1075    1076
    1075    1077    1079    1082    1075    1077    1079    1081
    1075    1077    1079    1080    1075    1077    1087    1085
    1075    1077    1087    1088    1075    1077    1087    1092
    1075    1098    1095    1097    1075    1098    1095    1096
    1075    1098    1095    1092    1075    1098    1100    1101
    1075    1098    1100    1105    1076    1075    1077    1079
    1076    1075    1077    1087    1076    1075    1077    1078
    1076    1075    1098    1095    1076    1075    1098    1100
    1076    1075    1098    1099    1077    1079    1082    1085
    1077    1079    1082    1084    1077    1079    1082    1083
    1077    1087    1085    1111    1077    1087    1085    1086
    1077    1087    1085    1082    1077    1087    1088    1091
    1077    1087    1088    1090    1077    1087    1088    1089
    1077    1087    1092    1095    1077    1087    1092    1094
    1077    1087    1092    1093    1077    1075    1098    1095
    1077    1075    1098    1100    1077    1075    1098    1099
    1078    1077    1079    1082    1078    1077    1079    1081
    1078    1077    1079    1080    1078    1077    1087    1085
    1078    1077    1087    1088    1078    1077    1087    1092
    1078    1077    1075    1098    1079    1082    1085    1111
    1079    1082    1085    1087    1079    1082    1085    1086
    1079    1077    1087    1085    1079    1077    1087    1088
    1079    1077    1087    1092    1079    1077    1075    1098
    1080    1079    1082    1085    1080    1079    1082    1084
    1080    1079    1082    1083    1080    1079    1077    1087
    1081    1079    1082    1085    1081    1079    1082    1084
    1081    1079    1082    1083    1081    1079    1077    1087
    1082    1085    1111    1117    1082    1085    1111    1113
    1082    1085    1111    1112    1082    1085    1087    1088
    1082    1085    1087    1092    1082    1079    1077    1087
    1083    1082    1085    1111    1083    1082    1085    1087
    1083    1082    1085    1086    1084    1082    1085    1111
    1084    1082    1085    1087    1084    1082    1085    1086
    1085    1111    1117    1120    1085    1111    1117    1119
    1085    1111    1117    1118    1085    1111    1113    1116
    1085    1111    1113    1115    1085    1111    1113    1114
    1085    1087    1088    1091    1085    1087    1088    1090
    1085    1087    1088    1089    1085    1087    1092    1095
    1085    1087    1092    1094    1085    1087    1092    1093
    1086    1085    1111    1117    1086    1085    1111    1113
    1086    1085    1111    1112    1086    1085    1087    1088
    1086    1085    1087    1092    1087    1085    1111    1117
    1087    1085    1111    1113    1087    1085    1111    1112
    1087    1092    1095    1098    1087    1092    1095    1097
    1087    1092    1095    1096    1087    1077    1075    1098
    1088    1087    1085    1111    1088    1087    1092    1095
    1088    1087    1092    1094    1088    1087    1092    1093
    1089    1088    1087    1092    1090    1088    1087    1092
    1091    1088    1087    1092    1092    1095    1098    1100
    1092    1095    1098    1099    1092    1087    1085    1111
    1093    1092    1095    1098    1093    1092    1095    1097
    1093    1092    1095    1096    1094    1092    1095    1098
    1094    1092    1095    1097    1094    1092    1095    1096
    1095    1098    1100    1101    1095    1098    1100    1105
    1096    1095    1098    1100    1096    1095    1098    1099
    1097    1095    1098    1100    1097    1095    1098    1099
    1098    1100    1101    1104    1098    1100    1101    1103
    1098    1100    1101    1102    1098    1100    1105    1107
    1098    1100    1105    1106    1098    1100    1105    1108
    1099    1098    1100    1101    1099    1098    1100    1105
    1100    1105    1108    1110    1100    1105    1108    1109
    1101    1100    1105    1107    1101    1100    1105    1106
    1101    1100    1105    1108    1102    1101    1100    1105
    1103    1101    1100    1105    1104    1101    1100    1105
    1106    1105    1108    1110    1106    1105    1108    1109
    1107    1105    1108    1110    1107    1105    1108    1109
    1111    1117    1120    1123    1111    1117    1120    1122
    1111    1117    1120    1121    1112    1111    1117    1120
    1112    1111    1117    1119    1112    1111    1117    1118
    1112    1111    1113    1116    1112    1111    1113    1115
    1112    1111    1113    1114    1113    1111    1117    1120
    1113    1111    1117    1119    1113    1111    1117    1118
    1114    1113    1111    1117    1115    1113    1111    1117
    1116    1113    1111    1117    1117    1120    1123    1126
    1117    1120    1123    1125    1117    1120    1123    1124
    1118    1117    1120    1123    1118    1117    1120    1122
    1118    1117    1120    1121    1119    1117    1120    1123
    1119    1117    1120    1122    1119    1117    1120    1121
    1120    1123    1126    1132    1120    1123    1126    1128
    1120    1123    1126    1127    1121    1120    1123    1126
    1121    1120    1123    1125    1121    1120    1123    1124
    1122    1120    1123    1126    1122    1120    1123    1125
    1122    1120    1123    1124    1123    1126    1132    1135
    1123    1126    1132    1134    1123    1126    1132    1133
    1123    1126    1128    1131    1123    1126    1128    1130
    1123    1126    1128    1129    1124    1123    1126    1132
    1124    1123    1126    1128    1124    1123    1126    1127
    1125    1123    1126    1132    1125    1123    1126    1128
    1125    1123    1126    1127    1127    1126    1132    1135
    1127    1126    1132    1134    1127    1126    1132    1133
    1127    1126    1128    1131    1127    1126    1128    1130
    1127    1126    1128    1129    1128    1126    1132    1135
    1128    1126    1132    1134    1128    1126    1132    1133
    1129    1128    1126    1132    1130    1128    1126    1132
    1131    1128    1126    1132    1136    1140    1143    1144
    1136    1140    1143    1174    1136    1182    1179    1174
    1136    1182    1179    1181    1136    1182    1179    1180
    1137    1136    1140    1143    1137    1136    1140    1142
    1137    1136    1140    1141    1137    1136    1182    1179
    1137    1136    1182    1184    1137    1136    1182    1183
    1137    1136    1138    1139    1138    1136    1140    1143
    1138    1136    1140    1142    1138    1136    1140    1141
    1138    1136    1182    1179    1138    1136    1182    1184
    1138    1136    1182    1183    1139    1138    1136    1140
    1139    1138    1136    1182    1140    1143    1144    1146
    1140    1143    1144    1145    1140    1143    1174    1172
    1140    1143    1174    1175    1140    1143    1174    1179
    1140    1136    1182    1179    1140    1136    1182    1184
    1140    1136    1182    1183    1141    1140    1143    1144
    1141    1140    1143    1174    1141    1140    1136    1182
    1142    1140    1143    1144    1142    1140    1143    1174
    1142    1140    1136    1182    1143    1144    1146    1149
    1143    1144    1146    1148    1143    1144    1146    1147
    1143    1174    1172    1169    1143    1174    1172    1173
    1143    1174    1172    1149    1143    1174    1175    1178
    1143    1174    1175    1177    1143    1174    1175    1176
    1143    1174    1179    1181    1143    1174    1179    1180
    1143    1174    1179    1182    1143    1140    1136    1182
    1144    1146    1149    1151    1144    1146    1149    1172
    1144    1146    1149    1150    1144    1143    1174    1172
    1144    1143    1174    1175    1144    1143    1174    1179
    1145    1144    1146    1149    1145    1144    1146    1148
    1145    1144    1146    1147    1145    1144    1143    1174
    1146    1149    1151    1153    1146    1149    1151    1161
    1146    1149    1151    1152    1146    1149    1172    1169
    1146    1149    1172    1174    1146    1149    1172    1173
    1146    1144    1143    1174    1147    1146    1149    1151
    1147    1146    1149    1172    1147    1146    1149    1150
    1148    1146    1149    1151    1148    1146    1149    1172
    1148    1146    1149    1150    1149    1151    1153    1156
    1149    1151    1153    1155    1149    1151    1153    1154
    1149    1151    1161    1159    1149    1151    1161    1162
    1149    1151    1161    1166    1149    1172    1169    1171
    1149    1172    1169    1170    1149    1172    1169    1166
    1149    1172    1174    1175    1149    1172    1174    1179
    1150    1149    1151    1153    1150    1149    1151    1161
    1150    1149    1151    1152    1150    1149    1172    1169
    1150    1149    1172    1174    1150    1149    1172    1173
    1151    1153    1156    1159    1151    1153    1156    1158
    1151    1153    1156    1157    1151    1161    1159    1185
    1151    1161    1159    1160    1151    1161    1159    1156
    1151    1161    1162    1165    1151    1161    1162    1164
    1151    1161    1162    1163    1151    1161    1166    1169
    1151    1161    1166    1168    1151    1161    1166    1167
    1151    1149    1172    1169    1151    1149    1172    1174
    1151    1149    1172    1173    1152    1151    1153    1156
    1152    1151    1153    1155    1152    1151    1153    1154
    1152    1151    1161    1159    1152    1151    1161    1162
    1152    1151    1161    1166    1152    1151    1149    1172
    1153    1156    1159    1185    1153    1156    1159    1161
    1153    1156    1159    1160    1153    1151    1161    1159
    1153    1151    1161    1162    1153    1151    1161    1166
    1153    1151    1149    1172    1154    1153    1156    1159
    1154    1153    1156    1158    1154    1153    1156    1157
    1154    1153    1151    1161    1155    1153    1156    1159
    1155    1153    1156    1158    1155    1153    1156    1157
    1155    1153    1151    1161    1156    1159    1185    1191
    1156    1159    1185    1187    1156    1159    1185    1186
    1156    1159    1161    1162    1156    1159    1161    1166
    1156    1153    1151    1161    1157    1156    1159    1185
    1157    1156    1159    1161    1157    1156    1159    1160
    1158    1156    1159    1185    1158    1156    1159    1161
    1158    1156    1159    1160    1159    1185    1191    1194
    1159    1185    1191    1193    1159    1185    1191    1192
    1159    1185    1187    1190    1159    1185    1187    1189
    1159    1185    1187    1188    1159    1161    1162    1165
    1159    1161    1162    1164    1159    1161    1162    1163
    1159    1161    1166    1169    1159    1161    1166    1168
    1159    1161    1166    1167    1160    1159    1185    1191
    1160    1159    1185    1187    1160    1159    1185    1186
    1160    1159    1161    1162    1160    1159    1161    1166
    1161    1159    1185    1191    1161    1159    1185    1187
    1161    1159    1185    1186    1161    1166    1169    1172
    1161    1166    1169    1171    1161    1166    1169    1170
    1161    1151    1149    1172    1162    1161    1159    1185
    1162    1161    1166    1169    1162    1161    1166    1168
    1162    1161    1166    1167    1163    1162    1161    1166
    1164    1162    1161    1166    1165    1162    1161    1166
    1166    1169    1172    1174    1166    1169    1172    1173
    1166    1161    1159    1185    1167    1166    1169    1172
    1167    1166    1169    1171    1167    1166    1169    1170
    1168    1166    1169    1172    1168    1166    1169    1171
    1168    1166    1169    1170    1169    1172    1174    1175
    1169    1172    1174    1179    1170    1169    1172    1174
    1170    1169    1172    1173    1171    1169    1172    1174
    1171    1169    1172    1173    1172    1174    1175    1178
    1172    1174    1175    1177    1172    1174    1175    1176
    1172    1174    1179    1181    1172    1174    1179    1180
    1172    1174    1179    1182    1173    1172    1174    1175
    1173    1172    1174    1179    1174    1179    1182    1184
    1174    1179    1182    1183    1175    1174    1179    1181
    1175    1174    1179    1180    1175    1174    1179    1182
    1176    1175    1174    1179    1177    1175    1174    1179
    1178    1175    1174    1179    1180    1179    1182    1184
    1180    1179    1182    1183    1181    1179    1182    1184
    1181    1179    1182    1183    1185    1191    1194    1197
    1185    1191    1194    1196    1185    1191    1194    1195
    1186    1185    1191    1194    1186    1185    1191    1193
    1186    1185    1191    1192    1186    1185    1187    1190
    1186    1185    1187    1189    1186    1185    1187    1188
    1187    1185    1191    1194    1187    1185    1191    1193
    1187    1185    1191    1192    1188    1187    1185    1191
    1189    1187    1185    1191    1190    1187    1185    1191
    1191    1194    1197    1200    1191    1194    1197    1199
    1191    1194    1197    1198    1192    1191    1194    1197
    1192    1191    1194    1196    1192    1191    1194    1195
    1193    1191    1194    1197    1193    1191    1194    1196
    1193    1191    1194    1195    1194    1197    1200    1206
    1194    1197    1200    1202    1194    1197    1200    1201
    1195    1194    1197    1200    1195    1194    1197    1199
    1195    1194    1197    1198    1196    1194    1197    1200
    1196    1194    1197    1199    1196    1194    1197    1198
    1197    1200    1206    1209    1197    1200    1206    1208
    1197    1200    1206    1207    1197    1200    1202    1205
    1197    1200    1202    1204    1197    1200    1202    1203
    1198    1197    1200    1206    1198    1197    1200    1202
    1198    1197    1200    1201    1199    1197    1200    1206
    1199    1197    1200    1202    1199    1197    1200    1201
    1201    1200    1206    1209    1201    1200    1206    1208
    1201    1200    1206    1207    1201    1200    1202    1205
    1201    1200    1202    1204    1201    1200    1202    1203
    1202    1200    1206    1209    1202    1200    1206    1208
    1202    1200    1206    1207    1203    1202    1200    1206
    1204    1202    1200    1206    1205    1202    1200    1206
    1210    1214    1217    1218    1210    1214    1217    1248
    1210    1256    1253    1248    1210    1256    1253    1255
    1210    1256    1253    1254    1211    1210    1214    1217
    1211    1210    1214    1216    1211    1210    1214    1215
    1211    1210    1256    1253    1211    1210    1256    1258
    1211    1210    1256    1257    1211    1210    1212    1213
    1212    1210    1214    1217    1212    1210    1214    1216
    1212    1210    1214    1215    1212    1210    1256    1253
    1212    1210    1256    1258    1212    1210    1256    1257
    1213    1212    1210    1214    1213    1212    1210    1256
    1214    1217    1218    1220    1214    1217    1218    1219
    1214    1217    1248    1246    1214    1217    1248    1249
    1214    1217    1248    1253    1214    1210    1256    1253
    1214    1210    1256    1258    1214    1210    1256    1257
    1215    1214    1217    1218    1215    1214    1217    1248
    1215    1214    1210    1256    1216    1214    1217    1218
    1216    1214    1217    1248    1216    1214    1210    1256
    1217    1218    1220    1223    1217    1218    1220    1222
    1217    1218    1220    1221    1217    1248    1246    1243
    1217    1248    1246    1247    1217    1248    1246    1223
    1217    1248    1249    1252    1217    1248    1249    1251
    1217    1248    1249    1250    1217    1248    1253    1255
    1217    1248    1253    1254    1217    1248    1253    1256
    1217    1214    1210    1256    1218    1220    1223    1225
    1218    1220    1223    1246    1218    1220    1223    1224
    1218    1217    1248    1246    1218    1217    1248    1249
    1218    1217    1248    1253    1219    1218    1220    1223
    1219    1218    1220    1222    1219    1218    1220    1221
    1219    1218    1217    1248    1220    1223    1225    1227
    1220    1223    1225    1235    1220    1223    1225    1226
    1220    1223    1246    1243    1220    1223    1246    1248
    1220    1223    1246    1247    1220    1218    1217    1248
    1221    1220    1223    1225    1221    1220    1223    1246
    1221    1220    1223    1224    1222    1220    1223    1225
    1222    1220    1223    1246    1222    1220    1223    1224
    1223    1225    1227    1230    1223    1225    1227    1229
    1223    1225    1227    1228    1223    1225    1235    1233
    1223    1225    1235    1236    1223    1225    1235    1240
    1223    1246    1243    1245    1223    1246    1243    1244
    1223    1246    1243    1240    1223    1246    1248    1249
    1223    1246    1248    1253    1224    1223    1225    1227
    1224    1223    1225    1235    1224    1223    1225    1226
    1224    1223    1246    1243    1224    1223    1246    1248
    1224    1223    1246    1247    1225    1227    1230    1233
    1225    1227    1230    1232    1225    1227    1230    1231
    1225    1235    1233    1259    1225    1235    1233    1234
    1225    1235    1233    1230    1225    1235    1236    1239
    1225    1235    1236    1238    1225    1235    1236    1237
    1225    1235    1240    1243    1225    1235    1240    1242
    1225    1235    1240    1241    1225    1223    1246    1243
    1225    1223    1246    1248    1225    1223    1246    1247
    1226    1225    1227    1230    1226    1225    1227    1229
    1226    1225    1227    1228    1226    1225    1235    1233
    1226    1225    1235    1236    1226    1225    1235    1240
    1226    1225    1223    1246    1227    1230    1233    1259
    1227    1230    1233    1235    1227    1230    1233    1234
    1227    1225    1235    1233    1227    1225    1235    1236
    1227    1225    1235    1240    1227    1225    1223    1246
    1228    1227    1230    1233    1228    1227    1230    1232
    1228    1227    1230    1231    1228    1227    1225    1235
    1229    1227    1230    1233    1229    1227    1230    1232
    1229    1227    1230    1231    1229    1227    1225    1235
    1230    1233    1259    1265    1230    1233    1259    1261
    1230    1233    1259    1260    1230    1233    1235    1236
    1230    1233    1235    1240    1230    1227    1225    1235
    1231    1230    1233    1259    1231    1230    1233    1235
    1231    1230    1233    1234    1232    1230    1233    1259
    1232    1230    1233    1235    1232    1230    1233    1234
    1233    1259    1265    1268    1233    1259    1265    1267
    1233    1259    1265    1266    1233    1259    1261    1264
    1233    1259    1261    1263    1233    1259    1261    1262
    1233    1235    1236    1239    1233    1235    1236    1238
    1233    1235    1236    1237    1233    1235    1240    1243
    1233    1235    1240    1242    1233    1235    1240    1241
    1234    1233    1259    1265    1234    1233    1259    1261
    1234    1233    1259    1260    1234    1233    1235    1236
    1234    1233    1235    1240    1235    1233    1259    1265
    1235    1233    1259    1261    1235    1233    1259    1260
    1235    1240    1243    1246    1235    1240    1243    1245
    1235    1240    1243    1244    1235    1225    1223    1246
    1236    1235    1233    1259    1236    1235    1240    1243
    1236    1235    1240    1242    1236    1235    1240    1241
    1237    1236    1235    1240    1238    1236    1235    1240
    1239    1236    1235    1240    1240    1243    1246    1248
    1240    1243    1246    1247    1240    1235    1233    1259
    1241    1240    1243    1246    1241    1240    1243    1245
    1241    1240    1243    1244    1242    1240    1243    1246
    1242    1240    1243    1245    1242    1240    1243    1244
    1243    1246    1248    1249    1243    1246    1248    1253
    1244    1243    1246    1248    1244    1243    1246    1247
    1245    1243    1246    1248    1245    1243    1246    1247
    1246    1248    1249    1252    1246    1248    1249    1251
    1246    1248    1249    1250    1246    1248    1253    1255
    1246    1248    1253    1254    1246    1248    1253    1256
    1247    1246    1248    1249    1247    1246    1248    1253
    1248    1253    1256    1258    1248    1253    1256    1257
    1249    1248    1253    1255    1249    1248    1253    1254
    1249    1248    1253    1256    1250    1249    1248    1253
    1251    1249    1248    1253    1252    1249    1248    1253
    1254    1253    1256    1258    1254    1253    1256    1257
    1255    1253    1256    1258    1255    1253    1256    1257
    1259    1265    1268    1271    1259    1265    1268    1270
    1259    1265    1268    1269    1260    1259    1265    1268
    1260    1259    1265    1267    1260    1259    1265    1266
    1260    1259    1261    1264    1260    1259    1261    1263
    1260    1259    1261    1262    1261    1259    1265    1268
    1261    1259    1265    1267    1261    1259    1265    1266
    1262    1261    1259    1265    1263    1261    1259    1265
    1264    1261    1259    1265    1265    1268    1271    1274
    1265    1268    1271    1273    1265    1268    1271    1272
    1266    1265    1268    1271    1266    1265    1268    1270
    1266    1265    1268    1269    1267    1265    1268    1271
    1267    1265    1268    1270    1267    1265    1268    1269
    1268    1271    1274    1280    1268    1271    1274    1276
    1268    1271    1274    1275    1269    1268    1271    1274
    1269    1268    1271    1273    1269    1268    1271    1272
    1270    1268    1271    1274    1270    1268    1271    1273
    1270    1268    1271    1272    1271    1274    1280    1283
    1271    1274    1280    1282    1271    1274    1280    1281
    1271    1274    1276    1279    1271    1274    1276    1278
    1271    1274    1276    1277    1272    1271    1274    1280
    1272    1271    1274    1276    1272    1271    1274    1275
    1273    1271    1274    1280    1273    1271    1274    1276
    1273    1271    1274    1275    1275    1274    1280    1283
    1275    1274    1280    1282    1275    1274    1280    1281
    1275    1274    1276    1279    1275    1274    1276    1278
    1275    1274    1276    1277    1276    1274    1280    1283
    1276    1274    1280    1282    1276    1274    1280    1281
    1277    1276    1274    1280    1278    1276    1274    1280
    1279    1276    1274    1280    1284    1288    1291    1292
    1284    1288    1291    1322    1284    1330    1327    1322
    1284    1330    1327    1329    1284    1330    1327    1328
    1285    1284    1288    1291    1285    1284    1288    1290
    1285    1284    1288    1289    1285    1284    1330    1327
    1285    1284    1330    1332    1285    1284    1330    1331
    1285    1284    1286    1287    1286    1284    1288    1291
    1286    1284    1288    1290    1286    1284    1288    1289
    1286    1284    1330    1327    1286    1284    1330    1332
    1286    1284    1330    1331    1287    1286    1284    1288
    1287    1286    1284    1330    1288    1291    1292    1294
    1288    1291    1292    1293    1288    1291    1322    1320
    1288    1291    1322    1323    1288    1291    1322    1327
    1288    1284    1330    1327    1288    1284    1330    1332
    1288    1284    1330    1331    1289    1288    1291    1292
    1289    1288    1291    1322    1289    1288    1284    1330
    1290    1288    1291    1292    1290    1288    1291    1322
    1290    1288    1284    1330    1291    1292    1294    1297
    1291    1292    1294    1296    1291    1292    1294    1295
    1291    1322    1320    1317    1291    1322    1320    1321
    1291    1322    1320    1297    1291    1322    1323    1326
    1291    1322    1323    1325    1291    1322    1323    1324
    1291    1322    1327    1329    1291    1322    1327    1328
    1291    1322    1327    1330    1291    1288    1284    1330
    1292    1294    1297    1299    1292    1294    1297    1320
    1292    1294    1297    1298    1292    1291    1322    1320
    1292    1291    1322    1323    1292    1291    1322    1327
    1293    1292    1294    1297    1293    1292    1294    1296
    1293    1292    1294    1295    1293    1292    1291    1322
    1294    1297    1299    1301    1294    1297    1299    1309
    1294    1297    1299    1300    1294    1297    1320    1317
    1294    1297    1320    1322    1294    1297    1320    1321
    1294    1292    1291    1322    1295    1294    1297    1299
    1295    1294    1297    1320    1295    1294    1297    1298
    1296    1294    1297    1299    1296    1294    1297    1320
    1296    1294    1297    1298    1297    1299    1301    1304
    1297    1299    1301    1303    1297    1299    1301    1302
    1297    1299    1309    1307    1297    1299    1309    1310
    1297    1299    1309    1314    1297    1320    1317    1319
    1297    1320    1317    1318    1297    1320    1317    1314
    1297    1320    1322    1323    1297    1320    1322    1327
    1298    1297    1299    1301    1298    1297    1299    1309
    1298    1297    1299    1300    1298    1297    1320    1317
    1298    1297    1320    1322    1298    1297    1320    1321
    1299    1301    1304    1307    1299    1301    1304    1306
    1299    1301    1304    1305    1299    1309    1307    1333
    1299    1309    1307    1308    1299    1309    1307    1304
    1299    1309    1310    1313    1299    1309    1310    1312
    1299    1309    1310    1311    1299    1309    1314    1317
    1299    1309    1314    1316    1299    1309    1314    1315
    1299    1297    1320    1317    1299    1297    1320    1322
    1299    1297    1320    1321    1300    1299    1301    1304
    1300    1299    1301    1303    1300    1299    1301    1302
    1300    1299    1309    1307    1300    1299    1309    1310
    1300    1299    1309    1314    1300    1299    1297    1320
    1301    1304    1307    1333    1301    1304    1307    1309
    1301    1304    1307    1308    1301    1299    1309    1307
    1301    1299    1309    1310    1301    1299    1309    1314
    1301    1299    1297    1320    1302    1301    1304    1307
    1302    1301    1304    1306    1302    1301    1304    1305
    1302    1301    1299    1309    1303    1301    1304    1307
    1303    1301    1304    1306    1303    1301    1304    1305
    1303    1301    1299    1309    1304    1307    1333    1339
    1304    1307    1333    1335    1304    1307    1333    1334
    1304    1307    1309    1310    1304    1307    1309    1314
    1304    1301    1299    1309    1305    1304    1307    1333
    1305    1304    1307    1309    1305    1304    1307    1308
    1306    1304    1307    1333    1306    1304    1307    1309
    1306    1304    1307    1308    1307    1333    1339    1342
    1307    1333    1339    1341    1307    1333    1339    1340
    1307    1333    1335    1338    1307    1333    1335    1337
    1307    1333    1335    1336    1307    1309    1310    1313
    1307    1309    1310    1312    1307    1309    1310    1311
    1307    1309    1314    1317    1307    1309    1314    1316
    1307    1309    1314    1315    1308    1307    1333    1339
    1308    1307    1333    1335    1308    1307    1333    1334
    1308    1307    1309    1310    1308    1307    1309    1314
    1309    1307    1333    1339    1309    1307    1333    1335
    1309    1307    1333    1334    1309    1314    1317    1320
    1309    1314    1317    1319    1309    1314    1317    1318
    1309    1299    1297    1320    1310    1309    1307    1333
    1310    1309    1314    1317    1310    1309    1314    1316
    1310    1309    1314    1315    1311    1310    1309    1314
    1312    1310    1309    1314    1313    1310    1309    1314
    1314    1317    1320    1322    1314    1317    1320    1321
    1314    1309    1307    1333    1315    1314    1317    1320
    1315    1314    1317    1319    1315    1314    1317    1318
    1316    1314    1317    1320    1316    1314    1317    1319
    1316    1314    1317    1318    1317    1320    1322    1323
    1317    1320    1322    1327    1318    1317    1320    1322
    1318    1317    1320    1321    1319    1317    1320    1322
    1319    1317    1320    1321    1320    1322    1323    1326
    1320    1322    1323    1325    1320    1322    1323    1324
    1320    1322    1327    1329    1320    1322    1327    1328
    1320    1322    1327    1330    1321    1320    1322    1323
    1321    1320    1322    1327    1322    1327    1330    1332
    1322    1327    1330    1331    1323    1322    1327    1329
    1323    1322    1327    1328    1323    1322    1327    1330
    1324    1323    1322    1327    1325    1323    1322    1327
    1326    1323    1322    1327    1328    1327    1330    1332
    1328    1327    1330    1331    1329    1327    1330    1332
    1329    1327    1330    1331    1333    1339    1342    1345
    1333    1339    1342    1344    1333    1339    1342    1343
    1334    1333    1339    1342    1334    1333    1339    1341
    1334    1333    1339    1340    1334    1333    1335    1338
    1334    1333    1335    1337    1334    1333    1335    1336
    1335    1333    1339    1342    1335    1333    1339    1341
    1335    1333    1339    1340    1336    1335    1333    1339
    1337    1335    1333    1339    1338    1335    1333    1339
    1339    1342    1345    1348    1339    1342    1345    1347
    1339    1342    1345    1346    1340    1339    1342    1345
    1340    1339    1342    1344    1340    1339    1342    1343
    1341    1339    1342    1345    1341    1339    1342    1344
    1341    1339    1342    1343    1342    1345    1348    1354
    1342    1345    1348    1350    1342    1345    1348    1349
    1343    1342    1345    1348    1343    1342    1345    1347
    1343    1342    1345    1346    1344    1342    1345    1348
    1344    1342    1345    1347    1344    1342    1345    1346
    1345    1348    1354    1357    1345    1348    1354    1356
    1345    1348    1354    1355    1345    1348    1350    1353
    1345    1348    1350    1352    1345    1348    1350    1351
    1346    1345    1348    1354    1346    1345    1348    1350
    1346    1345    1348    1349    1347    1345    1348    1354
    1347    1345    1348    1350    1347    1345    1348    1349
    1349    1348    1354    1357    1349    1348    1354    1356
    1349    1348    1354    1355    1349    1348    1350    1353
    1349    1348    1350    1352    1349    1348    1350    1351
    1350    1348    1354    1357    1350    1348    1354    1356
    1350    1348    1354    1355    1351    1350    1348    1354
    1352    1350    1348    1354    1353    1350    1348    1354
    1358    1362    1365    1366    1358    1362    1365    1396
    1358    1404    1401    1396    1358    1404    1401    1403
    1358    1404    1401    1402    1359    1358    1362    1365
    1359    1358    1362    1364    1359    1358    1362    1363
    1359    1358    1404    1401    1359    1358    1404    1406
    1359    1358    1404    1405    1359    1358    1360    1361
    1360    1358    1362    1365    1360    1358    1362    1364
    1360    1358    1362    1363    1360    1358    1404    1401
    1360    1358    1404    1406    1360    1358    1404    1405
    1361    1360    1358    1362    1361    1360    1358    1404
    1362    1365    1366    1368    1362    1365    1366    1367
    1362    1365    1396    1394    1362    1365    1396    1397
    1362    1365    1396    1401    1362    1358    1404    1401
    1362    1358    1404    1406    1362    1358    1404    1405
    1363    1362    1365    1366    1363    1362    1365    1396
    1363    1362    1358    1404    1364    1362    1365    1366
    1364    1362    1365    1396    1364    1362    1358    1404
    1365    1366    1368    1371    1365    1366    1368    1370
    1365    1366    1368    1369    1365    1396    1394    1391
    1365    1396    1394    1395    1365    1396    1394    1371
    1365    1396    1397    1400    1365    1396    1397    1399
    1365    1396    1397    1398    1365    1396    1401    1403
    1365    1396    1401    1402    1365    1396    1401    1404
    1365    1362    1358    1404    1366    1368    1371    1373
    1366    1368    1371    1394    1366    1368    1371    1372
    1366    1365    1396    1394    1366    1365    1396    1397
    1366    1365    1396    1401    1367    1366    1368    1371
    1367    1366    1368    1370    1367    1366    1368    1369
    1367    1366    1365    1396    1368    1371    1373    1375
    1368    1371    1373    1383    1368    1371    1373    1374
    1368    1371    1394    1391    1368    1371    1394    1396
    1368    1371    1394    1395    1368    1366    1365    1396
    1369    1368    1371    1373    1369    1368    1371    1394
    1369    1368    1371    1372    1370    1368    1371    1373
    1370    1368    1371    1394    1370    1368    1371    1372
    1371    1373    1375    1378    1371    1373    1375    1377
    1371    1373    1375    1376    1371    1373    1383    1381
    1371    1373    1383    1384    1371    1373    1383    1388
    1371    1394    1391    1393    1371    1394    1391    1392
    1371    1394    1391    1388    1371    1394    1396    1397
    1371    1394    1396    1401    1372    1371    1373    1375
    1372    1371    1373    1383    1372    1371    1373    1374
    1372    1371    1394    1391    1372    1371    1394    1396
    1372    1371    1394    1395    1373    1375    1378    1381
    1373    1375    1378    1380    1373    1375    1378    1379
    1373    1383    1381    1407    1373    1383    1381    1382
    1373    1383    1381    1378    1373    1383    1384    1387
    1373    1383    1384    1386    1373    1383    1384    1385
    1373    1383    1388    1391    1373    1383    1388    1390
    1373    1383    1388    1389    1373    1371    1394    1391
    1373    1371    1394    1396    1373    1371    1394    1395
    1374    1373    1375    1378    1374    1373    1375    1377
    1374    1373    1375    1376    1374    1373    1383    1381
    1374    1373    1383    1384    1374    1373    1383    1388
    1374    1373    1371    1394    1375    1378    1381    1407
    1375    1378    1381    1383    1375    1378    1381    1382
    1375    1373    1383    1381    1375    1373    1383    1384
    1375    1373    1383    1388    1375    1373    1371    1394
    1376    1375    1378    1381    1376    1375    1378    1380
    1376    1375    1378    1379    1376    1375    1373    1383
    1377    1375    1378    1381    1377    1375    1378    1380
    1377    1375    1378    1379    1377    1375    1373    1383
    1378    1381    1407    1413    1378    1381    1407    1409
    1378    1381    1407    1408    1378    1381    1383    1384
    1378    1381    1383    1388    1378    1375    1373    1383
    1379    1378    1381    1407    1379    1378    1381    1383
    1379    1378    1381    1382    1380    1378    1381    1407
    1380    1378    1381    1383    1380    1378    1381    1382
    1381    1407    1413    1416    1381    1407    1413    1415
    1381    1407    1413    1414    1381    1407    1409    1412
    1381    1407    1409    1411    1381    1407    1409    1410
    1381    1383    1384    1387    1381    1383    1384    1386
    1381    1383    1384    1385    1381    1383    1388    1391
    1381    1383    1388    1390    1381    1383    1388    1389
    1382    1381    1407    1413    1382    1381    1407    1409
    1382    1381    1407    1408    1382    1381    1383    1384
    1382    1381    1383    1388    1383    1381    1407    1413
    1383    1381    1407    1409    1383    1381    1407    1408
    1383    1388    1391    1394    1383    1388    1391    1393
    1383    1388    1391    1392    1383    1373    1371    1394
    1384    1383    1381    1407    1384    1383    1388    1391
    1384    1383    1388    1390    1384    1383    1388    1389
    1385    1384    1383    1388    1386    1384    1383    1388
    1387    1384    1383    1388    1388    1391    1394    1396
    1388    1391    1394    1395    1388    1383    1381    1407
    1389    1388    1391    1394    1389    1388    1391    1393
    1389    1388    1391    1392    1390    1388    1391    1394
    1390    1388    1391    1393    1390    1388    1391    1392
    1391    1394    1396    1397    1391    1394    1396    1401
    1392    1391    1394    1396    1392    1391    1394    1395
    1393    1391    1394    1396    1393    1391    1394    1395
    1394    1396    1397    1400    1394    1396    1397    1399
    1394    1396    1397    1398    1394    1396    1401    1403
    1394    1396    1401    1402    1394    1396    1401    1404
    1395    1394    1396    1397    1395    1394    1396    1401
    1396    1401    1404    1406    1396    1401    1404    1405
    1397    1396    1401    1403    1397    1396    1401    1402
    1397    1396    1401    1404    1398    1397    1396    1401
    1399    1397    1396    1401    1400    1397    1396    1401
    1402    1401    1404    1406    1402    1401    1404    1405
    1403    1401    1404    1406    1403    1401    1404    1405
    1407    1413    1416    1419    1407    1413    1416    1418
    1407    1413    1416    1417    1408    1407    1413    1416
    1408    1407    1413    1415    1408    1407    1413    1414
    1408    1407    1409    1412    1408    1407    1409    1411
    1408    1407    1409    1410    1409    1407    1413    1416
    1409    1407    1413    1415    1409    1407    1413    1414
    1410    1409    1407    1413    1411    1409    1407    1413
    1412    1409    1407    1413    1413    1416    1419    1422
    1413    1416    1419    1421    1413    1416    1419    1420
    1414    1413    1416    1419    1414    1413    1416    1418
    1414    1413    1416    1417    1415    1413    1416    1419
    1415    1413    1416    1418    1415    1413    1416    1417
    1416    1419    1422    1428    1416    1419    1422    1424
    1416    1419    1422    1423    1417    1416    1419    1422
    1417    1416    1419    1421    1417    1416    1419    1420
    1418    1416    1419    1422    1418    1416    1419    1421
    1418    1416    1419    1420    1419    1422    1428    1431
    1419    1422    1428    1430    1419    1422    1428    1429
    1419    1422    1424    1427    1419    1422    1424    1426
    1419    1422    1424    1425    1420    1419    1422    1428
    1420    1419    1422    1424    1420    1419    1422    1423
    1421    1419    1422    1428    1421    1419    1422    1424
    1421    1419    1422    1423    1423    1422    1428    1431
    1423    1422    1428    1430    1423    1422    1428    1429
    1423    1422    1424    1427    1423    1422    1424    1426
    1423    1422    1424    1425    1424    1422    1428    1431
    1424    1422    1428    1430    1424    1422    1428    1429
    1425    1424    1422    1428    1426    1424    1422    1428
    1427    1424    1422    1428    1432    1436    1439    1440
    1432    1436    1439    1470    1432    1478    1475    1470
    1432    1478    1475    1477    1432    1478    1475    1476
    1433    1432    1436    1439    1433    1432    1436    1438
    1433    1432    1436    1437    1433    1432    1478    1475
    1433    1432    1478    1480    1433    1432    1478    1479
    1433    1432    1434    1435    1434    1432    1436    1439
    1434    1432    1436    1438    1434    1432    1436    1437
    1434    1432    1478    1475    1434    1432    1478    1480
    1434    1432    1478    1479    1435    1434    1432    1436
    1435    1434    1432    1478    1436    1439    1440    1442
    1436    1439    1440    1441    1436    1439    1470    1468
    1436    1439    1470    1471    1436    1439    1470    1475
    1436    1432    1478    1475    1436    1432    1478    1480
    1436    1432    1478    1479    1437    1436    1439    1440
    1437    1436    1439    1470    1437    1436    1432    1478
    1438    1436    1439    1440    1438    1436    1439    1470
    1438    1436    1432    1478    1439    1440    1442    1445
    1439    1440    1442    1444    1439    1440    1442    1443
    1439    1470    1468    1465    1439    1470    1468    1469
    1439    1470    1468    1445    1439    1470    1471    1474
    1439    1470    1471    1473    1439    1470    1471    1472
    1439    1470    1475    1477    1439    1470    1475    1476
    1439    1470    1475    1478    1439    1436    1432    1478
    1440    1442    1445    1447    1440    1442    1445    1468
    1440    1442    1445    1446    1440    1439    1470    1468
    1440    1439    1470    1471    1440    1439    1470    1475
    1441    1440    1442    1445    1441    1440    1442    1444
    1441    1440    1442    1443    1441    1440    1439    1470
    1442    1445    1447    1449    1442    1445    1447    1457
    1442    1445    1447    1448    1442    1445    1468    1465
    1442    1445    1468    1470    1442    1445    1468    1469
    1442    1440    1439    1470    1443    1442    1445    1447
    1443    1442    1445    1468    1443    1442    1445    1446
    1444    1442    1445    1447    1444    1442    1445    1468
    1444    1442    1445    1446    1445    1447    1449    1452
    1445    1447    1449    1451    1445    1447    1449    1450
    1445    1447    1457    1455    1445    1447    1457    1458
    1445    1447    1457    1462    1445    1468    1465    1467
    1445    1468    1465    1466    1445    1468    1465    1462
    1445    1468    1470    1471    1445    1468    1470    1475
    1446    1445    1447    1449    1446    1445    1447    1457
    1446    1445    1447    1448    1446    1445    1468    1465
    1446    1445    1468    1470    1446    1445    1468    1469
    1447    1449    1452    1455    1447    1449    1452    1454
    1447    1449    1452    1453    1447    1457    1455    1481
    1447    1457    1455    1456    1447    1457    1455    1452
    1447    1457    1458    1461    1447    1457    1458    1460
    1447    1457    1458    1459    1447    1457    1462    1465
    1447    1457    1462    1464    1447    1457    1462    1463
    1447    1445    1468    1465    1447    1445    1468    1470
    1447    1445    1468    1469    1448    1447    1449    1452
    1448    1447    1449    1451    1448    1447    1449    1450
    1448    1447    1457    1455    1448    1447    1457    1458
    1448    1447    1457    1462    1448    1447    1445    1468
    1449    1452    1455    1481    1449    1452    1455    1457
    1449    1452    1455    1456    1449    1447    1457    1455
    1449    1447    1457    1458    1449    1447    1457    1462
    1449    1447    1445    1468    1450    1449    1452    1455
    1450    1449    1452    1454    1450    1449    1452    1453
    1450    1449    1447    1457    1451    1449    1452    1455
    1451    1449    1452    1454    1451    1449    1452    1453
    1451    1449    1447    1457    1452    1455    1481    1487
    1452    1455    1481    1483    1452    1455    1481    1482
    1452    1455    1457    1458    1452    1455    1457    1462
    1452    1449    1447    1457    1453    1452    1455    1481
    1453    1452    1455    1457    1453    1452    1455    1456
    1454    1452    1455    1481    1454    1452    1455    1457
    1454    1452    1455    1456    1455    1481    1487    1490
    1455    1481    1487    1489    1455    1481    1487    1488
    1455    1481    1483    1486    1455    1481    1483    1485
    1455    1481    1483    1484    1455    1457    1458    1461
    1455    1457    1458    1460    1455    1457    1458    1459
    1455    1457    1462    1465    1455    1457    1462    1464
    1455    1457    1462    1463    1456    1455    1481    1487
    1456    1455    1481    1483    1456    1455    1481    1482
    1456    1455    1457    1458    1456    1455    1457    1462
    1457    1455    1481    1487    1457    1455    1481    1483
    1457    1455    1481    1482    1457    1462    1465    1468
    1457    1462    1465    1467    1457    1462    1465    1466
    1457    1447    1445    1468    1458    1457    1455    1481
    1458    1457    1462    1465    1458    1457    1462    1464
    1458    1457    1462    1463    1459    1458    1457    1462
    1460    1458    1457    1462    1461    1458    1457    1462
    1462    1465    1468    1470    1462    1465    1468    1469
    1462    1457    1455    1481    1463    1462    1465    1468
    1463    1462    1465    1467    1463    1462    1465    1466
    1464    1462    1465    1468    1464    1462    1465    1467
    1464    1462    1465    1466    1465    1468    1470    1471
    1465    1468    1470    1475    1466    1465    1468    1470
    1466    1465    1468    1469    1467    1465    1468    1470
    1467    1465    1468    1469    1468    1470    1471    1474
    1468    1470    1471    1473    1468    1470    1471    1472
    1468    1470    1475    1477    1468    1470    1475    1476
    1468    1470    1475    1478    1469    1468    1470    1471
    1469    1468    1470    1475    1470    1475    1478    1480
    1470    1475    1478    1479    1471    1470    1475    1477
    1471    1470    1475    1476    1471    1470    1475    1478
    1472    1471    1470    1475    1473    1471    1470    1475
    1474    1471    1470    1475    1476    1475    1478    1480
    1476    1475    1478    1479    1477    1475    1478    1480
    1477    1475    1478    1479    1481    1487    1490    1493
    1481    1487    1490    1492    1481    1487    1490    1491
    1482    1481    1487    1490    1482    1481    1487    1489
    1482    1481    1487    1488    1482    1481    1483    1486
    1482    1481    1483    1485    1482    1481    1483    1484
    1483    1481    1487    1490    1483    1481    1487    1489
    1483    1481    1487    1488    1484    1483    1481    1487
    1485    1483    1481    1487    1486    1483    1481    1487
    1487    1490    1493    1496    1487    1490    1493    1495
    1487    1490    1493    1494    1488    1487    1490    1493
    1488    1487    1490    1492    1488    1487    1490    1491
    1489    1487    1490    1493    1489    1487    1490    1492
    1489    1487    1490    1491    1490    1493    1496    1502
    1490    1493    1496    1498    1490    1493    1496    1497
    1491    1490    1493    1496    1491    1490    1493    1495
    1491    1490    1493    1494    1492    1490    1493    1496
    1492    1490    1493    1495    1492    1490    1493    1494
    1493    1496    1502    1505    1493    1496    1502    1504
    1493    1496    1502    1503    1493    1496    1498    1501
    1493    1496    1498    1500    1493    1496    1498    1499
    1494    1493    1496    1502    1494    1493    1496    1498
    1494    1493    1496    1497    1495    1493    1496    1502
    1495    1493    1496    1498    1495    1493    1496    1497
    1497    1496    1502    1505    1497    1496    1502    1504
    1497    1496    1502    1503    1497    1496    1498    1501
    1497    1496    1498    1500    1497    1496    1498    1499
    1498    1496    1502    1505    1498    1496    1502    1504
    1498    1496    1502    1503    1499    1498    1496    1502
    1500    1498    1496    1502    1501    1498    1496    1502
    1506    1510    1513    1514    1506    1510    1513    1544
    1506    1552    1549    1544    1506    1552    1549    1551
    1506    1552    1549    1550    1507    1506    1510    1513
    1507    1506    1510    1512    1507    1506    1510    1511
    1507    1506    1552    1549    1507    1506    1552    1554
    1507    1506    1552    1553    1507    1506    1508    1509
    1508    1506    1510    1513    1508    1506    1510    1512
    1508    1506    1510    1511    1508    1506    1552    1549
    1508    1506    1552    1554    1508    1506    1552    1553
    1509    1508    1506    1510    1509    1508    1506    1552
    1510    1513    1514    1516    1510    1513    1514    1515
    1510    1513    1544    1542    1510    1513    1544    1545
    1510    1513    1544    1549    1510    1506    1552    1549
    1510    1506    1552    1554    1510    1506    1552    1553
    1511    1510    1513    1514    1511    1510    1513    1544
    1511    1510    1506    1552    1512    1510    1513    1514
    1512    1510    1513    1544    1512    1510    1506    1552
    1513    1514    1516    1519    1513    1514    1516    1518
    1513    1514    1516    1517    1513    1544    1542    1539
    1513    1544    1542    1543    1513    1544    1542    1519
    1513    1544    1545    1548    1513    1544    1545    1547
    1513    1544    1545    1546    1513    1544    1549    1551
    1513    1544    1549    1550    1513    1544    1549    1552
    1513    1510    1506    1552    1514    1516    1519    1521
    1514    1516    1519    1542    1514    1516    1519    1520
    1514    1513    1544    1542    1514    1513    1544    1545
    1514    1513    1544    1549    1515    1514    1516    1519
    1515    1514    1516    1518    1515    1514    1516    1517
    1515    1514    1513    1544    1516    1519    1521    1523
    1516    1519    1521    1531    1516    1519    1521    1522
    1516    1519    1542    1539    1516    1519    1542    1544
    1516    1519    1542    1543    1516    1514    1513    1544
    1517    1516    1519    1521    1517    1516    1519    1542
    1517    1516    1519    1520    1518    1516    1519    1521
    1518    1516    1519    1542    1518    1516    1519    1520
    1519    1521    1523    1526    1519    1521    1523    1525
    1519    1521    1523    1524    1519    1521    1531    1529
    1519    1521    1531    1532    1519    1521    1531    1536
    1519    1542    1539    1541    1519    1542    1539    1540
    1519    1542    1539    1536    1519    1542    1544    1545
    1519    1542    1544    1549    1520    1519    1521    1523
    1520    1519    1521    1531    1520    1519    1521    1522
    1520    1519    1542    1539    1520    1519    1542    1544
    1520    1519    1542    1543    1521    1523    1526    1529
    1521    1523    1526    1528    1521    1523    1526    1527
    1521    1531    1529    1555    1521    1531    1529    1530
    1521    1531    1529    1526    1521    1531    1532    1535
    1521    1531    1532    1534    1521    1531    1532    1533
    1521    1531    1536    1539    1521    1531    1536    1538
    1521    1531    1536    1537    1521    1519    1542    1539
    1521    1519    1542    1544    1521    1519    1542    1543
    1522    1521    1523    1526    1522    1521    1523    1525
    1522    1521    1523    1524    1522    1521    1531    1529
    1522    1521    1531    1532    1522    1521    1531    1536
    1522    1521    1519    1542    1523    1526    1529    1555
    1523    1526    1529    1531    1523    1526    1529    1530
    1523    1521    1531    1529    1523    1521    1531    1532
    1523    1521    1531    1536    1523    1521    1519    1542
    1524    1523    1526    1529    1524    1523    1526    1528
    1524    1523    1526    1527    1524    1523    1521    1531
    1525    1523    1526    1529    1525    1523    1526    1528
    1525    1523    1526    1527    1525    1523    1521    1531
    1526    1529    1555    1561    1526    1529    1555    1557
    1526    1529    1555    1556    1526    1529    1531    1532
    1526    1529    1531    1536    1526    1523    1521    1531
    1527    1526    1529    1555    1527    1526    1529    1531
    1527    1526    1529    1530    1528    1526    1529    1555
    1528    1526    1529    1531    1528    1526    1529    1530
    1529    1555    1561    1564    1529    1555    1561    1563
    1529    1555    1561    1562    1529    1555    1557    1560
    1529    1555    1557    1559    1529    1555    1557    1558
    1529    1531    1532    1535    1529    1531    1532    1534
    1529    1531    1532    1533    1529    1531    1536    1539
    1529    1531    1536    1538    1529    1531    1536    1537
    1530    1529    1555    1561    1530    1529    1555    1557
    1530    1529    1555    1556    1530    1529    1531    1532
    1530    1529    1531    1536    1531    1529    1555    1561
    1531    1529    1555    1557    1531    1529    1555    1556
    1531    1536    1539    1542    1531    1536    1539    1541
    1531    1536    1539    1540    1531    1521    1519    1542
    1532    1531    1529    1555    1532    1531    1536    1539
    1532    1531    1536    1538    1532    1531    1536    1537
    1533    1532    1531    1536    1534    1532    1531    1536
    1535    1532    1531    1536    1536    1539    1542    1544
    1536    1539    1542    1543    1536    1531    1529    1555
    1537    1536    1539    1542    1537    1536    1539    1541
    1537    1536    1539    1540    1538    1536    1539    1542
    1538    1536    1539    1541    1538    1536    1539    1540
    1539    1542    1544    1545    1539    1542    1544    1549
    1540    1539    1542    1544    1540    1539    1542    1543
    1541    1539    1542    1544    1541    1539    1542    1543
    1542    1544    1545    1548    1542    1544    1545    1547
    1542    1544    1545    1546    1542    1544    1549    1551
    1542    1544    1549    1550    1542    1544    1549    1552
    1543    1542    1544    1545    1543    1542    1544    1549
    1544    1549    1552    1554    1544    1549    1552    1553
    1545    1544    1549    1551    1545    1544    1549    1550
    1545    1544    1549    1552    1546    1545    1544    1549
    1547    1545    1544    1549    1548    1545    1544    1549
    1550    1549    1552    1554    1550    1549    1552    1553
    1551    1549    1552    1554    1551    1549    1552    1553
    1555    1561    1564    1567    1555    1561    1564    1566
    1555    1561    1564    1565    1556    1555    1561    1564
    1556    1555    1561    1563    1556    1555    1561    1562
    1556    1555    1557    1560    1556    1555    1557    1559
    1556    1555    1557    1558    1557    1555    1561    1564
    1557    1555    1561    1563    1557    1555    1561    1562
    1558    1557    1555    1561    1559    1557    1555    1561
    1560    1557    1555    1561    1561    1564    1567    1570
    1561    1564    1567    1569    1561    1564    1567    1568
    1562    1561    1564    1567    1562    1561    1564    1566
    1562    1561    1564    1565    1563    1561    1564    1567
    1563    1561    1564    1566    1563    1561    1564    1565
    1564    1567    1570    1576    1564    1567    1570    1572
    1564    1567    1570    1571    1565    1564    1567    1570
    1565    1564    1567    1569    1565    1564    1567    1568
    1566    1564    1567    1570    1566    1564    1567    1569
    1566    1564    1567    1568    1567    1570    1576    1579
    1567    1570    1576    1578    1567    1570    1576    1577
    1567    1570    1572    1575    1567    1570    1572    1574
    1567    1570    1572    1573    1568    1567    1570    1576
    1568    1567    1570    1572    1568    1567    1570    1571
    1569    1567    1570    1576    1569    1567    1570    1572
    1569    1567    1570    1571    1571    1570    1576    1579
    1571    1570    1576    1578    1571    1570    1576    1577
    1571    1570    1572    1575    1571    1570    1572    1574
    1571    1570    1572    1573    1572    1570    1576    1579
    1572    1570    1576    1578    1572    1570    1576    1577
    1573    1572    1570    1576    1574    1572    1570    1576
    1575    1572    1570    1576    1580    1584    1587    1588
    1580    1584    1587    1618    1580    1626    1623    1618
    1580    1626    1623    1625    1580    1626    1623    1624
    1581    1580    1584    1587    1581    1580    1584    1586
    1581    1580    1584    1585    1581    1580    1626    1623
    1581    1580    1626    1628    1581    1580    1626    1627
    1581    1580    1582    1583    1582    1580    1584    1587
    1582    1580    1584    1586    1582    1580    1584    1585
    1582    1580    1626    1623    1582    1580    1626    1628
    1582    1580    1626    1627    1583    1582    1580    1584
    1583    1582    1580    1626    1584    1587    1588    1590
    1584    1587    1588    1589    1584    1587    1618    1616
    1584    1587    1618    1619    1584    1587    1618    1623
    1584    1580    1626    1623    1584    1580    1626    1628
    1584    1580    1626    1627    1585    1584    1587    1588
    1585    1584    1587    1618    1585    1584    1580    1626
    1586    1584    1587    1588    1586    1584    1587    1618
    1586    1584    1580    1626    1587    1588    1590    1593
    1587    1588    1590    1592    1587    1588    1590    1591
    1587    1618    1616    1613    1587    1618    1616    1617
    1587    1618    1616    1593    1587    1618    1619    1622
    1587    1618    1619    1621    1587    1618    1619    1620
    1587    1618    1623    1625    1587    1618    1623    1624
    1587    1618    1623    1626    1587    1584    1580    1626
    1588    1590    1593    1595    1588    1590    1593    1616
    1588    1590    1593    1594    1588    1587    1618    1616
    1588    1587    1618    1619    1588    1587    1618    1623
    1589    1588    1590    1593    1589    1588    1590    1592
    1589    1588    1590    1591    1589    1588    1587    1618
    1590    1593    1595    1597    1590    1593    1595    1605
    1590    1593    1595    1596    1590    1593    1616    1613
    1590    1593    1616    1618    1590    1593    1616    1617
    1590    1588    1587    1618    1591    1590    1593    1595
    1591    1590    1593    1616    1591    1590    1593    1594
    1592    1590    1593    1595    1592    1590    1593    1616
    1592    1590    1593    1594    1593    1595    1597    1600
    1593    1595    1597    1599    1593    1595    1597    1598
    1593    1595    1605    1603    1593    1595    1605    1606
    1593    1595    1605    1610    1593    1616    1613    1615
    1593    1616    1613    1614    1593    1616    1613    1610
    1593    1616    1618    1619    1593    1616    1618    1623
    1594    1593    1595    1597    1594    1593    1595    1605
    1594    1593    1595    1596    1594    1593    1616    1613
    1594    1593    1616    1618    1594    1593    1616    1617
    1595    1597    1600    1603    1595    1597    1600    1602
    1595    1597    1600    1601    1595    1605    1603    1629
    1595    1605    1603    1604    1595    1605    1603    1600
    1595    1605    1606    1609    1595    1605    1606    1608
    1595    1605    1606    1607    1595    1605    1610    1613
    1595    1605    1610    1612    1595    1605    1610    1611
    1595    1593    1616    1613    1595    1593    1616    1618
    1595    1593    1616    1617    1596    1595    1597    1600
    1596    1595    1597    1599    1596    1595    1597    1598
    1596    1595    1605    1603    1596    1595    1605    1606
    1596    1595    1605    1610    1596    1595    1593    1616
    1597    1600    1603    1629    1597    1600    1603    1605
    1597    1600    1603    1604    1597    1595    1605    1603
    1597    1595    1605    1606    1597    1595    1605    1610
    1597    1595    1593    1616    1598    1597    1600    1603
    1598    1597    1600    1602    1598    1597    1600    1601
    1598    1597    1595    1605    1599    1597    1600    1603
    1599    1597    1600    1602    1599    1597    1600    1601
    1599    1597    1595    1605    1600    1603    1629    1635
    1600    1603    1629    1631    1600    1603    1629    1630
    1600    1603    1605    1606    1600    1603    1605    1610
    1600    1597    1595    1605    1601    1600    1603    1629
    1601    1600    1603    1605    1601    1600    1603    1604
    1602    1600    1603    1629    1602    1600    1603    1605
    1602    1600    1603    1604    1603    1629    1635    1638
    1603    1629    1635    1637    1603    1629    1635    1636
    1603    1629    1631    1634    1603    1629    1631    1633
    1603    1629    1631    1632    1603    1605    1606    1609
    1603    1605    1606    1608    1603    1605    1606    1607
    1603    1605    1610    1613    1603    1605    1610    1612
    1603    1605    1610    1611    1604    1603    1629    1635
    1604    1603    1629    1631    1604    1603    1629    1630
    1604    1603    1605    1606    1604    1603    1605    1610
    1605    1603    1629    1635    1605    1603    1629    1631
    1605    1603    1629    1630    1605    1610    1613    1616
    1605    1610    1613    1615    1605    1610    1613    1614
    1605    1595    1593    1616    1606    1605    1603    1629
    1606    1605    1610    1613    1606    1605    1610    1612
    1606    1605    1610    1611    1607    1606    1605    1610
    1608    1606    1605    1610    1609    1606    1605    1610
    1610    1613    1616    1618    1610    1613    1616    1617
    1610    1605    1603    1629    1611    1610    1613    1616
    1611    1610    1613    1615    1611    1610    1613    1614
    1612    1610    1613    1616    1612    1610    1613    1615
    1612    1610    1613    1614    1613    1616    1618    1619
    1613    1616    1618    1623    1614    1613    1616    1618
    1614    1613    1616    1617    1615    1613    1616    1618
    1615    1613    1616    1617    1616    1618    1619    1622
    1616    1618    1619    1621    1616    1618    1619    1620
    1616    1618    1623    1625    1616    1618    1623    1624
    1616    1618    1623    1626    1617    1616    1618    1619
    1617    1616    1618    1623    1618    1623    1626    1628
    1618    1623    1626    1627    1619    1618    1623    1625
    1619    1618    1623    1624    1619    1618    1623    1626
    1620    1619    1618    1623    1621    1619    1618    1623
    1622    1619    1618    1623    1624    1623    1626    1628
    1624    1623    1626    1627    1625    1623    1626    1628
    1625    1623    1626    1627    1629    1635    1638    1641
    1629    1635    1638    1640    1629    1635    1638    1639
    1630    1629    1635    1638    1630    1629    1635    1637
    1630    1629    1635    1636    1630    1629    1631    1634
    1630    1629    1631    1633    1630    1629    1631    1632
    1631    1629    1635    1638    1631    1629    1635    1637
    1631    1629    1635    1636    1632    1631    1629    1635
    1633    1631    1629    1635    1634    1631    1629    1635
    1635    1638    1641    1644    1635    1638    1641    1643
    1635    1638    1641    1642    1636    1635    1638    1641
    1636    1635    1638    1640    1636    1635    1638    1639
    1637    1635    1638    1641    1637    1635    1638    1640
    1637    1635    1638    1639    1638    1641    1644    1650
    1638    1641    1644    1646    1638    1641    1644    1645
    1639    1638    1641    1644    1639    1638    1641    1643
    1639    1638    1641    1642    1640    1638    1641    1644
    1640    1638    1641    1643    1640    1638    1641    1642
    1641    1644    1650    1653    1641    1644    1650    1652
    1641    1644    1650    1651    1641    1644    1646    1649
    1641    1644    1646    1648    1641    1644    1646    1647
    1642    1641    1644    1650    1642    1641    1644    1646
    1642    1641    1644    1645    1643    1641    1644    1650
    1643    1641    1644    1646    1643    1641    1644    1645
    1645    1644    1650    1653    1645    1644    1650    1652
    1645    1644    1650    1651    1645    1644    1646    1649
    1645    1644    1646    1648    1645    1644    1646    1647
    1646    1644    1650    1653    1646    1644    1650    1652
    1646    1644    1650    1651    1647    1646    1644    1650
    1648    1646    1644    1650    1649    1646    1644    1650
    1654    1658    1661    1662    1654    1658    1661    1692
    1654    1700    1697    1692    1654    1700    1697    1699
    1654    1700    1697    1698    1655    1654    1658    1661
    1655    1654    1658    1660    1655    1654    1658    1659
    1655    1654    1700    1697    1655    1654    1700    1702
    1655    1654    1700    1701    1655    1654    1656    1657
    1656    1654    1658    1661    1656    1654    1658    1660
    1656    1654    1658    1659    1656    1654    1700    1697
    1656    1654    1700    1702    1656    1654    1700    1701
    1657    1656    1654    1658    1657    1656    1654    1700
    1658    1661    1662    1664    1658    1661    1662    1663
    1658    1661    1692    1690    1658    1661    1692    1693
    1658    1661    1692    1697    1658    1654    1700    1697
    1658    1654    1700    1702    1658    1654    1700    1701
    1659    1658    1661    1662    1659    1658    1661    1692
    1659    1658    1654    1700    1660    1658    1661    1662
    1660    1658    1661    1692    1660    1658    1654    1700
    1661    1662    1664    1667    1661    1662    1664    1666
    1661    1662    1664    1665    1661    1692    1690    1687
    1661    1692    1690    1691    1661    1692    1690    1667
    1661    1692    1693    1696    1661    1692    1693    1695
    1661    1692    1693    1694    1661    1692    1697    1699
    1661    1692    1697    1698    1661    1692    1697    1700
    1661    1658    1654    1700    1662    1664    1667    1669
    1662    1664    1667    1690    1662    1664    1667    1668
    1662    1661    1692    1690    1662    1661    1692    1693
    1662    1661    1692    1697    1663    1662    1664    1667
    1663    1662    1664    1666    1663    1662    1664    1665
    1663    1662    1661    1692    1664    1667    1669    1671
    1664    1667    1669    1679    1664    1667    1669    1670
    1664    1667    1690    1687    1664    1667    1690    1692
    1664    1667    1690    1691    1664    1662    1661    1692
    1665    1664    1667    1669    1665    1664    1667    1690
    1665    1664    1667    1668    1666    1664    1667    1669
    1666    1664    1667    1690    1666    1664    1667    1668
    1667    1669    1671    1674    1667    1669    1671    1673
    1667    1669    1671    1672    1667    1669    1679    1677
    1667    1669    1679    1680    1667    1669    1679    1684
    1667    1690    1687    1689    1667    1690    1687    1688
    1667    1690    1687    1684    1667    1690    1692    1693
    1667    1690    1692    1697    1668    1667    1669    1671
    1668    1667    1669    1679    1668    1667    1669    1670
    1668    1667    1690    1687    1668    1667    1690    1692
    1668    1667    1690    1691    1669    1671    1674    1677
    1669    1671    1674    1676    1669    1671    1674    1675
    1669    1679    1677    1703    1669    1679    1677    1678
    1669    1679    1677    1674    1669    1679    1680    1683
    1669    1679    1680    1682    1669    1679    1680    1681
    1669    1679    1684    1687    1669    1679    1684    1686
    1669    1679    1684    1685    1669    1667    1690    1687
    1669    1667    1690    1692    1669    1667    1690    1691
    1670    1669    1671    1674    1670    1669    1671    1673
    1670    1669    1671    1672    1670    1669    1679    1677
    1670    1669    1679    1680    1670    1669    1679    1684
    1670    1669    1667    1690    1671    1674    1677    1703
    1671    1674    1677    1679    1671    1674    1677    1678
    1671    1669    1679    1677    1671    1669    1679    1680
    1671    1669    1679    1684    1671    1669    1667    1690
    1672    1671    1674    1677    1672    1671    1674    1676
    1672    1671    1674    1675    1672    1671    1669    1679
    1673    1671    1674    1677    1673    1671    1674    1676
    1673    1671    1674    1675    1673    1671    1669    1679
    1674    1677    1703    1709    1674    1677    1703    1705
    1674    1677    1703    1704    1674    1677    1679    1680
    1674    1677    1679    1684    1674    1671    1669    1679
    1675    1674    1677    1703    1675    1674    1677    1679
    1675    1674    1677    1678    1676    1674    1677    1703
    1676    1674    1677    1679    1676    1674    1677    1678
    1677    1703    1709    1712    1677    1703    1709    1711
    1677    1703    1709    1710    1677    1703    1705    1708
    1677    1703    1705    1707    1677    1703    1705    1706
    1677    1679    1680    1683    1677    1679    1680    1682
    1677    1679    1680    1681    1677    1679    1684    1687
    1677    1679    1684    1686    1677    1679    1684    1685
    1678    1677    1703    1709    1678    1677    1703    1705
    1678    1677    1703    1704    1678    1677    1679    1680
    1678    1677    1679    1684    1679    1677    1703    1709
    1679    1677    1703    1705    1679    1677    1703    1704
    1679    1684    1687    1690    1679    1684    1687    1689
    1679    1684    1687    1688    1679    1669    1667    1690
    1680    1679    1677    1703    1680    1679    1684    1687
    1680    1679    1684    1686    1680    1679    1684    1685
    1681    1680    1679    1684    1682    1680    1679    1684
    1683    1680    1679    1684    1684    1687    1690    1692
    1684    1687    1690    1691    1684    1679    1677    1703
    1685    1684    1687    1690    1685    1684    1687    1689
    1685    1684    1687    1688    1686    1684    1687    1690
    1686    1684    1687    1689    1686    1684    1687    1688
    1687    1690    1692    1693    1687    1690    1692    1697
    1688    1687    1690    1692    1688    1687    1690    1691
    1689    1687    1690    1692    1689    1687    1690    1691
    1690    1692    1693    1696    1690    1692    1693    1695
    1690    1692    1693    1694    1690    1692    1697    1699
    1690    1692    1697    1698    1690    1692    1697    1700
    1691    1690    1692    1693    1691    1690    1692    1697
    1692    1697    1700    1702    1692    1697    1700    1701
    1693    1692    1697    1699    1693    1692    1697    1698
    1693    1692    1697    1700    1694    1693    1692    1697
    1695    1693    1692    1697    1696    1693    1692    1697
    1698    1697    1700    1702    1698    1697    1700    1701
    1699    1697    1700    1702    1699    1697    1700    1701
    1703    1709    1712    1715    1703    1709    1712    1714
    1703    1709    1712    1713    1704    1703    1709    1712
    1704    1703    1709    1711    1704    1703    1709    1710
    1704    1703    1705    1708    1704    1703    1705    1707
    1704    1703    1705    1706    1705    1703    1709    1712
    1705    1703    1709    1711    1705    1703    1709    1710
    1706    1705    1703    1709    1707    1705    1703    1709
    1708    1705    1703    1709    1709    1712    1715    1718
    1709    1712    1715    1717    1709    1712    1715    1716
    1710    1709    1712    1715    1710    1709    1712    1714
    1710    1709    1712    1713    1711    1709    1712    1715
    1711    1709    1712    1714    1711    1709    1712    1713
    1712    1715    1718    1724    1712    1715    1718    1720
    1712    1715    1718    1719    1713    1712    1715    1718
    1713    1712    1715    1717    1713    1712    1715    1716
    1714    1712    1715    1718    1714    1712    1715    1717
    1714    1712    1715    1716    1715    1718    1724    1727
    1715    1718    1724    1726    1715    1718    1724    1725
    1715    1718    1720    1723    1715    1718    1720    1722
    1715    1718    1720    1721    1716    1715    1718    1724
    1716    1715    1718    1720    1716    1715    1718    1719
    1717    1715    1718    1724    1717    1715    1718    1720
    1717    1715    1718    1719    1719    1718    1724    1727
    1719    1718    1724    1726    1719    1718    1724    1725
    1719    1718    1720    1723    1719    1718    1720    1722
    1719    1718    1720    1721    1720    1718    1724    1727
    1720    1718    1724    1726    1720    1718    1724    1725
    1721    1720    1718    1724    1722    1720    1718    1724
    1723    1720    1718    1724    1728    1732    1735    1736
    1728    1732    1735    1766    1728    1774    1771    1766
    1728    1774    1771    1773    1728    1774    1771    1772
    1729    1728    1732    1735    1729    1728    1732    1734
    1729    1728    1732    1733    1729    1728    1774    1771
    1729    1728    1774    1776    1729    1728    1774    1775
    1729    1728    1730    1731    1730    1728    1732    1735
    1730    1728    1732    1734    1730    1728    1732    1733
    1730    1728    1774    1771    1730    1728    1774    1776
    1730    1728    1774    1775    1731    1730    1728    1732
    1731    1730    1728    1774    1732    1735    1736    1738
    1732    1735    1736    1737    1732    1735    1766    1764
    1732    1735    1766    1767    1732    1735    1766    1771
    1732    1728    1774    1771    1732    1728    1774    1776
    1732    1728    1774    1775    1733    1732    1735    1736
    1733    1732    1735    1766    1733    1732    1728    1774
    1734    1732    1735    1736    1734    1732    1735    1766
    1734    1732    1728    1774    1735    1736    1738    1741
    1735    1736    1738    1740    1735    1736    1738    1739
    1735    1766    1764    1761    1735    1766    1764    1765
    1735    1766    1764    1741    1735    1766    1767    1770
    1735    1766    1767    1769    1735    1766    1767    1768
    1735    1766    1771    1773    1735    1766    1771    1772
    1735    1766    1771    1774    1735    1732    1728    1774
    1736    1738    1741    1743    1736    1738    1741    1764
    1736    1738    1741    1742    1736    1735    1766    1764
    1736    1735    1766    1767    1736    1735    1766    1771
    1737    1736    1738    1741    1737    1736    1738    1740
    1737    1736    1738    1739    1737    1736    1735    1766
    1738    1741    1743    1745    1738    1741    1743    1753
    1738    1741    1743    1744    1738    1741    1764    1761
    1738    1741    1764    1766    1738    1741    1764    1765
    1738    1736    1735    1766    1739    1738    1741    1743
    1739    1738    1741    1764    1739    1738    1741    1742
    1740    1738    1741    1743    1740    1738    1741    1764
    1740    1738    1741    1742    1741    1743    1745    1748
    1741    1743    1745    1747    1741    1743    1745    1746
    1741    1743    1753    1751    1741    1743    1753    1754
    1741    1743    1753    1758    1741    1764    1761    1763
    1741    1764    1761    1762    1741    1764    1761    1758
    1741    1764    1766    1767    1741    1764    1766    1771
    1742    1741    1743    1745    1742    1741    1743    1753
    1742    1741    1743    1744    1742    1741    1764    1761
    1742    1741    1764    1766    1742    1741    1764    1765
    1743    1745    1748    1751    1743    1745    1748    1750
    1743    1745    1748    1749    1743    1753    1751    1777
    1743    1753    1751    1752    1743    1753    1751    1748
    1743    1753    1754    1757    1743    1753    1754    1756
    1743    1753    1754    1755    1743    1753    1758    1761
    1743    1753    1758    1760    1743    1753    1758    1759
    1743    1741    1764    1761    1743    1741    1764    1766
    1743    1741    1764    1765    1744    1743    1745    1748
    1744    1743    1745    1747    1744    1743    1745    1746
    1744    1743    1753    1751    1744    1743    1753    1754
    1744    1743    1753    1758    1744    1743    1741    1764
    1745    1748    1751    1777    1745    1748    1751    1753
    1745    1748    1751    1752    1745    1743    1753    1751
    1745    1743    1753    1754    1745    1743    1753    1758
    1745    1743    1741    1764    1746    1745    1748    1751
    1746    1745    1748    1750    1746    1745    1748    1749
    1746    1745    1743    1753    1747    1745    1748    1751
    1747    1745    1748    1750    1747    1745    1748    1749
    1747    1745    1743    1753    1748    1751    1777    1783
    1748    1751    1777    1779    1748    1751    1777    1778
    1748    1751    1753    1754    1748    1751    1753    1758
    1748    1745    1743    1753    1749    1748    1751    1777
    1749    1748    1751    1753    1749    1748    1751    1752
    1750    1748    1751    1777    1750    1748    1751    1753
    1750    1748    1751    1752    1751    1777    1783    1786
    1751    1777    1783    1785    1751    1777    1783    1784
    1751    1777    1779    1782    1751    1777    1779    1781
    1751    1777    1779    1780    1751    1753    1754    1757
    1751    1753    1754    1756    1751    1753    1754    1755
    1751    1753    1758    1761    1751    1753    1758    1760
    1751    1753    1758    1759    1752    1751    1777    1783
    1752    1751    1777    1779    1752    1751    1777    1778
    1752    1751    1753    1754    1752    1751    1753    1758
    1753    1751    1777    1783    1753    1751    1777    1779
    1753    1751    1777    1778    1753    1758    1761    1764
    1753    1758    1761    1763    1753    1758    1761    1762
    1753    1743    1741    1764    1754    1753    1751    1777
    1754    1753    1758    1761    1754    1753    1758    1760
    1754    1753    1758    1759    1755    1754    1753    1758
    1756    1754    1753    1758    1757    1754    1753    1758
    1758    1761    1764    1766    1758    1761    1764    1765
    1758    1753    1751    1777    1759    1758    1761    1764
    1759    1758    1761    1763    1759    1758    1761    1762
    1760    1758    1761    1764    1760    1758    1761    1763
    1760    1758    1761    1762    1761    1764    1766    1767
    1761    1764    1766    1771    1762    1761    1764    1766
    1762    1761    1764    1765    1763    1761    1764    1766
    1763    1761    1764    1765    1764    1766    1767    1770
    1764    1766    1767    1769    1764    1766    1767    1768
    1764    1766    1771    1773    1764    1766    1771    1772
    1764    1766    1771    1774    1765    1764    1766    1767
    1765    1764    1766    1771    1766    1771    1774    1776
    1766    1771    1774    1775    1767    1766    1771    1773
    1767    1766    1771    1772    1767    1766    1771    1774
    1768    1767    1766    1771    1769    1767    1766    1771
    1770    1767    1766    1771    1772    1771    1774    1776
    1772    1771    1774    1775    1773    1771    1774    1776
    1773    1771    1774    1775    1777    1783    1786    1789
    1777    1783    1786    1788    1777    1783    1786    1787
    1778    1777    1783    1786    1778    1777    1783    1785
    1778    1777    1783    1784    1778    1777    1779    1782
    1778    1777    1779    1781    1778    1777    1779    1780
    1779    1777    1783    1786    1779    1777    1783    1785
    1779    1777    1783    1784    1780    1779    1777    1783
    1781    1779    1777    1783    1782    1779    1777    1783
    1783    1786    1789    1792    1783    1786    1789    1791
    1783    1786    1789    1790    1784    1783    1786    1789
    1784    1783    1786    1788    1784    1783    1786    1787
    1785    1783    1786    1789    1785    1783    1786    1788
    1785    1783    1786    1787    1786    1789    1792    1798
    1786    1789    1792    1794    1786    1789    1792    1793
    1787    1786    1789    1792    1787    1786    1789    1791
    1787    1786    1789    1790    1788    1786    1789    1792
    1788    1786    1789    1791    1788    1786    1789    1790
    1789    1792    1798    1801    1789    1792    1798    1800
    1789    1792    1798    1799    1789    1792    1794    1797
    1789    1792    1794    1796    1789    1792    1794    1795
    1790    1789    1792    1798    1790    1789    1792    1794
    1790    1789    1792    1793    1791    1789    1792    1798
    1791    1789    1792    1794    1791    1789    1792    1793
    1793    1792    1798    1801    1793    1792    1798    1800
    1793    1792    1798    1799    1793    1792    1794    1797
    1793    1792    1794    1796    1793    1792    1794    1795
    1794    1792    1798    1801    1794    1792    1798    1800
    1794    1792    1798    1799    1795    1794    1792    1798
    1796    1794    1792    1798    1797    1794    1792    1798
    1802    1815    1818    1820    1802    1815    1818    1819
    1802    1815    1818    1825    1803    1802    1807    1810
    1803    1802    1807    1809    1803    1802    1807    1808
    1803    1802    1811    1814    1803    1802    1811    1813
    1803    1802    1811    1812    1803    1802    1815    1817
    1803    1802    1815    1816    1803    1802    1815    1818
    1804    1803    1802    1807    1804    1803    1802    1811
    1804    1803    1802    1815    1805    1803    1802    1807
    1805    1803    1802    1811    1805    1803    1802    1815
    1806    1803    1802    1807    1806    1803    1802    1811
    1806    1803    1802    1815    1807    1802    1811    1814
    1807    1802    1811    1813    1807    1802    1811    1812
    1807    1802    1815    1817    1807    1802    1815    1816
    1807    1802    1815    1818    1808    1807    1802    1811
    1808    1807    1802    1815    1809    1807    1802    1811
    1809    1807    1802    1815    1810    1807    1802    1811
    1810    1807    1802    1815    1811    1802    1815    1817
    1811    1802    1815    1816    1811    1802    1815    1818
    1812    1811    1802    1815    1813    1811    1802    1815
    1814    1811    1802    1815    1815    1818    1825    1821
    1816    1815    1818    1820    1816    1815    1818    1819
    1816    1815    1818    1825    1817    1815    1818    1820
    1817    1815    1818    1819    1817    1815    1818    1825
    1818    1825    1821    1823    1818    1825    1821    1822
    1818    1825    1821    1824    1819    1818    1825    1821
    1820    1818    1825    1821    1821    1824    1826    1828
    1821    1824    1826    1827    1821    1824    1826    1831
    1822    1821    1824    1826    1823    1821    1824    1826
    1824    1826    1831    1829    1824    1826    1831    1832
    1824    1826    1831    1833    1825    1821    1824    1826
    1826    1831    1829    1845    1826    1831    1829    1830
    1826    1831    1833    1835    1826    1831    1833    1834
    1826    1831    1833    1837    1827    1826    1831    1829
    1827    1826    1831    1832    1827    1826    1831    1833
    1828    1826    1831    1829    1828    1826    1831    1832
    1828    1826    1831    1833    1829    1845    1847    1850
    1829    1845    1847    1849    1829    1845    1847    1848
    1829    1831    1833    1835    1829    1831    1833    1834
    1829    1831    1833    1837    1830    1829    1845    1846
    1830    1829    1845    1847    1830    1829    1831    1832
    1830    1829    1831    1833    1831    1829    1845    1846
    1831    1829    1845    1847    1831    1833    1835    1836
    1831    1833    1837    1839    1831    1833    1837    1838
    1832    1831    1829    1845    1832    1831    1833    1835
    1832    1831    1833    1834    1832    1831    1833    1837
    1833    1831    1829    1845    1833    1837    1839    1840
    1833    1837    1839    1841    1834    1833    1835    1836
    1834    1833    1837    1839    1834    1833    1837    1838
    1835    1833    1837    1839    1835    1833    1837    1838
    1836    1835    1833    1837    1837    1839    1841    1843
    1837    1839    1841    1842    1837    1839    1841    1844
    1838    1837    1839    1840    1838    1837    1839    1841
    1840    1839    1841    1843    1840    1839    1841    1842
    1840    1839    1841    1844    1845    1847    1850    1853
    1845    1847    1850    1852    1845    1847    1850    1851
    1846    1845    1847    1850    1846    1845    1847    1849
    1846    1845    1847    1848    1847    1850    1853    1856
    1847    1850    1853    1855    1847    1850    1853    1854
    1848    1847    1850    1853    1848    1847    1850    1852
    1848    1847    1850    1851    1849    1847    1850    1853
    1849    1847    1850    1852    1849    1847    1850    1851
    1850    1853    1856    1859    1850    1853    1856    1858
    1850    1853    1856    1857    1851    1850    1853    1856
    1851    1850    1853    1855    1851    1850    1853    1854
    1852    1850    1853    1856    1852    1850    1853    1855
    1852    1850    1853    1854    1853    1856    1859    1861
    1853    1856    1859    1860    1853    1856    1859    1862
    1854    1853    1856    1859    1854    1853    1856    1858
    1854    1853    1856    1857    1855    1853    1856    1859
    1855    1853    1856    1858    1855    1853    1856    1857
    1857    1856    1859    1861    1857    1856    1859    1860
    1857    1856    1859    1862    1858    1856    1859    1861
    1858    1856    1859    1860    1858    1856    1859    1862
    1863    1864    1879    1885    1863    1864    1879    1881
    1863    1864    1879    1880    1864    1879    1885    1882
    1864    1863    1875    1878    1864    1863    1875    1877
    1864    1863    1875    1876    1864    1863    1871    1874
    1864    1863    1871    1873    1864    1863    1871    1872
    1864    1863    1867    1870    1864    1863    1867    1869
    1864    1863    1867    1868    1865    1864    1879    1885
    1865    1864    1879    1881    1865    1864    1879    1880
    1865    1864    1863    1875    1865    1864    1863    1871
    1865    1864    1863    1867    1866    1864    1879    1885
    1866    1864    1879    1881    1866    1864    1879    1880
    1866    1864    1863    1875    1866    1864    1863    1871
    1866    1864    1863    1867    1867    1863    1864    1879
    1867    1863    1875    1878    1867    1863    1875    1877
    1867    1863    1875    1876    1867    1863    1871    1874
    1867    1863    1871    1873    1867    1863    1871    1872
    1868    1867    1863    1875    1868    1867    1863    1871
    1869    1867    1863    1875    1869    1867    1863    1871
    1870    1867    1863    1875    1870    1867    1863    1871
    1871    1863    1864    1879    1871    1863    1875    1878
    1871    1863    1875    1877    1871    1863    1875    1876
    1872    1871    1863    1875    1873    1871    1863    1875
    1874    1871    1863    1875    1875    1863    1864    1879
    1879    1885    1882    1884    1879    1885    1882    1883
    1879    1885    1882    1886    1880    1879    1885    1882
    1881    1879    1885    1882    1882    1886    1887    1890
    1882    1886    1887    1889    1882    1886    1887    1888
    1883    1882    1886    1887    1884    1882    1886    1887
    1885    1882    1886    1887    1886    1887    1890    1892
    1886    1887    1890    1898    1886    1887    1890    1891
    1887    1890    1892    1893    1887    1890    1898    1901
    1887    1890    1898    1900    1887    1890    1898    1899
    1888    1887    1890    1892    1888    1887    1890    1898
    1888    1887    1890    1891    1889    1887    1890    1892
    1889    1887    1890    1898    1889    1887    1890    1891
    1890    1892    1893    1894    1890    1892    1893    1895
    1890    1898    1901    1902    1891    1890    1892    1893
    1891    1890    1898    1901    1891    1890    1898    1900
    1891    1890    1898    1899    1892    1893    1895    1907
    1892    1893    1895    1897    1892    1893    1895    1896
    1892    1890    1898    1901    1892    1890    1898    1900
    1892    1890    1898    1899    1893    1895    1907    1910
    1893    1895    1907    1909    1893    1895    1907    1908
    1893    1892    1890    1898    1894    1893    1895    1907
    1894    1893    1895    1897    1894    1893    1895    1896
    1895    1907    1910    1913    1895    1907    1910    1912
    1895    1907    1910    1911    1896    1895    1907    1910
    1896    1895    1907    1909    1896    1895    1907    1908
    1897    1895    1907    1910    1897    1895    1907    1909
    1897    1895    1907    1908    1898    1901    1902    1903
    1898    1901    1902    1904    1899    1898    1901    1902
    1900    1898    1901    1902    1901    1902    1904    1920
    1901    1902    1904    1906    1901    1902    1904    1905
    1902    1904    1920    1923    1902    1904    1920    1922
    1902    1904    1920    1921    1903    1902    1904    1920
    1903    1902    1904    1906    1903    1902    1904    1905
    1904    1920    1923    1926    1904    1920    1923    1925
    1904    1920    1923    1924    1905    1904    1920    1923
    1905    1904    1920    1922    1905    1904    1920    1921
    1906    1904    1920    1923    1906    1904    1920    1922
    1906    1904    1920    1921    1907    1910    1913    1916
    1907    1910    1913    1915    1907    1910    1913    1914
    1908    1907    1910    1913    1908    1907    1910    1912
    1908    1907    1910    1911    1909    1907    1910    1913
    1909    1907    1910    1912    1909    1907    1910    1911
    1910    1913    1916    1918    1910    1913    1916    1917
    1910    1913    1916    1919    1911    1910    1913    1916
    1911    1910    1913    1915    1911    1910    1913    1914
    1912    1910    1913    1916    1912    1910    1913    1915
    1912    1910    1913    1914    1914    1913    1916    1918
    1914    1913    1916    1917    1914    1913    1916    1919
    1915    1913    1916    1918    1915    1913    1916    1917
    1915    1913    1916    1919    1920    1923    1926    1929
    1920    1923    1926    1928    1920    1923    1926    1927
    1921    1920    1923    1926    1921    1920    1923    1925
    1921    1920    1923    1924    1922    1920    1923    1926
    1922    1920    1923    1925    1922    1920    1923    1924
    1923    1926    1929    1931    1923    1926    1929    1930
    1923    1926    1929    1932    1924    1923    1926    1929
    1924    1923    1926    1928    1924    1923    1926    1927
    1925    1923    1926    1929    1925    1923    1926    1928
    1925    1923    1926    1927    1927    1926    1929    1931
    1927    1926    1929    1930    1927    1926    1929    1932
    1928    1926    1929    1931    1928    1926    1929    1930
    1928    1926    1929    1932    1933    1937    1942    1948
    1933    1937    1942    1944    1933    1937    1942    1943
    1933    1937    1939    1940    1933    1937    1939    1941
    1934    1933    1937    1942    1934    1933    1937    1938
    1934    1933    1937    1939    1935    1933    1937    1942
    1935    1933    1937    1938    1935    1933    1937    1939
    1936    1933    1937    1942    1936    1933    1937    1938
    1936    1933    1937    1939    1937    1942    1948    1945
    1938    1937    1942    1948    1938    1937    1942    1944
    1938    1937    1942    1943    1938    1937    1939    1940
    1938    1937    1939    1941    1939    1937    1942    1948
    1939    1937    1942    1944    1939    1937    1942    1943
    1940    1939    1937    1942    1941    1939    1937    1942
    1942    1948    1945    1947    1942    1948    1945    1946
    1942    1948    1945    1949    1943    1942    1948    1945
    1944    1942    1948    1945    1945    1949    1950    1953
    1945    1949    1950    1952    1945    1949    1950    1951
    1946    1945    1949    1950    1947    1945    1949    1950
    1948    1945    1949    1950    1949    1950    1953    1955
    1949    1950    1953    1961    1949    1950    1953    1954
    1950    1953    1955    1956    1950    1953    1961    1964
    1950    1953    1961    1963    1950    1953    1961    1962
    1951    1950    1953    1955    1951    1950    1953    1961
    1951    1950    1953    1954    1952    1950    1953    1955
    1952    1950    1953    1961    1952    1950    1953    1954
    1953    1955    1956    1957    1953    1955    1956    1958
    1953    1961    1964    1965    1954    1953    1955    1956
    1954    1953    1961    1964    1954    1953    1961    1963
    1954    1953    1961    1962    1955    1956    1958    1970
    1955    1956    1958    1960    1955    1956    1958    1959
    1955    1953    1961    1964    1955    1953    1961    1963
    1955    1953    1961    1962    1956    1958    1970    1973
    1956    1958    1970    1972    1956    1958    1970    1971
    1956    1955    1953    1961    1957    1956    1958    1970
    1957    1956    1958    1960    1957    1956    1958    1959
    1958    1970    1973    1976    1958    1970    1973    1975
    1958    1970    1973    1974    1959    1958    1970    1973
    1959    1958    1970    1972    1959    1958    1970    1971
    1960    1958    1970    1973    1960    1958    1970    1972
    1960    1958    1970    1971    1961    1964    1965    1966
    1961    1964    1965    1967    1962    1961    1964    1965
    1963    1961    1964    1965    1964    1965    1967    1983
    1964    1965    1967    1969    1964    1965    1967    1968
    1965    1967    1983    1986    1965    1967    1983    1985
    1965    1967    1983    1984    1966    1965    1967    1983
    1966    1965    1967    1969    1966    1965    1967    1968
    1967    1983    1986    1989    1967    1983    1986    1988
    1967    1983    1986    1987    1968    1967    1983    1986
    1968    1967    1983    1985    1968    1967    1983    1984
    1969    1967    1983    1986    1969    1967    1983    1985
    1969    1967    1983    1984    1970    1973    1976    1979
    1970    1973    1976    1978    1970    1973    1976    1977
    1971    1970    1973    1976    1971    1970    1973    1975
    1971    1970    1973    1974    1972    1970    1973    1976
    1972    1970    1973    1975    1972    1970    1973    1974
    1973    1976    1979    1981    1973    1976    1979    1980
    1973    1976    1979    1982    1974    1973    1976    1979
    1974    1973    1976    1978    1974    1973    1976    1977
    1975    1973    1976    1979    1975    1973    1976    1978
    1975    1973    1976    1977    1977    1976    1979    1981
    1977    1976    1979    1980    1977    1976    1979    1982
    1978    1976    1979    1981    1978    1976    1979    1980
    1978    1976    1979    1982    1983    1986    1989    1992
    1983    1986    1989    1991    1983    1986    1989    1990
    1984    1983    1986    1989    1984    1983    1986    1988
    1984    1983    1986    1987    1985    1983    1986    1989
    1985    1983    1986    1988    1985    1983    1986    1987
    1986    1989    1992    1994    1986    1989    1992    1993
    1986    1989    1992    1995    1987    1986    1989    1992
    1987    1986    1989    1991    1987    1986    1989    1990
    1988    1986    1989    1992    1988    1986    1989    1991
    1988    1986    1989    1990    1990    1989    1992    1994
    1990    1989    1992    1993    1990    1989    1992    1995
    1991    1989    1992    1994    1991    1989    1992    1993
    1991    1989    1992    1995    1996    2009    2012    2014
    1996    2009    2012    2013    1996    2009    2012    2019
    1997    1996    2001    2004    1997    1996    2001    2003
    1997    1996    2001    2002    1997    1996    2005    2008
    1997    1996    2005    2007    1997    1996    2005    2006
    1997    1996    2009    2011    1997    1996    2009    2010
    1997    1996    2009    2012    1998    1997    1996    2001
    1998    1997    1996    2005    1998    1997    1996    2009
    1999    1997    1996    2001    1999    1997    1996    2005
    1999    1997    1996    2009    2000    1997    1996    2001
    2000    1997    1996    2005    2000    1997    1996    2009
    2001    1996    2005    2008    2001    1996    2005    2007
    2001    1996    2005    2006    2001    1996    2009    2011
    2001    1996    2009    2010    2001    1996    2009    2012
    2002    2001    1996    2005    2002    2001    1996    2009
    2003    2001    1996    2005    2003    2001    1996    2009
    2004    2001    1996    2005    2004    2001    1996    2009
    2005    1996    2009    2011    2005    1996    2009    2010
    2005    1996    2009    2012    2006    2005    1996    2009
    2007    2005    1996    2009    2008    2005    1996    2009
    2009    2012    2019    2015    2010    2009    2012    2014
    2010    2009    2012    2013    2010    2009    2012    2019
    2011    2009    2012    2014    2011    2009    2012    2013
    2011    2009    2012    2019    2012    2019    2015    2017
    2012    2019    2015    2016    2012    2019    2015    2018
    2013    2012    2019    2015    2014    2012    2019    2015
    2015    2018    2020    2022    2015    2018    2020    2021
    2015    2018    2020    2025    2016    2015    2018    2020
    2017    2015    2018    2020    2018    2020    2025    2023
    2018    2020    2025    2026    2018    2020    2025    2027
    2019    2015    2018    2020    2020    2025    2023    2039
    2020    2025    2023    2024    2020    2025    2027    2029
    2020    2025    2027    2028    2020    2025    2027    2031
    2021    2020    2025    2023    2021    2020    2025    2026
    2021    2020    2025    2027    2022    2020    2025    2023
    2022    2020    2025    2026    2022    2020    2025    2027
    2023    2039    2041    2044    2023    2039    2041    2043
    2023    2039    2041    2042    2023    2025    2027    2029
    2023    2025    2027    2028    2023    2025    2027    2031
    2024    2023    2039    2040    2024    2023    2039    2041
    2024    2023    2025    2026    2024    2023    2025    2027
    2025    2023    2039    2040    2025    2023    2039    2041
    2025    2027    2029    2030    2025    2027    2031    2033
    2025    2027    2031    2032    2026    2025    2023    2039
    2026    2025    2027    2029    2026    2025    2027    2028
    2026    2025    2027    2031    2027    2025    2023    2039
    2027    2031    2033    2034    2027    2031    2033    2035
    2028    2027    2029    2030    2028    2027    2031    2033
    2028    2027    2031    2032    2029    2027    2031    2033
    2029    2027    2031    2032    2030    2029    2027    2031
    2031    2033    2035    2037    2031    2033    2035    2036
    2031    2033    2035    2038    2032    2031    2033    2034
    2032    2031    2033    2035    2034    2033    2035    2037
    2034    2033    2035    2036    2034    2033    2035    2038
    2039    2041    2044    2047    2039    2041    2044    2046
    2039    2041    2044    2045    2040    2039    2041    2044
    2040    2039    2041    2043    2040    2039    2041    2042
    2041    2044    2047    2050    2041    2044    2047    2049
    2041    2044    2047    2048    2042    2041    2044    2047
    2042    2041    2044    2046    2042    2041    2044    2045
    2043    2041    2044    2047    2043    2041    2044    2046
    2043    2041    2044    2045    2044    2047    2050    2053
    2044    2047    2050    2052    2044    2047    2050    2051
    2045    2044    2047    2050    2045    2044    2047    2049
    2045    2044    2047    2048    2046    2044    2047    2050
    2046    2044    2047    2049    2046    2044    2047    2048
    2047    2050    2053    2055    2047    2050    2053    2054
    2047    2050    2053    2056    2048    2047    2050    2053
    2048    2047    2050    2052    2048    2047    2050    2051
    2049    2047    2050    2053    2049    2047    2050    2052
    2049    2047    2050    2051    2051    2050    2053    2055
    2051    2050    2053    2054    2051    2050    2053    2056
    2052    2050    2053    2055    2052    2050    2053    2054
    2052    2050    2053    2056    2057    2058    2073    2079
    2057    2058    2073    2075    2057    2058    2073    2074
    2058    2073    2079    2076    2058    2057    2069    2072
    2058    2057    2069    2071    2058    2057    2069    2070
    2058    2057    2065    2068    2058    2057    2065    2067
    2058    2057    2065    2066    2058    2057    2061    2064
    2058    2057    2061    2063    2058    2057    2061    2062
    2059    2058    2073    2079    2059    2058    2073    2075
    2059    2058    2073    2074    2059    2058    2057    2069
    2059    2058    2057    2065    2059    2058    2057    2061
    2060    2058    2073    2079    2060    2058    2073    2075
    2060    2058    2073    2074    2060    2058    2057    2069
    2060    2058    2057    2065    2060    2058    2057    2061
    2061    2057    2058    2073    2061    2057    2069    2072
    2061    2057    2069    2071    2061    2057    2069    2070
    2061    2057    2065    2068    2061    2057    2065    2067
    2061    2057    2065    2066    2062    2061    2057    2069
    2062    2061    2057    2065    2063    2061    2057    2069
    2063    2061    2057    2065    2064    2061    2057    2069
    2064    2061    2057    2065    2065    2057    2058    2073
    2065    2057    2069    2072    2065    2057    2069    2071
    2065    2057    2069    2070    2066    2065    2057    2069
    2067    2065    2057    2069    2068    2065    2057    2069
    2069    2057    2058    2073    2073    2079    2076    2078
    2073    2079    2076    2077    2073    2079    2076    2080
    2074    2073    2079    2076    2075    2073    2079    2076
    2076    2080    2081    2084    2076    2080    2081    2083
    2076    2080    2081    2082    2077    2076    2080    2081
    2078    2076    2080    2081    2079    2076    2080    2081
    2080    2081    2084    2086    2080    2081    2084    2092
    2080    2081    2084    2085    2081    2084    2086    2087
    2081    2084    2092    2095    2081    2084    2092    2094
    2081    2084    2092    2093    2082    2081    2084    2086
    2082    2081    2084    2092    2082    2081    2084    2085
    2083    2081    2084    2086    2083    2081    2084    2092
    2083    2081    2084    2085    2084    2086    2087    2088
    2084    2086    2087    2089    2084    2092    2095    2096
    2085    2084    2086    2087    2085    2084    2092    2095
    2085    2084    2092    2094    2085    2084    2092    2093
    2086    2087    2089    2101    2086    2087    2089    2091
    2086    2087    2089    2090    2086    2084    2092    2095
    2086    2084    2092    2094    2086    2084    2092    2093
    2087    2089    2101    2104    2087    2089    2101    2103
    2087    2089    2101    2102    2087    2086    2084    2092
    2088    2087    2089    2101    2088    2087    2089    2091
    2088    2087    2089    2090    2089    2101    2104    2107
    2089    2101    2104    2106    2089    2101    2104    2105
    2090    2089    2101    2104    2090    2089    2101    2103
    2090    2089    2101    2102    2091    2089    2101    2104
    2091    2089    2101    2103    2091    2089    2101    2102
    2092    2095    2096    2097    2092    2095    2096    2098
    2093    2092    2095    2096    2094    2092    2095    2096
    2095    2096    2098    2114    2095    2096    2098    2100
    2095    2096    2098    2099    2096    2098    2114    2117
    2096    2098    2114    2116    2096    2098    2114    2115
    2097    2096    2098    2114    2097    2096    2098    2100
    2097    2096    2098    2099    2098    2114    2117    2120
    2098    2114    2117    2119    2098    2114    2117    2118
    2099    2098    2114    2117    2099    2098    2114    2116
    2099    2098    2114    2115    2100    2098    2114    2117
    2100    2098    2114    2116    2100    2098    2114    2115
    2101    2104    2107    2110    2101    2104    2107    2109
    2101    2104    2107    2108    2102    2101    2104    2107
    2102    2101    2104    2106    2102    2101    2104    2105
    2103    2101    2104    2107    2103    2101    2104    2106
    2103    2101    2104    2105    2104    2107    2110    2112
    2104    2107    2110    2111    2104    2107    2110    2113
    2105    2104    2107    2110    2105    2104    2107    2109
    2105    2104    2107    2108    2106    2104    2107    2110
    2106    2104    2107    2109    2106    2104    2107    2108
    2108    2107    2110    2112    2108    2107    2110    2111
    2108    2107    2110    2113    2109    2107    2110    2112
    2109    2107    2110    2111    2109    2107    2110    2113
    2114    2117    2120    2123    2114    2117    2120    2122
    2114    2117    2120    2121    2115    2114    2117    2120
    2115    2114    2117    2119    2115    2114    2117    2118
    2116    2114    2117    2120    2116    2114    2117    2119
    2116    2114    2117    2118    2117    2120    2123    2125
    2117    2120    2123    2124    2117    2120    2123    2126
    2118    2117    2120    2123    2118    2117    2120    2122
    2118    2117    2120    2121    2119    2117    2120    2123
    2119    2117    2120    2122    2119    2117    2120    2121
    2121    2120    2123    2125    2121    2120    2123    2124
    2121    2120    2123    2126    2122    2120    2123    2125
    2122    2120    2123    2124    2122    2120    2123    2126
    2127    2131    2134    2141    2127    2131    2134    2136
    2127    2131    2134    2135    2128    2127    2131    2134
    2128    2127    2131    2133    2128    2127    2131    2132
    2129    2127    2131    2134    2129    2127    2131    2133
    2129    2127    2131    2132    2130    2127    2131    2134
    2130    2127    2131    2133    2130    2127    2131    2132
    2131    2134    2141    2137    2132    2131    2134    2141
    2132    2131    2134    2136    2132    2131    2134    2135
    2133    2131    2134    2141    2133    2131    2134    2136
    2133    2131    2134    2135    2134    2141    2137    2139
    2134    2141    2137    2138    2134    2141    2137    2140
    2135    2134    2141    2137    2136    2134    2141    2137
    2137    2140    2142    2145    2137    2140    2142    2144
    2137    2140    2142    2143    2138    2137    2140    2142
    2139    2137    2140    2142    2140    2142    2145    2147
    2140    2142    2145    2153    2140    2142    2145    2146
    2141    2137    2140    2142    2142    2145    2147    2148
    2142    2145    2153    2156    2142    2145    2153    2155
    2142    2145    2153    2154    2143    2142    2145    2147
    2143    2142    2145    2153    2143    2142    2145    2146
    2144    2142    2145    2147    2144    2142    2145    2153
    2144    2142    2145    2146    2145    2147    2148    2149
    2145    2147    2148    2150    2145    2153    2156    2157
    2146    2145    2147    2148    2146    2145    2153    2156
    2146    2145    2153    2155    2146    2145    2153    2154
    2147    2148    2150    2162    2147    2148    2150    2152
    2147    2148    2150    2151    2147    2145    2153    2156
    2147    2145    2153    2155    2147    2145    2153    2154
    2148    2150    2162    2165    2148    2150    2162    2164
    2148    2150    2162    2163    2148    2147    2145    2153
    2149    2148    2150    2162    2149    2148    2150    2152
    2149    2148    2150    2151    2150    2162    2165    2168
    2150    2162    2165    2167    2150    2162    2165    2166
    2151    2150    2162    2165    2151    2150    2162    2164
    2151    2150    2162    2163    2152    2150    2162    2165
    2152    2150    2162    2164    2152    2150    2162    2163
    2153    2156    2157    2158    2153    2156    2157    2159
    2154    2153    2156    2157    2155    2153    2156    2157
    2156    2157    2159    2175    2156    2157    2159    2161
    2156    2157    2159    2160    2157    2159    2175    2178
    2157    2159    2175    2177    2157    2159    2175    2176
    2158    2157    2159    2175    2158    2157    2159    2161
    2158    2157    2159    2160    2159    2175    2178    2181
    2159    2175    2178    2180    2159    2175    2178    2179
    2160    2159    2175    2178    2160    2159    2175    2177
    2160    2159    2175    2176    2161    2159    2175    2178
    2161    2159    2175    2177    2161    2159    2175    2176
    2162    2165    2168    2171    2162    2165    2168    2170
    2162    2165    2168    2169    2163    2162    2165    2168
    2163    2162    2165    2167    2163    2162    2165    2166
    2164    2162    2165    2168    2164    2162    2165    2167
    2164    2162    2165    2166    2165    2168    2171    2173
    2165    2168    2171    2172    2165    2168    2171    2174
    2166    2165    2168    2171    2166    2165    2168    2170
    2166    2165    2168    2169    2167    2165    2168    2171
    2167    2165    2168    2170    2167    2165    2168    2169
    2169    2168    2171    2173    2169    2168    2171    2172
    2169    2168    2171    2174    2170    2168    2171    2173
    2170    2168    2171    2172    2170    2168    2171    2174
    2175    2178    2181    2184    2175    2178    2181    2183
    2175    2178    2181    2182    2176    2175    2178    2181
    2176    2175    2178    2180    2176    2175    2178    2179
    2177    2175    2178    2181    2177    2175    2178    2180
    2177    2175    2178    2179    2178    2181    2184    2186
    2178    2181    2184    2185    2178    2181    2184    2187
    2179    2178    2181    2184    2179    2178    2181    2183
    2179    2178    2181    2182    2180    2178    2181    2184
    2180    2178    2181    2183    2180    2178    2181    2182
    2182    2181    2184    2186    2182    2181    2184    2185
    2182    2181    2184    2187    2183    2181    2184    2186
    2183    2181    2184    2185    2183    2181    2184    2187
    2188    2192    2197    2203    2188    2192    2197    2199
    2188    2192    2197    2198    2188    2192    2194    2195
    2188    2192    2194    2196    2189    2188    2192    2197
    2189    2188    2192    2193    2189    2188    2192    2194
    2190    2188    2192    2197    2190    2188    2192    2193
    2190    2188    2192    2194    2191    2188    2192    2197
    2191    2188    2192    2193    2191    2188    2192    2194
    2192    2197    2203    2200    2193    2192    2197    2203
    2193    2192    2197    2199    2193    2192    2197    2198
    2193    2192    2194    2195    2193    2192    2194    2196
    2194    2192    2197    2203    2194    2192    2197    2199
    2194    2192    2197    2198    2195    2194    2192    2197
    2196    2194    2192    2197    2197    2203    2200    2202
    2197    2203    2200    2201    2197    2203    2200    2204
    2198    2197    2203    2200    2199    2197    2203    2200
    2200    2204    2205    2208    2200    2204    2205    2207
    2200    2204    2205    2206    2201    2200    2204    2205
    2202    2200    2204    2205    2203    2200    2204    2205
    2204    2205    2208    2210    2204    2205    2208    2216
    2204    2205    2208    2209    2205    2208    2210    2211
    2205    2208    2216    2219    2205    2208    2216    2218
    2205    2208    2216    2217    2206    2205    2208    2210
    2206    2205    2208    2216    2206    2205    2208    2209
    2207    2205    2208    2210    2207    2205    2208    2216
    2207    2205    2208    2209    2208    2210    2211    2212
    2208    2210    2211    2213    2208    2216    2219    2220
    2209    2208    2210    2211    2209    2208    2216    2219
    2209    2208    2216    2218    2209    2208    2216    2217
    2210    2211    2213    2225    2210    2211    2213    2215
    2210    2211    2213    2214    2210    2208    2216    2219
    2210    2208    2216    2218    2210    2208    2216    2217
    2211    2213    2225    2228    2211    2213    2225    2227
    2211    2213    2225    2226    2211    2210    2208    2216
    2212    2211    2213    2225    2212    2211    2213    2215
    2212    2211    2213    2214    2213    2225    2228    2231
    2213    2225    2228    2230    2213    2225    2228    2229
    2214    2213    2225    2228    2214    2213    2225    2227
    2214    2213    2225    2226    2215    2213    2225    2228
    2215    2213    2225    2227    2215    2213    2225    2226
    2216    2219    2220    2221    2216    2219    2220    2222
    2217    2216    2219    2220    2218    2216    2219    2220
    2219    2220    2222    2238    2219    2220    2222    2224
    2219    2220    2222    2223    2220    2222    2238    2241
    2220    2222    2238    2240    2220    2222    2238    2239
    2221    2220    2222    2238    2221    2220    2222    2224
    2221    2220    2222    2223    2222    2238    2241    2244
    2222    2238    2241    2243    2222    2238    2241    2242
    2223    2222    2238    2241    2223    2222    2238    2240
    2223    2222    2238    2239    2224    2222    2238    2241
    2224    2222    2238    2240    2224    2222    2238    2239
    2225    2228    2231    2234    2225    2228    2231    2233
    2225    2228    2231    2232    2226    2225    2228    2231
    2226    2225    2228    2230    2226    2225    2228    2229
    2227    2225    2228    2231    2227    2225    2228    2230
    2227    2225    2228    2229    2228    2231    2234    2236
    2228    2231    2234    2235    2228    2231    2234    2237
    2229    2228    2231    2234    2229    2228    2231    2233
    2229    2228    2231    2232    2230    2228    2231    2234
    2230    2228    2231    2233    2230    2228    2231    2232
    2232    2231    2234    2236    2232    2231    2234    2235
    2232    2231    2234    2237    2233    2231    2234    2236
    2233    2231    2234    2235    2233    2231    2234    2237
    2238    2241    2244    2247    2238    2241    2244    2246
    2238    2241    2244    2245    2239    2238    2241    2244
    2239    2238    2241    2243    2239    2238    2241    2242
    2240    2238    2241    2244    2240    2238    2241    2243
    2240    2238    2241    2242    2241    2244    2247    2249
    2241    2244    2247    2248    2241    2244    2247    2250
    2242    2241    2244    2247    2242    2241    2244    2246
    2242    2241    2244    2245    2243    2241    2244    2247
    2243    2241    2244    2246    2243    2241    2244    2245
    2245    2244    2247    2249    2245    2244    2247    2248
    2245    2244    2247    2250    2246    2244    2247    2249
    2246    2244    2247    2248    2246    2244    2247    2250
    2251    2255    2258    2265    2251    2255    2258    2260
    2251    2255    2258    2259    2252    2251    2255    2258
    2252    2251    2255    2257    2252    2251    2255    2256
    2253    2251    2255    2258    2253    2251    2255    2257
    2253    2251    2255    2256    2254    2251    2255    2258
    2254    2251    2255    2257    2254    2251    2255    2256
    2255    2258    2265    2261    2256    2255    2258    2265
    2256    2255    2258    2260    2256    2255    2258    2259
    2257    2255    2258    2265    2257    2255    2258    2260
    2257    2255    2258    2259    2258    2265    2261    2263
    2258    2265    2261    2262    2258    2265    2261    2264
    2259    2258    2265    2261    2260    2258    2265    2261
    2261    2264    2266    2269    2261    2264    2266    2268
    2261    2264    2266    2267    2262    2261    2264    2266
    2263    2261    2264    2266    2264    2266    2269    2271
    2264    2266    2269    2277    2264    2266    2269    2270
    2265    2261    2264    2266    2266    2269    2271    2272
    2266    2269    2277    2280    2266    2269    2277    2279
    2266    2269    2277    2278    2267    2266    2269    2271
    2267    2266    2269    2277    2267    2266    2269    2270
    2268    2266    2269    2271    2268    2266    2269    2277
    2268    2266    2269    2270    2269    2271    2272    2273
    2269    2271    2272    2274    2269    2277    2280    2281
    2270    2269    2271    2272    2270    2269    2277    2280
    2270    2269    2277    2279    2270    2269    2277    2278
    2271    2272    2274    2286    2271    2272    2274    2276
    2271    2272    2274    2275    2271    2269    2277    2280
    2271    2269    2277    2279    2271    2269    2277    2278
    2272    2274    2286    2289    2272    2274    2286    2288
    2272    2274    2286    2287    2272    2271    2269    2277
    2273    2272    2274    2286    2273    2272    2274    2276
    2273    2272    2274    2275    2274    2286    2289    2292
    2274    2286    2289    2291    2274    2286    2289    2290
    2275    2274    2286    2289    2275    2274    2286    2288
    2275    2274    2286    2287    2276    2274    2286    2289
    2276    2274    2286    2288    2276    2274    2286    2287
    2277    2280    2281    2282    2277    2280    2281    2283
    2278    2277    2280    2281    2279    2277    2280    2281
    2280    2281    2283    2299    2280    2281    2283    2285
    2280    2281    2283    2284    2281    2283    2299    2302
    2281    2283    2299    2301    2281    2283    2299    2300
    2282    2281    2283    2299    2282    2281    2283    2285
    2282    2281    2283    2284    2283    2299    2302    2305
    2283    2299    2302    2304    2283    2299    2302    2303
    2284    2283    2299    2302    2284    2283    2299    2301
    2284    2283    2299    2300    2285    2283    2299    2302
    2285    2283    2299    2301    2285    2283    2299    2300
    2286    2289    2292    2295    2286    2289    2292    2294
    2286    2289    2292    2293    2287    2286    2289    2292
    2287    2286    2289    2291    2287    2286    2289    2290
    2288    2286    2289    2292    2288    2286    2289    2291
    2288    2286    2289    2290    2289    2292    2295    2297
    2289    2292    2295    2296    2289    2292    2295    2298
    2290    2289    2292    2295    2290    2289    2292    2294
    2290    2289    2292    2293    2291    2289    2292    2295
    2291    2289    2292    2294    2291    2289    2292    2293
    2293    2292    2295    2297    2293    2292    2295    2296
    2293    2292    2295    2298    2294    2292    2295    2297
    2294    2292    2295    2296    2294    2292    2295    2298
    2299    2302    2305    2308    2299    2302    2305    2307
    2299    2302    2305    2306    2300    2299    2302    2305
    2300    2299    2302    2304    2300    2299    2302    2303
    2301    2299    2302    2305    2301    2299    2302    2304
    2301    2299    2302    2303    2302    2305    2308    2310
    2302    2305    2308    2309    2302    2305    2308    2311
    2303    2302    2305    2308    2303    2302    2305    2307
    2303    2302    2305    2306    2304    2302    2305    2308
    2304    2302    2305    2307    2304    2302    2305    2306
    2306    2305    2308    2310    2306    2305    2308    2309
    2306    2305    2308    2311    2307    2305    2308    2310
    2307    2305    2308    2309    2307    2305    2308    2311
    2312    2316    2321    2327    2312    2316    2321    2323
    2312    2316    2321    2322    2312    2316    2318    2319
    2312    2316    2318    2320    2313    2312    2316    2321
    2313    2312    2316    2317    2313    2312    2316    2318
    2314    2312    2316    2321    2314    2312    2316    2317
    2314    2312    2316    2318    2315    2312    2316    2321
    2315    2312    2316    2317    2315    2312    2316    2318
    2316    2321    2327    2324    2317    2316    2321    2327
    2317    2316    2321    2323    2317    2316    2321    2322
    2317    2316    2318    2319    2317    2316    2318    2320
    2318    2316    2321    2327    2318    2316    2321    2323
    2318    2316    2321    2322    2319    2318    2316    2321
    2320    2318    2316    2321    2321    2327    2324    2326
    2321    2327    2324    2325    2321    2327    2324    2328
    2322    2321    2327    2324    2323    2321    2327    2324
    2324    2328    2329    2332    2324    2328    2329    2331
    2324    2328    2329    2330    2325    2324    2328    2329
    2326    2324    2328    2329    2327    2324    2328    2329
    2328    2329    2332    2334    2328    2329    2332    2340
    2328    2329    2332    2333    2329    2332    2334    2335
    2329    2332    2340    2343    2329    2332    2340    2342
    2329    2332    2340    2341    2330    2329    2332    2334
    2330    2329    2332    2340    2330    2329    2332    2333
    2331    2329    2332    2334    2331    2329    2332    2340
    2331    2329    2332    2333    2332    2334    2335    2336
    2332    2334    2335    2337    2332    2340    2343    2344
    2333    2332    2334    2335    2333    2332    2340    2343
    2333    2332    2340    2342    2333    2332    2340    2341
    2334    2335    2337    2349    2334    2335    2337    2339
    2334    2335    2337    2338    2334    2332    2340    2343
    2334    2332    2340    2342    2334    2332    2340    2341
    2335    2337    2349    2352    2335    2337    2349    2351
    2335    2337    2349    2350    2335    2334    2332    2340
    2336    2335    2337    2349    2336    2335    2337    2339
    2336    2335    2337    2338    2337    2349    2352    2355
    2337    2349    2352    2354    2337    2349    2352    2353
    2338    2337    2349    2352    2338    2337    2349    2351
    2338    2337    2349    2350    2339    2337    2349    2352
    2339    2337    2349    2351    2339    2337    2349    2350
    2340    2343    2344    2345    2340    2343    2344    2346
    2341    2340    2343    2344    2342    2340    2343    2344
    2343    2344    2346    2362    2343    2344    2346    2348
    2343    2344    2346    2347    2344    2346    2362    2365
    2344    2346    2362    2364    2344    2346    2362    2363
    2345    2344    2346    2362    2345    2344    2346    2348
    2345    2344    2346    2347    2346    2362    2365    2368
    2346    2362    2365    2367    2346    2362    2365    2366
    2347    2346    2362    2365    2347    2346    2362    2364
    2347    2346    2362    2363    2348    2346    2362    2365
    2348    2346    2362    2364    2348    2346    2362    2363
    2349    2352    2355    2358    2349    2352    2355    2357
    2349    2352    2355    2356    2350    2349    2352    2355
    2350    2349    2352    2354    2350    2349    2352    2353
    2351    2349    2352    2355    2351    2349    2352    2354
    2351    2349    2352    2353    2352    2355    2358    2360
    2352    2355    2358    2359    2352    2355    2358    2361
    2353    2352    2355    2358    2353    2352    2355    2357
    2353    2352    2355    2356    2354    2352    2355    2358
    2354    2352    2355    2357    2354    2352    2355    2356
    2356    2355    2358    2360    2356    2355    2358    2359
    2356    2355    2358    2361    2357    2355    2358    2360
    2357    2355    2358    2359    2357    2355    2358    2361
    2362    2365    2368    2371    2362    2365    2368    2370
    2362    2365    2368    2369    2363    2362    2365    2368
    2363    2362    2365    2367    2363    2362    2365    2366
    2364    2362    2365    2368    2364    2362    2365    2367
    2364    2362    2365    2366    2365    2368    2371    2373
    2365    2368    2371    2372    2365    2368    2371    2374
    2366    2365    2368    2371    2366    2365    2368    2370
    2366    2365    2368    2369    2367    2365    2368    2371
    2367    2365    2368    2370    2367    2365    2368    2369
    2369    2368    2371    2373    2369    2368    2371    2372
    2369    2368    2371    2374    2370    2368    2371    2373
    2370    2368    2371    2372    2370    2368    2371    2374
    2375    2376    2391    2397    2375    2376    2391    2393
    2375    2376    2391    2392    2376    2391    2397    2394
    2376    2375    2387    2390    2376    2375    2387    2389
    2376    2375    2387    2388    2376    2375    2383    2386
    2376    2375    2383    2385    2376    2375    2383    2384
    2376    2375    2379    2382    2376    2375    2379    2381
    2376    2375    2379    2380    2377    2376    2391    2397
    2377    2376    2391    2393    2377    2376    2391    2392
    2377    2376    2375    2387    2377    2376    2375    2383
    2377    2376    2375    2379    2378    2376    2391    2397
    2378    2376    2391    2393    2378    2376    2391    2392
    2378    2376    2375    2387    2378    2376    2375    2383
    2378    2376    2375    2379    2379    2375    2376    2391
    2379    2375    2387    2390    2379    2375    2387    2389
    2379    2375    2387    2388    2379    2375    2383    2386
    2379    2375    2383    2385    2379    2375    2383    2384
    2380    2379    2375    2387    2380    2379    2375    2383
    2381    2379    2375    2387    2381    2379    2375    2383
    2382    2379    2375    2387    2382    2379    2375    2383
    2383    2375    2376    2391    2383    2375    2387    2390
    2383    2375    2387    2389    2383    2375    2387    2388
    2384    2383    2375    2387    2385    2383    2375    2387
    2386    2383    2375    2387    2387    2375    2376    2391
    2391    2397    2394    2396    2391    2397    2394    2395
    2391    2397    2394    2398    2392    2391    2397    2394
    2393    2391    2397    2394    2394    2398    2399    2402
    2394    2398    2399    2401    2394    2398    2399    2400
    2395    2394    2398    2399    2396    2394    2398    2399
    2397    2394    2398    2399    2398    2399    2402    2404
    2398    2399    2402    2410    2398    2399    2402    2403
    2399    2402    2404    2405    2399    2402    2410    2413
    2399    2402    2410    2412    2399    2402    2410    2411
    2400    2399    2402    2404    2400    2399    2402    2410
    2400    2399    2402    2403    2401    2399    2402    2404
    2401    2399    2402    2410    2401    2399    2402    2403
    2402    2404    2405    2406    2402    2404    2405    2407
    2402    2410    2413    2414    2403    2402    2404    2405
    2403    2402    2410    2413    2403    2402    2410    2412
    2403    2402    2410    2411    2404    2405    2407    2419
    2404    2405    2407    2409    2404    2405    2407    2408
    2404    2402    2410    2413    2404    2402    2410    2412
    2404    2402    2410    2411    2405    2407    2419    2422
    2405    2407    2419    2421    2405    2407    2419    2420
    2405    2404    2402    2410    2406    2405    2407    2419
    2406    2405    2407    2409    2406    2405    2407    2408
    2407    2419    2422    2425    2407    2419    2422    2424
    2407    2419    2422    2423    2408    2407    2419    2422
    2408    2407    2419    2421    2408    2407    2419    2420
    2409    2407    2419    2422    2409    2407    2419    2421
    2409    2407    2419    2420    2410    2413    2414    2415
    2410    2413    2414    2416    2411    2410    2413    2414
    2412    2410    2413    2414    2413    2414    2416    2432
    2413    2414    2416    2418    2413    2414    2416    2417
    2414    2416    2432    2435    2414    2416    2432    2434
    2414    2416    2432    2433    2415    2414    2416    2432
    2415    2414    2416    2418    2415    2414    2416    2417
    2416    2432    2435    2438    2416    2432    2435    2437
    2416    2432    2435    2436    2417    2416    2432    2435
    2417    2416    2432    2434    2417    2416    2432    2433
    2418    2416    2432    2435    2418    2416    2432    2434
    2418    2416    2432    2433    2419    2422    2425    2428
    2419    2422    2425    2427    2419    2422    2425    2426
    2420    2419    2422    2425    2420    2419    2422    2424
    2420    2419    2422    2423    2421    2419    2422    2425
    2421    2419    2422    2424    2421    2419    2422    2423
    2422    2425    2428    2430    2422    2425    2428    2429
    2422    2425    2428    2431    2423    2422    2425    2428
    2423    2422    2425    2427    2423    2422    2425    2426
    2424    2422    2425    2428    2424    2422    2425    2427
    2424    2422    2425    2426    2426    2425    2428    2430
    2426    2425    2428    2429    2426    2425    2428    2431
    2427    2425    2428    2430    2427    2425    2428    2429
    2427    2425    2428    2431    2432    2435    2438    2441
    2432    2435    2438    2440    2432    2435    2438    2439
    2433    2432    2435    2438    2433    2432    2435    2437
    2433    2432    2435    2436    2434    2432    2435    2438
    2434    2432    2435    2437    2434    2432    2435    2436
    2435    2438    2441    2443    2435    2438    2441    2442
    2435    2438    2441    2444    2436    2435    2438    2441
    2436    2435    2438    2440    2436    2435    2438    2439
    2437    2435    2438    2441    2437    2435    2438    2440
    2437    2435    2438    2439    2439    2438    2441    2443
    2439    2438    2441    2442    2439    2438    2441    2444
    2440    2438    2441    2443    2440    2438    2441    2442
    2440    2438    2441    2444    2445    2449    2452    2459
    2445    2449    2452    2454    2445    2449    2452    2453
    2446    2445    2449    2452    2446    2445    2449    2451
    2446    2445    2449    2450    2447    2445    2449    2452
    2447    2445    2449    2451    2447    2445    2449    2450
    2448    2445    2449    2452    2448    2445    2449    2451
    2448    2445    2449    2450    2449    2452    2459    2455
    2450    2449    2452    2459    2450    2449    2452    2454
    2450    2449    2452    2453    2451    2449    2452    2459
    2451    2449    2452    2454    2451    2449    2452    2453
    2452    2459    2455    2457    2452    2459    2455    2456
    2452    2459    2455    2458    2453    2452    2459    2455
    2454    2452    2459    2455    2455    2458    2460    2463
    2455    2458    2460    2462    2455    2458    2460    2461
    2456    2455    2458    2460    2457    2455    2458    2460
    2458    2460    2463    2465    2458    2460    2463    2471
    2458    2460    2463    2464    2459    2455    2458    2460
    2460    2463    2465    2466    2460    2463    2471    2474
    2460    2463    2471    2473    2460    2463    2471    2472
    2461    2460    2463    2465    2461    2460    2463    2471
    2461    2460    2463    2464    2462    2460    2463    2465
    2462    2460    2463    2471    2462    2460    2463    2464
    2463    2465    2466    2467    2463    2465    2466    2468
    2463    2471    2474    2475    2464    2463    2465    2466
    2464    2463    2471    2474    2464    2463    2471    2473
    2464    2463    2471    2472    2465    2466    2468    2480
    2465    2466    2468    2470    2465    2466    2468    2469
    2465    2463    2471    2474    2465    2463    2471    2473
    2465    2463    2471    2472    2466    2468    2480    2483
    2466    2468    2480    2482    2466    2468    2480    2481
    2466    2465    2463    2471    2467    2466    2468    2480
    2467    2466    2468    2470    2467    2466    2468    2469
    2468    2480    2483    2486    2468    2480    2483    2485
    2468    2480    2483    2484    2469    2468    2480    2483
    2469    2468    2480    2482    2469    2468    2480    2481
    2470    2468    2480    2483    2470    2468    2480    2482
    2470    2468    2480    2481    2471    2474    2475    2476
    2471    2474    2475    2477    2472    2471    2474    2475
    2473    2471    2474    2475    2474    2475    2477    2493
    2474    2475    2477    2479    2474    2475    2477    2478
    2475    2477    2493    2496    2475    2477    2493    2495
    2475    2477    2493    2494    2476    2475    2477    2493
    2476    2475    2477    2479    2476    2475    2477    2478
    2477    2493    2496    2499    2477    2493    2496    2498
    2477    2493    2496    2497    2478    2477    2493    2496
    2478    2477    2493    2495    2478    2477    2493    2494
    2479    2477    2493    2496    2479    2477    2493    2495
    2479    2477    2493    2494    2480    2483    2486    2489
    2480    2483    2486    2488    2480    2483    2486    2487
    2481    2480    2483    2486    2481    2480    2483    2485
    2481    2480    2483    2484    2482    2480    2483    2486
    2482    2480    2483    2485    2482    2480    2483    2484
    2483    2486    2489    2491    2483    2486    2489    2490
    2483    2486    2489    2492    2484    2483    2486    2489
    2484    2483    2486    2488    2484    2483    2486    2487
    2485    2483    2486    2489    2485    2483    2486    2488
    2485    2483    2486    2487    2487    2486    2489    2491
    2487    2486    2489    2490    2487    2486    2489    2492
    2488    2486    2489    2491    2488    2486    2489    2490
    2488    2486    2489    2492    2493    2496    2499    2502
    2493    2496    2499    2501    2493    2496    2499    2500
    2494    2493    2496    2499    2494    2493    2496    2498
    2494    2493    2496    2497    2495    2493    2496    2499
    2495    2493    2496    2498    2495    2493    2496    2497
    2496    2499    2502    2504    2496    2499    2502    2503
    2496    2499    2502    2505    2497    2496    2499    2502
    2497    2496    2499    2501    2497    2496    2499    2500
    2498    2496    2499    2502    2498    2496    2499    2501
    2498    2496    2499    2500    2500    2499    2502    2504
    2500    2499    2502    2503    2500    2499    2502    2505
    2501    2499    2502    2504    2501    2499    2502    2503
    2501    2499    2502    2505    2506    2507    2522    2528
    2506    2507    2522    2524    2506    2507    2522    2523
    2507    2522    2528    2525    2507    2506    2518    2521
    2507    2506    2518    2520    2507    2506    2518    2519
    2507    2506    2514    2517    2507    2506    2514    2516
    2507    2506    2514    2515    2507    2506    2510    2513
    2507    2506    2510    2512    2507    2506    2510    2511
    2508    2507    2522    2528    2508    2507    2522    2524
    2508    2507    2522    2523    2508    2507    2506    2518
    2508    2507    2506    2514    2508    2507    2506    2510
    2509    2507    2522    2528    2509    2507    2522    2524
    2509    2507    2522    2523    2509    2507    2506    2518
    2509    2507    2506    2514    2509    2507    2506    2510
    2510    2506    2507    2522    2510    2506    2518    2521
    2510    2506    2518    2520    2510    2506    2518    2519
    2510    2506    2514    2517    2510    2506    2514    2516
    2510    2506    2514    2515    2511    2510    2506    2518
    2511    2510    2506    2514    2512    2510    2506    2518
    2512    2510    2506    2514    2513    2510    2506    2518
    2513    2510    2506    2514    2514    2506    2507    2522
    2514    2506    2518    2521    2514    2506    2518    2520
    2514    2506    2518    2519    2515    2514    2506    2518
    2516    2514    2506    2518    2517    2514    2506    2518
    2518    2506    2507    2522    2522    2528    2525    2527
    2522    2528    2525    2526    2522    2528    2525    2529
    2523    2522    2528    2525    2524    2522    2528    2525
    2525    2529    2530    2533    2525    2529    2530    2532
    2525    2529    2530    2531    2526    2525    2529    2530
    2527    2525    2529    2530    2528    2525    2529    2530
    2529    2530    2533    2535    2529    2530    2533    2541
    2529    2530    2533    2534    2530    2533    2535    2536
    2530    2533    2541    2544    2530    2533    2541    2543
    2530    2533    2541    2542    2531    2530    2533    2535
    2531    2530    2533    2541    2531    2530    2533    2534
    2532    2530    2533    2535    2532    2530    2533    2541
    2532    2530    2533    2534    2533    2535    2536    2537
    2533    2535    2536    2538    2533    2541    2544    2545
    2534    2533    2535    2536    2534    2533    2541    2544
    2534    2533    2541    2543    2534    2533    2541    2542
    2535    2536    2538    2550    2535    2536    2538    2540
    2535    2536    2538    2539    2535    2533    2541    2544
    2535    2533    2541    2543    2535    2533    2541    2542
    2536    2538    2550    2553    2536    2538    2550    2552
    2536    2538    2550    2551    2536    2535    2533    2541
    2537    2536    2538    2550    2537    2536    2538    2540
    2537    2536    2538    2539    2538    2550    2553    2556
    2538    2550    2553    2555    2538    2550    2553    2554
    2539    2538    2550    2553    2539    2538    2550    2552
    2539    2538    2550    2551    2540    2538    2550    2553
    2540    2538    2550    2552    2540    2538    2550    2551
    2541    2544    2545    2546    2541    2544    2545    2547
    2542    2541    2544    2545    2543    2541    2544    2545
    2544    2545    2547    2563    2544    2545    2547    2549
    2544    2545    2547    2548    2545    2547    2563    2566
    2545    2547    2563    2565    2545    2547    2563    2564
    2546    2545    2547    2563    2546    2545    2547    2549
    2546    2545    2547    2548    2547    2563    2566    2569
    2547    2563    2566    2568    2547    2563    2566    2567
    2548    2547    2563    2566    2548    2547    2563    2565
    2548    2547    2563    2564    2549    2547    2563    2566
    2549    2547    2563    2565    2549    2547    2563    2564
    2550    2553    2556    2559    2550    2553    2556    2558
    2550    2553    2556    2557    2551    2550    2553    2556
    2551    2550    2553    2555    2551    2550    2553    2554
    2552    2550    2553    2556    2552    2550    2553    2555
    2552    2550    2553    2554    2553    2556    2559    2561
    2553    2556    2559    2560    2553    2556    2559    2562
    2554    2553    2556    2559    2554    2553    2556    2558
    2554    2553    2556    2557    2555    2553    2556    2559
    2555    2553    2556    2558    2555    2553    2556    2557
    2557    2556    2559    2561    2557    2556    2559    2560
    2557    2556    2559    2562    2558    2556    2559    2561
    2558    2556    2559    2560    2558    2556    2559    2562
    2563    2566    2569    2572    2563    2566    2569    2571
    2563    2566    2569    2570    2564    2563    2566    2569
    2564    2563    2566    2568    2564    2563    2566    2567
    2565    2563    2566    2569    2565    2563    2566    2568
    2565    2563    2566    2567    2566    2569    2572    2574
    2566    2569    2572    2573    2566    2569    2572    2575
    2567    2566    2569    2572    2567    2566    2569    2571
    2567    2566    2569    2570    2568    2566    2569    2572
    2568    2566    2569    2571    2568    2566    2569    2570
    2570    2569    2572    2574    2570    2569    2572    2573
    2570    2569    2572    2575    2571    2569    2572    2574
    2571    2569    2572    2573    2571    2569    2572    2575
    2576    2580    2585    2591    2576    2580    2585    2587
    2576    2580    2585    2586    2576    2580    2582    2583
    2576    2580    2582    2584    2577    2576    2580    2585
    2577    2576    2580    2581    2577    2576    2580    2582
    2578    2576    2580    2585    2578    2576    2580    2581
    2578    2576    2580    2582    2579    2576    2580    2585
    2579    2576    2580    2581    2579    2576    2580    2582
    2580    2585    2591    2588    2581    2580    2585    2591
    2581    2580    2585    2587    2581    2580    2585    2586
    2581    2580    2582    2583    2581    2580    2582    2584
    2582    2580    2585    2591    2582    2580    2585    2587
    2582    2580    2585    2586    2583    2582    2580    2585
    2584    2582    2580    2585    2585    2591    2588    2590
    2585    2591    2588    2589    2585    2591    2588    2592
    2586    2585    2591    2588    2587    2585    2591    2588
    2588    2592    2593    2596    2588    2592    2593    2595
    2588    2592    2593    2594    2589    2588    2592    2593
    2590    2588    2592    2593    2591    2588    2592    2593
    2592    2593    2596    2598    2592    2593    2596    2604
    2592    2593    2596    2597    2593    2596    2598    2599
    2593    2596    2604    2607    2593    2596    2604    2606
    2593    2596    2604    2605    2594    2593    2596    2598
    2594    2593    2596    2604    2594    2593    2596    2597
    2595    2593    2596    2598    2595    2593    2596    2604
    2595    2593    2596    2597    2596    2598    2599    2600
    2596    2598    2599    2601    2596    2604    2607    2608
    2597    2596    2598    2599    2597    2596    2604    2607
    2597    2596    2604    2606    2597    2596    2604    2605
    2598    2599    2601    2613    2598    2599    2601    2603
    2598    2599    2601    2602    2598    2596    2604    2607
    2598    2596    2604    2606    2598    2596    2604    2605
    2599    2601    2613    2616    2599    2601    2613    2615
    2599    2601    2613    2614    2599    2598    2596    2604
    2600    2599    2601    2613    2600    2599    2601    2603
    2600    2599    2601    2602    2601    2613    2616    2619
    2601    2613    2616    2618    2601    2613    2616    2617
    2602    2601    2613    2616    2602    2601    2613    2615
    2602    2601    2613    2614    2603    2601    2613    2616
    2603    2601    2613    2615    2603    2601    2613    2614
    2604    2607    2608    2609    2604    2607    2608    2610
    2605    2604    2607    2608    2606    2604    2607    2608
    2607    2608    2610    2626    2607    2608    2610    2612
    2607    2608    2610    2611    2608    2610    2626    2629
    2608    2610    2626    2628    2608    2610    2626    2627
    2609    2608    2610    2626    2609    2608    2610    2612
    2609    2608    2610    2611    2610    2626    2629    2632
    2610    2626    2629    2631    2610    2626    2629    2630
    2611    2610    2626    2629    2611    2610    2626    2628
    2611    2610    2626    2627    2612    2610    2626    2629
    2612    2610    2626    2628    2612    2610    2626    2627
    2613    2616    2619    2622    2613    2616    2619    2621
    2613    2616    2619    2620    2614    2613    2616    2619
    2614    2613    2616    2618    2614    2613    2616    2617
    2615    2613    2616    2619    2615    2613    2616    2618
    2615    2613    2616    2617    2616    2619    2622    2624
    2616    2619    2622    2623    2616    2619    2622    2625
    2617    2616    2619    2622    2617    2616    2619    2621
    2617    2616    2619    2620    2618    2616    2619    2622
    2618    2616    2619    2621    2618    2616    2619    2620
    2620    2619    2622    2624    2620    2619    2622    2623
    2620    2619    2622    2625    2621    2619    2622    2624
    2621    2619    2622    2623    2621    2619    2622    2625
    2626    2629    2632    2635    2626    2629    2632    2634
    2626    2629    2632    2633    2627    2626    2629    2632
    2627    2626    2629    2631    2627    2626    2629    2630
    2628    2626    2629    2632    2628    2626    2629    2631
    2628    2626    2629    2630    2629    2632    2635    2637
    2629    2632    2635    2636    2629    2632    2635    2638
    2630    2629    2632    2635    2630    2629    2632    2634
    2630    2629    2632    2633    2631    2629    2632    2635
    2631    2629    2632    2634    2631    2629    2632    2633
    2633    2632    2635    2637    2633    2632    2635    2636
    2633    2632    2635    2638    2634    2632    2635    2637
    2634    2632    2635    2636    2634    2632    2635    2638
    2639    2652    2655    2657    2639    2652    2655    2656
    2639    2652    2655    2662    2640    2639    2644    2647
    2640    2639    2644    2646    2640    2639    2644    2645
    2640    2639    2648    2651    2640    2639    2648    2650
    2640    2639    2648    2649    2640    2639    2652    2654
    2640    2639    2652    2653    2640    2639    2652    2655
    2641    2640    2639    2644    2641    2640    2639    2648
    2641    2640    2639    2652    2642    2640    2639    2644
    2642    2640    2639    2648    2642    2640    2639    2652
    2643    2640    2639    2644    2643    2640    2639    2648
    2643    2640    2639    2652    2644    2639    2648    2651
    2644    2639    2648    2650    2644    2639    2648    2649
    2644    2639    2652    2654    2644    2639    2652    2653
    2644    2639    2652    2655    2645    2644    2639    2648
    2645    2644    2639    2652    2646    2644    2639    2648
    2646    2644    2639    2652    2647    2644    2639    2648
    2647    2644    2639    2652    2648    2639    2652    2654
    2648    2639    2652    2653    2648    2639    2652    2655
    2649    2648    2639    2652    2650    2648    2639    2652
    2651    2648    2639    2652    2652    2655    2662    2658
    2653    2652    2655    2657    2653    2652    2655    2656
    2653    2652    2655    2662    2654    2652    2655    2657
    2654    2652    2655    2656    2654    2652    2655    2662
    2655    2662    2658    2660    2655    2662    2658    2659
    2655    2662    2658    2661    2656    2655    2662    2658
    2657    2655    2662    2658    2658    2661    2663    2665
    2658    2661    2663    2664    2658    2661    2663    2668
    2659    2658    2661    2663    2660    2658    2661    2663
    2661    2663    2668    2666    2661    2663    2668    2669
    2661    2663    2668    2670    2662    2658    2661    2663
    2663    2668    2666    2682    2663    2668    2666    2667
    2663    2668    2670    2672    2663    2668    2670    2671
    2663    2668    2670    2674    2664    2663    2668    2666
    2664    2663    2668    2669    2664    2663    2668    2670
    2665    2663    2668    2666    2665    2663    2668    2669
    2665    2663    2668    2670    2666    2682    2684    2687
    2666    2682    2684    2686    2666    2682    2684    2685
    2666    2668    2670    2672    2666    2668    2670    2671
    2666    2668    2670    2674    2667    2666    2682    2683
    2667    2666    2682    2684    2667    2666    2668    2669
    2667    2666    2668    2670    2668    2666    2682    2683
    2668    2666    2682    2684    2668    2670    2672    2673
    2668    2670    2674    2676    2668    2670    2674    2675
    2669    2668    2666    2682    2669    2668    2670    2672
    2669    2668    2670    2671    2669    2668    2670    2674
    2670    2668    2666    2682    2670    2674    2676    2677
    2670    2674    2676    2678    2671    2670    2672    2673
    2671    2670    2674    2676    2671    2670    2674    2675
    2672    2670    2674    2676    2672    2670    2674    2675
    2673    2672    2670    2674    2674    2676    2678    2680
    2674    2676    2678    2679    2674    2676    2678    2681
    2675    2674    2676    2677    2675    2674    2676    2678
    2677    2676    2678    2680    2677    2676    2678    2679
    2677    2676    2678    2681    2682    2684    2687    2690
    2682    2684    2687    2689    2682    2684    2687    2688
    2683    2682    2684    2687    2683    2682    2684    2686
    2683    2682    2684    2685    2684    2687    2690    2693
    2684    2687    2690    2692    2684    2687    2690    2691
    2685    2684    2687    2690    2685    2684    2687    2689
    2685    2684    2687    2688    2686    2684    2687    2690
    2686    2684    2687    2689    2686    2684    2687    2688
    2687    2690    2693    2696    2687    2690    2693    2695
    2687    2690    2693    2694    2688    2687    2690    2693
    2688    2687    2690    2692    2688    2687    2690    2691
    2689    2687    2690    2693    2689    2687    2690    2692
    2689    2687    2690    2691    2690    2693    2696    2698
    2690    2693    2696    2697    2690    2693    2696    2699
    2691    2690    2693    2696    2691    2690    2693    2695
    2691    2690    2693    2694    2692    2690    2693    2696
    2692    2690    2693    2695    2692    2690    2693    2694
    2694    2693    2696    2698    2694    2693    2696    2697
    2694    2693    2696    2699    2695    2693    2696    2698
    2695    2693    2696    2697    2695    2693    2696    2699
    2700    2701    2716    2722    2700    2701    2716    2718
    2700    2701    2716    2717    2701    2716    2722    2719
    2701    2700    2712    2715    2701    2700    2712    2714
    2701    2700    2712    2713    2701    2700    2708    2711
    2701    2700    2708    2710    2701    2700    2708    2709
    2701    2700    2704    2707    2701    2700    2704    2706
    2701    2700    2704    2705    2702    2701    2716    2722
    2702    2701    2716    2718    2702    2701    2716    2717
    2702    2701    2700    2712    2702    2701    2700    2708
    2702    2701    2700    2704    2703    2701    2716    2722
    2703    2701    2716    2718    2703    2701    2716    2717
    2703    2701    2700    2712    2703    2701    2700    2708
    2703    2701    2700    2704    2704    2700    2701    2716
    2704    2700    2712    2715    2704    2700    2712    2714
    2704    2700    2712    2713    2704    2700    2708    2711
    2704    2700    2708    2710    2704    2700    2708    2709
    2705    2704    2700    2712    2705    2704    2700    2708
    2706    2704    2700    2712    2706    2704    2700    2708
    2707    2704    2700    2712    2707    2704    2700    2708
    2708    2700    2701    2716    2708    2700    2712    2715
    2708    2700    2712    2714    2708    2700    2712    2713
    2709    2708    2700    2712    2710    2708    2700    2712
    2711    2708    2700    2712    2712    2700    2701    2716
    2716    2722    2719    2721    2716    2722    2719    2720
    2716    2722    2719    2723    2717    2716    2722    2719
    2718    2716    2722    2719    2719    2723    2724    2727
    2719    2723    2724    2726    2719    2723    2724    2725
    2720    2719    2723    2724    2721    2719    2723    2724
    2722    2719    2723    2724    2723    2724    2727    2729
    2723    2724    2727    2735    2723    2724    2727    2728
    2724    2727    2729    2730    2724    2727    2735    2738
    2724    2727    2735    2737    2724    2727    2735    2736
    2725    2724    2727    2729    2725    2724    2727    2735
    2725    2724    2727    2728    2726    2724    2727    2729
    2726    2724    2727    2735    2726    2724    2727    2728
    2727    2729    2730    2731    2727    2729    2730    2732
    2727    2735    2738    2739    2728    2727    2729    2730
    2728    2727    2735    2738    2728    2727    2735    2737
    2728    2727    2735    2736    2729    2730    2732    2744
    2729    2730    2732    2734    2729    2730    2732    2733
    2729    2727    2735    2738    2729    2727    2735    2737
    2729    2727    2735    2736    2730    2732    2744    2747
    2730    2732    2744    2746    2730    2732    2744    2745
    2730    2729    2727    2735    2731    2730    2732    2744
    2731    2730    2732    2734    2731    2730    2732    2733
    2732    2744    2747    2750    2732    2744    2747    2749
    2732    2744    2747    2748    2733    2732    2744    2747
    2733    2732    2744    2746    2733    2732    2744    2745
    2734    2732    2744    2747    2734    2732    2744    2746
    2734    2732    2744    2745    2735    2738    2739    2740
    2735    2738    2739    2741    2736    2735    2738    2739
    2737    2735    2738    2739    2738    2739    2741    2757
    2738    2739    2741    2743    2738    2739    2741    2742
    2739    2741    2757    2760    2739    2741    2757    2759
    2739    2741    2757    2758    2740    2739    2741    2757
    2740    2739    2741    2743    2740    2739    2741    2742
    2741    2757    2760    2763    2741    2757    2760    2762
    2741    2757    2760    2761    2742    2741    2757    2760
    2742    2741    2757    2759    2742    2741    2757    2758
    2743    2741    2757    2760    2743    2741    2757    2759
    2743    2741    2757    2758    2744    2747    2750    2753
    2744    2747    2750    2752    2744    2747    2750    2751
    2745    2744    2747    2750    2745    2744    2747    2749
    2745    2744    2747    2748    2746    2744    2747    2750
    2746    2744    2747    2749    2746    2744    2747    2748
    2747    2750    2753    2755    2747    2750    2753    2754
    2747    2750    2753    2756    2748    2747    2750    2753
    2748    2747    2750    2752    2748    2747    2750    2751
    2749    2747    2750    2753    2749    2747    2750    2752
    2749    2747    2750    2751    2751    2750    2753    2755
    2751    2750    2753    2754    2751    2750    2753    2756
    2752    2750    2753    2755    2752    2750    2753    2754
    2752    2750    2753    2756    2757    2760    2763    2766
    2757    2760    2763    2765    2757    2760    2763    2764
    2758    2757    2760    2763    2758    2757    2760    2762
    2758    2757    2760    2761    2759    2757    2760    2763
    2759    2757    2760    2762    2759    2757    2760    2761
    2760    2763    2766    2768    2760    2763    2766    2767
    2760    2763    2766    2769    2761    2760    2763    2766
    2761    2760    2763    2765    2761    2760    2763    2764
    2762    2760    2763    2766    2762    2760    2763    2765
    2762    2760    2763    2764    2764    2763    2766    2768
    2764    2763    2766    2767    2764    2763    2766    2769
    2765    2763    2766    2768    2765    2763    2766    2767
    2765    2763    2766    2769    2770    2774    2779    2785
    2770    2774    2779    2781    2770    2774    2779    2780
    2770    2774    2776    2777    2770    2774    2776    2778
    2771    2770    2774    2779    2771    2770    2774    2775
    2771    2770    2774    2776    2772    2770    2774    2779
    2772    2770    2774    2775    2772    2770    2774    2776
    2773    2770    2774    2779    2773    2770    2774    2775
    2773    2770    2774    2776    2774    2779    2785    2782
    2775    2774    2779    2785    2775    2774    2779    2781
    2775    2774    2779    2780    2775    2774    2776    2777
    2775    2774    2776    2778    2776    2774    2779    2785
    2776    2774    2779    2781    2776    2774    2779    2780
    2777    2776    2774    2779    2778    2776    2774    2779
    2779    2785    2782    2784    2779    2785    2782    2783
    2779    2785    2782    2786    2780    2779    2785    2782
    2781    2779    2785    2782    2782    2786    2787    2790
    2782    2786    2787    2789    2782    2786    2787    2788
    2783    2782    2786    2787    2784    2782    2786    2787
    2785    2782    2786    2787    2786    2787    2790    2792
    2786    2787    2790    2798    2786    2787    2790    2791
    2787    2790    2792    2793    2787    2790    2798    2801
    2787    2790    2798    2800    2787    2790    2798    2799
    2788    2787    2790    2792    2788    2787    2790    2798
    2788    2787    2790    2791    2789    2787    2790    2792
    2789    2787    2790    2798    2789    2787    2790    2791
    2790    2792    2793    2794    2790    2792    2793    2795
    2790    2798    2801    2802    2791    2790    2792    2793
    2791    2790    2798    2801    2791    2790    2798    2800
    2791    2790    2798    2799    2792    2793    2795    2807
    2792    2793    2795    2797    2792    2793    2795    2796
    2792    2790    2798    2801    2792    2790    2798    2800
    2792    2790    2798    2799    2793    2795    2807    2810
    2793    2795    2807    2809    2793    2795    2807    2808
    2793    2792    2790    2798    2794    2793    2795    2807
    2794    2793    2795    2797    2794    2793    2795    2796
    2795    2807    2810    2813    2795    2807    2810    2812
    2795    2807    2810    2811    2796    2795    2807    2810
    2796    2795    2807    2809    2796    2795    2807    2808
    2797    2795    2807    2810    2797    2795    2807    2809
    2797    2795    2807    2808    2798    2801    2802    2803
    2798    2801    2802    2804    2799    2798    2801    2802
    2800    2798    2801    2802    2801    2802    2804    2820
    2801    2802    2804    2806    2801    2802    2804    2805
    2802    2804    2820    2823    2802    2804    2820    2822
    2802    2804    2820    2821    2803    2802    2804    2820
    2803    2802    2804    2806    2803    2802    2804    2805
    2804    2820    2823    2826    2804    2820    2823    2825
    2804    2820    2823    2824    2805    2804    2820    2823
    2805    2804    2820    2822    2805    2804    2820    2821
    2806    2804    2820    2823    2806    2804    2820    2822
    2806    2804    2820    2821    2807    2810    2813    2816
    2807    2810    2813    2815    2807    2810    2813    2814
    2808    2807    2810    2813    2808    2807    2810    2812
    2808    2807    2810    2811    2809    2807    2810    2813
    2809    2807    2810    2812    2809    2807    2810    2811
    2810    2813    2816    2818    2810    2813    2816    2817
    2810    2813    2816    2819    2811    2810    2813    2816
    2811    2810    2813    2815    2811    2810    2813    2814
    2812    2810    2813    2816    2812    2810    2813    2815
    2812    2810    2813    2814    2814    2813    2816    2818
    2814    2813    2816    2817    2814    2813    2816    2819
    2815    2813    2816    2818    2815    2813    2816    2817
    2815    2813    2816    2819    2820    2823    2826    2829
    2820    2823    2826    2828    2820    2823    2826    2827
    2821    2820    2823    2826    2821    2820    2823    2825
    2821    2820    2823    2824    2822    2820    2823    2826
    2822    2820    2823    2825    2822    2820    2823    2824
    2823    2826    2829    2831    2823    2826    2829    2830
    2823    2826    2829    2832    2824    2823    2826    2829
    2824    2823    2826    2828    2824    2823    2826    2827
    2825    2823    2826    2829    2825    2823    2826    2828
    2825    2823    2826    2827    2827    2826    2829    2831
    2827    2826    2829    2830    2827    2826    2829    2832
    2828    2826    2829    2831    2828    2826    2829    2830
    2828    2826    2829    2832    2833    2846    2849    2851
    2833    2846    2849    2850    2833    2846    2849    2856
    2834    2833    2838    2841    2834    2833    2838    2840
    2834    2833    2838    2839    2834    2833    2842    2845
    2834    2833    2842    2844    2834    2833    2842    2843
    2834    2833    2846    2848    2834    2833    2846    2847
    2834    2833    2846    2849    2835    2834    2833    2838
    2835    2834    2833    2842    2835    2834    2833    2846
    2836    2834    2833    2838    2836    2834    2833    2842
    2836    2834    2833    2846    2837    2834    2833    2838
    2837    2834    2833    2842    2837    2834    2833    2846
    2838    2833    2842    2845    2838    2833    2842    2844
    2838    2833    2842    2843    2838    2833    2846    2848
    2838    2833    2846    2847    2838    2833    2846    2849
    2839    2838    2833    2842    2839    2838    2833    2846
    2840    2838    2833    2842    2840    2838    2833    2846
    2841    2838    2833    2842    2841    2838    2833    2846
    2842    2833    2846    2848    2842    2833    2846    2847
    2842    2833    2846    2849    2843    2842    2833    2846
    2844    2842    2833    2846    2845    2842    2833    2846
    2846    2849    2856    2852    2847    2846    2849    2851
    2847    2846    2849    2850    2847    2846    2849    2856
    2848    2846    2849    2851    2848    2846    2849    2850
    2848    2846    2849    2856    2849    2856    2852    2854
    2849    2856    2852    2853    2849    2856    2852    2855
    2850    2849    2856    2852    2851    2849    2856    2852
    2852    2855    2857    2859    2852    2855    2857    2858
    2852    2855    2857    2862    2853    2852    2855    2857
    2854    2852    2855    2857    2855    2857    2862    2860
    2855    2857    2862    2863    2855    2857    2862    2864
    2856    2852    2855    2857    2857    2862    2860    2876
    2857    2862    2860    2861    2857    2862    2864    2866
    2857    2862    2864    2865    2857    2862    2864    2868
    2858    2857    2862    2860    2858    2857    2862    2863
    2858    2857    2862    2864    2859    2857    2862    2860
    2859    2857    2862    2863    2859    2857    2862    2864
    2860    2876    2878    2881    2860    2876    2878    2880
    2860    2876    2878    2879    2860    2862    2864    2866
    2860    2862    2864    2865    2860    2862    2864    2868
    2861    2860    2876    2877    2861    2860    2876    2878
    2861    2860    2862    2863    2861    2860    2862    2864
    2862    2860    2876    2877    2862    2860    2876    2878
    2862    2864    2866    2867    2862    2864    2868    2870
    2862    2864    2868    2869    2863    2862    2860    2876
    2863    2862    2864    2866    2863    2862    2864    2865
    2863    2862    2864    2868    2864    2862    2860    2876
    2864    2868    2870    2871    2864    2868    2870    2872
    2865    2864    2866    2867    2865    2864    2868    2870
    2865    2864    2868    2869    2866    2864    2868    2870
    2866    2864    2868    2869    2867    2866    2864    2868
    2868    2870    2872    2874    2868    2870    2872    2873
    2868    2870    2872    2875    2869    2868    2870    2871
    2869    2868    2870    2872    2871    2870    2872    2874
    2871    2870    2872    2873    2871    2870    2872    2875
    2876    2878    2881    2884    2876    2878    2881    2883
    2876    2878    2881    2882    2877    2876    2878    2881
    2877    2876    2878    2880    2877    2876    2878    2879
    2878    2881    2884    2887    2878    2881    2884    2886
    2878    2881    2884    2885    2879    2878    2881    2884
    2879    2878    2881    2883    2879    2878    2881    2882
    2880    2878    2881    2884    2880    2878    2881    2883
    2880    2878    2881    2882    2881    2884    2887    2890
    2881    2884    2887    2889    2881    2884    2887    2888
    2882    2881    2884    2887    2882    2881    2884    2886
    2882    2881    2884    2885    2883    2881    2884    2887
    2883    2881    2884    2886    2883    2881    2884    2885
    2884    2887    2890    2892    2884    2887    2890    2891
    2884    2887    2890    2893    2885    2884    2887    2890
    2885    2884    2887    2889    2885    2884    2887    2888
    2886    2884    2887    2890    2886    2884    2887    2889
    2886    2884    2887    2888    2888    2887    2890    2892
    2888    2887    2890    2891    2888    2887    2890    2893
    2889    2887    2890    2892    2889    2887    2890    2891
    2889    2887    2890    2893    2894    2895    2910    2916
    2894    2895    2910    2912    2894    2895    2910    2911
    2895    2910    2916    2913    2895    2894    2906    2909
    2895    2894    2906    2908    2895    2894    2906    2907
    2895    2894    2902    2905    2895    2894    2902    2904
    2895    2894    2902    2903    2895    2894    2898    2901
    2895    2894    2898    2900    2895    2894    2898    2899
    2896    2895    2910    2916    2896    2895    2910    2912
    2896    2895    2910    2911    2896    2895    2894    2906
    2896    2895    2894    2902    2896    2895    2894    2898
    2897    2895    2910    2916    2897    2895    2910    2912
    2897    2895    2910    2911    2897    2895    2894    2906
    2897    2895    2894    2902    2897    2895    2894    2898
    2898    2894    2895    2910    2898    2894    2906    2909
    2898    2894    2906    2908    2898    2894    2906    2907
    2898    2894    2902    2905    2898    2894    2902    2904
    2898    2894    2902    2903    2899    2898    2894    2906
    2899    2898    2894    2902    2900    2898    2894    2906
    2900    2898    2894    2902    2901    2898    2894    2906
    2901    2898    2894    2902    2902    2894    2895    2910
    2902    2894    2906    2909    2902    2894    2906    2908
    2902    2894    2906    2907    2903    2902    2894    2906
    2904    2902    2894    2906    2905    2902    2894    2906
    2906    2894    2895    2910    2910    2916    2913    2915
    2910    2916    2913    2914    2910    2916    2913    2917
    2911    2910    2916    2913    2912    2910    2916    2913
    2913    2917    2918    2921    2913    2917    2918    2920
    2913    2917    2918    2919    2914    2913    2917    2918
    2915    2913    2917    2918    2916    2913    2917    2918
    2917    2918    2921    2923    2917    2918    2921    2929
    2917    2918    2921    2922    2918    2921    2923    2924
    2918    2921    2929    2932    2918    2921    2929    2931
    2918    2921    2929    2930    2919    2918    2921    2923
    2919    2918    2921    2929    2919    2918    2921    2922
    2920    2918    2921    2923    2920    2918    2921    2929
    2920    2918    2921    2922    2921    2923    2924    2925
    2921    2923    2924    2926    2921    2929    2932    2933
    2922    2921    2923    2924    2922    2921    2929    2932
    2922    2921    2929    2931    2922    2921    2929    2930
    2923    2924    2926    2938    2923    2924    2926    2928
    2923    2924    2926    2927    2923    2921    2929    2932
    2923    2921    2929    2931    2923    2921    2929    2930
    2924    2926    2938    2941    2924    2926    2938    2940
    2924    2926    2938    2939    2924    2923    2921    2929
    2925    2924    2926    2938    2925    2924    2926    2928
    2925    2924    2926    2927    2926    2938    2941    2944
    2926    2938    2941    2943    2926    2938    2941    2942
    2927    2926    2938    2941    2927    2926    2938    2940
    2927    2926    2938    2939    2928    2926    2938    2941
    2928    2926    2938    2940    2928    2926    2938    2939
    2929    2932    2933    2934    2929    2932    2933    2935
    2930    2929    2932    2933    2931    2929    2932    2933
    2932    2933    2935    2951    2932    2933    2935    2937
    2932    2933    2935    2936    2933    2935    2951    2954
    2933    2935    2951    2953    2933    2935    2951    2952
    2934    2933    2935    2951    2934    2933    2935    2937
    2934    2933    2935    2936    2935    2951    2954    2957
    2935    2951    2954    2956    2935    2951    2954    2955
    2936    2935    2951    2954    2936    2935    2951    2953
    2936    2935    2951    2952    2937    2935    2951    2954
    2937    2935    2951    2953    2937    2935    2951    2952
    2938    2941    2944    2947    2938    2941    2944    2946
    2938    2941    2944    2945    2939    2938    2941    2944
    2939    2938    2941    2943    2939    2938    2941    2942
    2940    2938    2941    2944    2940    2938    2941    2943
    2940    2938    2941    2942    2941    2944    2947    2949
    2941    2944    2947    2948    2941    2944    2947    2950
    2942    2941    2944    2947    2942    2941    2944    2946
    2942    2941    2944    2945    2943    2941    2944    2947
    2943    2941    2944    2946    2943    2941    2944    2945
    2945    2944    2947    2949    2945    2944    2947    2948
    2945    2944    2947    2950    2946    2944    2947    2949
    2946    2944    2947    2948    2946    2944    2947    2950
    2951    2954    2957    2960    2951    2954    2957    2959
    2951    2954    2957    2958    2952    2951    2954    2957
    2952    2951    2954    2956    2952    2951    2954    2955
    2953    2951    2954    2957    2953    2951    2954    2956
    2953    2951    2954    2955    2954    2957    2960    2962
    2954    2957    2960    2961    2954    2957    2960    2963
    2955    2954    2957    2960    2955    2954    2957    2959
    2955    2954    2957    2958    2956    2954    2957    2960
    2956    2954    2957    2959    2956    2954    2957    2958
    2958    2957    2960    2962    2958    2957    2960    2961
    2958    2957    2960    2963    2959    2957    2960    2962
    2959    2957    2960    2961    2959    2957    2960    2963
    2964    2977    2980    2982    2964    2977    2980    2981
    2964    2977    2980    2987    2965    2964    2969    2972
    2965    2964    2969    2971    2965    2964    2969    2970
    2965    2964    2973    2976    2965    2964    2973    2975
    2965    2964    2973    2974    2965    2964    2977    2979
    2965    2964    2977    2978    2965    2964    2977    2980
    2966    2965    2964    2969    2966    2965    2964    2973
    2966    2965    2964    2977    2967    2965    2964    2969
    2967    2965    2964    2973    2967    2965    2964    2977
    2968    2965    2964    2969    2968    2965    2964    2973
    2968    2965    2964    2977    2969    2964    2973    2976
    2969    2964    2973    2975    2969    2964    2973    2974
    2969    2964    2977    2979    2969    2964    2977    2978
    2969    2964    2977    2980    2970    2969    2964    2973
    2970    2969    2964    2977    2971    2969    2964    2973
    2971    2969    2964    2977    2972    2969    2964    2973
    2972    2969    2964    2977    2973    2964    2977    2979
    2973    2964    2977    2978    2973    2964    2977    2980
    2974    2973    2964    2977    2975    2973    2964    2977
    2976    2973    2964    2977    2977    2980    2987    2983
    2978    2977    2980    2982    2978    2977    2980    2981
    2978    2977    2980    2987    2979    2977    2980    2982
    2979    2977    2980    2981    2979    2977    2980    2987
    2980    2987    2983    2985    2980    2987    2983    2984
    2980    2987    2983    2986    2981    2980    2987    2983
    2982    2980    2987    2983    2983    2986    2988    2990
    2983    2986    2988    2989    2983    2986    2988    2993
    2984    2983    2986    2988    2985    2983    2986    2988
    2986    2988    2993    2991    2986    2988    2993    2994
    2986    2988    2993    2995    2987    2983    2986    2988
    2988    2993    2991    3007    2988    2993    2991    2992
    2988    2993    2995    2997    2988    2993    2995    2996
    2988    2993    2995    2999    2989    2988    2993    2991
    2989    2988    2993    2994    2989    2988    2993    2995
    2990    2988    2993    2991    2990    2988    2993    2994
    2990    2988    2993    2995    2991    3007    3009    3012
    2991    3007    3009    3011    2991    3007    3009    3010
    2991    2993    2995    2997    2991    2993    2995    2996
    2991    2993    2995    2999    2992    2991    3007    3008
    2992    2991    3007    3009    2992    2991    2993    2994
    2992    2991    2993    2995    2993    2991    3007    3008
    2993    2991    3007    3009    2993    2995    2997    2998
    2993    2995    2999    3001    2993    2995    2999    3000
    2994    2993    2991    3007    2994    2993    2995    2997
    2994    2993    2995    2996    2994    2993    2995    2999
    2995    2993    2991    3007    2995    2999    3001    3002
    2995    2999    3001    3003    2996    2995    2997    2998
    2996    2995    2999    3001    2996    2995    2999    3000
    2997    2995    2999    3001    2997    2995    2999    3000
    2998    2997    2995    2999    2999    3001    3003    3005
    2999    3001    3003    3004    2999    3001    3003    3006
    3000    2999    3001    3002    3000    2999    3001    3003
    3002    3001    3003    3005    3002    3001    3003    3004
    3002    3001    3003    3006    3007    3009    3012    3015
    3007    3009    3012    3014    3007    3009    3012    3013
    3008    3007    3009    3012    3008    3007    3009    3011
    3008    3007    3009    3010    3009    3012    3015    3018
    3009    3012    3015    3017    3009    3012    3015    3016
    3010    3009    3012    3015    3010    3009    3012    3014
    3010    3009    3012    3013    3011    3009    3012    3015
    3011    3009    3012    3014    3011    3009    3012    3013
    3012    3015    3018    3021    3012    3015    3018    3020
    3012    3015    3018    3019    3013    3012    3015    3018
    3013    3012    3015    3017    3013    3012    3015    3016
    3014    3012    3015    3018    3014    3012    3015    3017
    3014    3012    3015    3016    3015    3018    3021    3023
    3015    3018    3021    3022    3015    3018    3021    3024
    3016    3015    3018    3021    3016    3015    3018    3020
    3016    3015    3018    3019    3017    3015    3018    3021
    3017    3015    3018    3020    3017    3015    3018    3019
    3019    3018    3021    3023    3019    3018    3021    3022
    3019    3018    3021    3024    3020    3018    3021    3023
    3020    3018    3021    3022    3020    3018    3021    3024
    3025    3029    3032    3039    3025    3029    3032    3034
    3025    3029    3032    3033    3026    3025    3029    3032
    3026    3025    3029    3031    3026    3025    3029    3030
    3027    3025    3029    3032    3027    3025    3029    3031
    3027    3025    3029    3030    3028    3025    3029    3032
    3028    3025    3029    3031    3028    3025    3029    3030
    3029    3032    3039    3035    3030    3029    3032    3039
    3030    3029    3032    3034    3030    3029    3032    3033
    3031    3029    3032    3039    3031    3029    3032    3034
    3031    3029    3032    3033    3032    3039    3035    3037
    3032    3039    3035    3036    3032    3039    3035    3038
    3033    3032    3039    3035    3034    3032    3039    3035
    3035    3038    3040    3043    3035    3038    3040    3042
    3035    3038    3040    3041    3036    3035    3038    3040
    3037    3035    3038    3040    3038    3040    3043    3045
    3038    3040    3043    3051    3038    3040    3043    3044
    3039    3035    3038    3040    3040    3043    3045    3046
    3040    3043    3051    3054    3040    3043    3051    3053
    3040    3043    3051    3052    3041    3040    3043    3045
    3041    3040    3043    3051    3041    3040    3043    3044
    3042    3040    3043    3045    3042    3040    3043    3051
    3042    3040    3043    3044    3043    3045    3046    3047
    3043    3045    3046    3048    3043    3051    3054    3055
    3044    3043    3045    3046    3044    3043    3051    3054
    3044    3043    3051    3053    3044    3043    3051    3052
    3045    3046    3048    3060    3045    3046    3048    3050
    3045    3046    3048    3049    3045    3043    3051    3054
    3045    3043    3051    3053    3045    3043    3051    3052
    3046    3048    3060    3063    3046    3048    3060    3062
    3046    3048    3060    3061    3046    3045    3043    3051
    3047    3046    3048    3060    3047    3046    3048    3050
    3047    3046    3048    3049    3048    3060    3063    3066
    3048    3060    3063    3065    3048    3060    3063    3064
    3049    3048    3060    3063    3049    3048    3060    3062
    3049    3048    3060    3061    3050    3048    3060    3063
    3050    3048    3060    3062    3050    3048    3060    3061
    3051    3054    3055    3056    3051    3054    3055    3057
    3052    3051    3054    3055    3053    3051    3054    3055
    3054    3055    3057    3073    3054    3055    3057    3059
    3054    3055    3057    3058    3055    3057    3073    3076
    3055    3057    3073    3075    3055    3057    3073    3074
    3056    3055    3057    3073    3056    3055    3057    3059
    3056    3055    3057    3058    3057    3073    3076    3079
    3057    3073    3076    3078    3057    3073    3076    3077
    3058    3057    3073    3076    3058    3057    3073    3075
    3058    3057    3073    3074    3059    3057    3073    3076
    3059    3057    3073    3075    3059    3057    3073    3074
    3060    3063    3066    3069    3060    3063    3066    3068
    3060    3063    3066    3067    3061    3060    3063    3066
    3061    3060    3063    3065    3061    3060    3063    3064
    3062    3060    3063    3066    3062    3060    3063    3065
    3062    3060    3063    3064    3063    3066    3069    3071
    3063    3066    3069    3070    3063    3066    3069    3072
    3064    3063    3066    3069    3064    3063    3066    3068
    3064    3063    3066    3067    3065    3063    3066    3069
    3065    3063    3066    3068    3065    3063    3066    3067
    3067    3066    3069    3071    3067    3066    3069    3070
    3067    3066    3069    3072    3068    3066    3069    3071
    3068    3066    3069    3070    3068    3066    3069    3072
    3073    3076    3079    3082    3073    3076    3079    3081
    3073    3076    3079    3080    3074    3073    3076    3079
    3074    3073    3076    3078    3074    3073    3076    3077
    3075    3073    3076    3079    3075    3073    3076    3078
    3075    3073    3076    3077    3076    3079    3082    3084
    3076    3079    3082    3083    3076    3079    3082    3085
    3077    3076    3079    3082    3077    3076    3079    3081
    3077    3076    3079    3080    3078    3076    3079    3082
    3078    3076    3079    3081    3078    3076    3079    3080
    3080    3079    3082    3084    3080    3079    3082    3083
    3080    3079    3082    3085    3081    3079    3082    3084
    3081    3079    3082    3083    3081    3079    3082    3085
    3086    3087    3102    3108    3086    3087    3102    3104
    3086    3087    3102    3103    3087    3102    3108    3105
    3087    3086    3098    3101    3087    3086    3098    3100
    3087    3086    3098    3099    3087    3086    3094    3097
    3087    3086    3094    3096    3087    3086    3094    3095
    3087    3086    3090    3093    3087    3086    3090    3092
    3087    3086    3090    3091    3088    3087    3102    3108
    3088    3087    3102    3104    3088    3087    3102    3103
    3088    3087    3086    3098    3088    3087    3086    3094
    3088    3087    3086    3090    3089    3087    3102    3108
    3089    3087    3102    3104    3089    3087    3102    3103
    3089    3087    3086    3098    3089    3087    3086    3094
    3089    3087    3086    3090    3090    3086    3087    3102
    3090    3086    3098    3101    3090    3086    3098    3100
    3090    3086    3098    3099    3090    3086    3094    3097
    3090    3086    3094    3096    3090    3086    3094    3095
    3091    3090    3086    3098    3091    3090    3086    3094
    3092    3090    3086    3098    3092    3090    3086    3094
    3093    3090    3086    3098    3093    3090    3086    3094
    3094    3086    3087    3102    3094    3086    3098    3101
    3094    3086    3098    3100    3094    3086    3098    3099
    3095    3094    3086    3098    3096    3094    3086    3098
    3097    3094    3086    3098    3098    3086    3087    3102
    3102    3108    3105    3107    3102    3108    3105    3106
    3102    3108    3105    3109    3103    3102    3108    3105
    3104    3102    3108    3105    3105    3109    3110    3113
    3105    3109    3110    3112    3105    3109    3110    3111
    3106    3105    3109    3110    3107    3105    3109    3110
    3108    3105    3109    3110    3109    3110    3113    3115
    3109    3110    3113    3121    3109    3110    3113    3114
    3110    3113    3115    3116    3110    3113    3121    3124
    3110    3113    3121    3123    3110    3113    3121    3122
    3111    3110    3113    3115    3111    3110    3113    3121
    3111    3110    3113    3114    3112    3110    3113    3115
    3112    3110    3113    3121    3112    3110    3113    3114
    3113    3115    3116    3117    3113    3115    3116    3118
    3113    3121    3124    3125    3114    3113    3115    3116
    3114    3113    3121    3124    3114    3113    3121    3123
    3114    3113    3121    3122    3115    3116    3118    3130
    3115    3116    3118    3120    3115    3116    3118    3119
    3115    3113    3121    3124    3115    3113    3121    3123
    3115    3113    3121    3122    3116    3118    3130    3133
    3116    3118    3130    3132    3116    3118    3130    3131
    3116    3115    3113    3121    3117    3116    3118    3130
    3117    3116    3118    3120    3117    3116    3118    3119
    3118    3130    3133    3136    3118    3130    3133    3135
    3118    3130    3133    3134    3119    3118    3130    3133
    3119    3118    3130    3132    3119    3118    3130    3131
    3120    3118    3130    3133    3120    3118    3130    3132
    3120    3118    3130    3131    3121    3124    3125    3126
    3121    3124    3125    3127    3122    3121    3124    3125
    3123    3121    3124    3125    3124    3125    3127    3143
    3124    3125    3127    3129    3124    3125    3127    3128
    3125    3127    3143    3146    3125    3127    3143    3145
    3125    3127    3143    3144    3126    3125    3127    3143
    3126    3125    3127    3129    3126    3125    3127    3128
    3127    3143    3146    3149    3127    3143    3146    3148
    3127    3143    3146    3147    3128    3127    3143    3146
    3128    3127    3143    3145    3128    3127    3143    3144
    3129    3127    3143    3146    3129    3127    3143    3145
    3129    3127    3143    3144    3130    3133    3136    3139
    3130    3133    3136    3138    3130    3133    3136    3137
    3131    3130    3133    3136    3131    3130    3133    3135
    3131    3130    3133    3134    3132    3130    3133    3136
    3132    3130    3133    3135    3132    3130    3133    3134
    3133    3136    3139    3141    3133    3136    3139    3140
    3133    3136    3139    3142    3134    3133    3136    3139
    3134    3133    3136    3138    3134    3133    3136    3137
    3135    3133    3136    3139    3135    3133    3136    3138
    3135    3133    3136    3137    3137    3136    3139    3141
    3137    3136    3139    3140    3137    3136    3139    3142
    3138    3136    3139    3141    3138    3136    3139    3140
    3138    3136    3139    3142    3143    3146    3149    3152
    3143    3146    3149    3151    3143    3146    3149    3150
    3144    3143    3146    3149    3144    3143    3146    3148
    3144    3143    3146    3147    3145    3143    3146    3149
    3145    3143    3146    3148    3145    3143    3146    3147
    3146    3149    3152    3154    3146    3149    3152    3153
    3146    3149    3152    3155    3147    3146    3149    3152
    3147    3146    3149    3151    3147    3146    3149    3150
    3148    3146    3149    3152    3148    3146    3149    3151
    3148    3146    3149    3150    3150    3149    3152    3154
    3150    3149    3152    3153    3150    3149    3152    3155
    3151    3149    3152    3154    3151    3149    3152    3153
    3151    3149    3152    3155    3156    3157    3172    3178
    3156    3157    3172    3174    3156    3157    3172    3173
    3157    3172    3178    3175    3157    3156    3168    3171
    3157    3156    3168    3170    3157    3156    3168    3169
    3157    3156    3164    3167    3157    3156    3164    3166
    3157    3156    3164    3165    3157    3156    3160    3163
    3157    3156    3160    3162    3157    3156    3160    3161
    3158    3157    3172    3178    3158    3157    3172    3174
    3158    3157    3172    3173    3158    3157    3156    3168
    3158    3157    3156    3164    3158    3157    3156    3160
    3159    3157    3172    3178    3159    3157    3172    3174
    3159    3157    3172    3173    3159    3157    3156    3168
    3159    3157    3156    3164    3159    3157    3156    3160
    3160    3156    3157    3172    3160    3156    3168    3171
    3160    3156    3168    3170    3160    3156    3168    3169
    3160    3156    3164    3167    3160    3156    3164    3166
    3160    3156    3164    3165    3161    3160    3156    3168
    3161    3160    3156    3164    3162    3160    3156    3168
    3162    3160    3156    3164    3163    3160    3156    3168
    3163    3160    3156    3164    3164    3156    3157    3172
    3164    3156    3168    3171    3164    3156    3168    3170
    3164    3156    3168    3169    3165    3164    3156    3168
    3166    3164    3156    3168    3167    3164    3156    3168
    3168    3156    3157    3172    3172    3178    3175    3177
    3172    3178    3175    3176    3172    3178    3175    3179
    3173    3172    3178    3175    3174    3172    3178    3175
    3175    3179    3180    3183    3175    3179    3180    3182
    3175    3179    3180    3181    3176    3175    3179    3180
    3177    3175    3179    3180    3178    3175    3179    3180
    3179    3180    3183    3185    3179    3180    3183    3191
    3179    3180    3183    3184    3180    3183    3185    3186
    3180    3183    3191    3194    3180    3183    3191    3193
    3180    3183    3191    3192    3181    3180    3183    3185
    3181    3180    3183    3191    3181    3180    3183    3184
    3182    3180    3183    3185    3182    3180    3183    3191
    3182    3180    3183    3184    3183    3185    3186    3187
    3183    3185    3186    3188    3183    3191    3194    3195
    3184    3183    3185    3186    3184    3183    3191    3194
    3184    3183    3191    3193    3184    3183    3191    3192
    3185    3186    3188    3200    3185    3186    3188    3190
    3185    3186    3188    3189    3185    3183    3191    3194
    3185    3183    3191    3193    3185    3183    3191    3192
    3186    3188    3200    3203    3186    3188    3200    3202
    3186    3188    3200    3201    3186    3185    3183    3191
    3187    3186    3188    3200    3187    3186    3188    3190
    3187    3186    3188    3189    3188    3200    3203    3206
    3188    3200    3203    3205    3188    3200    3203    3204
    3189    3188    3200    3203    3189    3188    3200    3202
    3189    3188    3200    3201    3190    3188    3200    3203
    3190    3188    3200    3202    3190    3188    3200    3201
    3191    3194    3195    3196    3191    3194    3195    3197
    3192    3191    3194    3195    3193    3191    3194    3195
    3194    3195    3197    3213    3194    3195    3197    3199
    3194    3195    3197    3198    3195    3197    3213    3216
    3195    3197    3213    3215    3195    3197    3213    3214
    3196    3195    3197    3213    3196    3195    3197    3199
    3196    3195    3197    3198    3197    3213    3216    3219
    3197    3213    3216    3218    3197    3213    3216    3217
    3198    3197    3213    3216    3198    3197    3213    3215
    3198    3197    3213    3214    3199    3197    3213    3216
    3199    3197    3213    3215    3199    3197    3213    3214
    3200    3203    3206    3209    3200    3203    3206    3208
    3200    3203    3206    3207    3201    3200    3203    3206
    3201    3200    3203    3205    3201    3200    3203    3204
    3202    3200    3203    3206    3202    3200    3203    3205
    3202    3200    3203    3204    3203    3206    3209    3211
    3203    3206    3209    3210    3203    3206    3209    3212
    3204    3203    3206    3209    3204    3203    3206    3208
    3204    3203    3206    3207    3205    3203    3206    3209
    3205    3203    3206    3208    3205    3203    3206    3207
    3207    3206    3209    3211    3207    3206    3209    3210
    3207    3206    3209    3212    3208    3206    3209    3211
    3208    3206    3209    3210    3208    3206    3209    3212
    3213    3216    3219    3222    3213    3216    3219    3221
    3213    3216    3219    3220    3214    3213    3216    3219
    3214    3213    3216    3218    3214    3213    3216    3217
    3215    3213    3216    3219    3215    3213    3216    3218
    3215    3213    3216    3217    3216    3219    3222    3224
    3216    3219    3222    3223    3216    3219    3222    3225
    3217    3216    3219    3222    3217    3216    3219    3221
    3217    3216    3219    3220    3218    3216    3219    3222
    3218    3216    3219    3221    3218    3216    3219    3220
    3220    3219    3222    3224    3220    3219    3222    3223
    3220    3219    3222    3225    3221    3219    3222    3224
    3221    3219    3222    3223    3221    3219    3222    3225
    3226    3230    3233    3240    3226    3230    3233    3235
    3226    3230    3233    3234    3227    3226    3230    3233
    3227    3226    3230    3232    3227    3226    3230    3231
    3228    3226    3230    3233    3228    3226    3230    3232
    3228    3226    3230    3231    3229    3226    3230    3233
    3229    3226    3230    3232    3229    3226    3230    3231
    3230    3233    3240    3236    3231    3230    3233    3240
    3231    3230    3233    3235    3231    3230    3233    3234
    3232    3230    3233    3240    3232    3230    3233    3235
    3232    3230    3233    3234    3233    3240    3236    3238
    3233    3240    3236    3237    3233    3240    3236    3239
    3234    3233    3240    3236    3235    3233    3240    3236
    3236    3239    3241    3244    3236    3239    3241    3243
    3236    3239    3241    3242    3237    3236    3239    3241
    3238    3236    3239    3241    3239    3241    3244    3246
    3239    3241    3244    3252    3239    3241    3244    3245
    3240    3236    3239    3241    3241    3244    3246    3247
    3241    3244    3252    3255    3241    3244    3252    3254
    3241    3244    3252    3253    3242    3241    3244    3246
    3242    3241    3244    3252    3242    3241    3244    3245
    3243    3241    3244    3246    3243    3241    3244    3252
    3243    3241    3244    3245    3244    3246    3247    3248
    3244    3246    3247    3249    3244    3252    3255    3256
    3245    3244    3246    3247    3245    3244    3252    3255
    3245    3244    3252    3254    3245    3244    3252    3253
    3246    3247    3249    3261    3246    3247    3249    3251
    3246    3247    3249    3250    3246    3244    3252    3255
    3246    3244    3252    3254    3246    3244    3252    3253
    3247    3249    3261    3264    3247    3249    3261    3263
    3247    3249    3261    3262    3247    3246    3244    3252
    3248    3247    3249    3261    3248    3247    3249    3251
    3248    3247    3249    3250    3249    3261    3264    3267
    3249    3261    3264    3266    3249    3261    3264    3265
    3250    3249    3261    3264    3250    3249    3261    3263
    3250    3249    3261    3262    3251    3249    3261    3264
    3251    3249    3261    3263    3251    3249    3261    3262
    3252    3255    3256    3257    3252    3255    3256    3258
    3253    3252    3255    3256    3254    3252    3255    3256
    3255    3256    3258    3274    3255    3256    3258    3260
    3255    3256    3258    3259    3256    3258    3274    3277
    3256    3258    3274    3276    3256    3258    3274    3275
    3257    3256    3258    3274    3257    3256    3258    3260
    3257    3256    3258    3259    3258    3274    3277    3280
    3258    3274    3277    3279    3258    3274    3277    3278
    3259    3258    3274    3277    3259    3258    3274    3276
    3259    3258    3274    3275    3260    3258    3274    3277
    3260    3258    3274    3276    3260    3258    3274    3275
    3261    3264    3267    3270    3261    3264    3267    3269
    3261    3264    3267    3268    3262    3261    3264    3267
    3262    3261    3264    3266    3262    3261    3264    3265
    3263    3261    3264    3267    3263    3261    3264    3266
    3263    3261    3264    3265    3264    3267    3270    3272
    3264    3267    3270    3271    3264    3267    3270    3273
    3265    3264    3267    3270    3265    3264    3267    3269
    3265    3264    3267    3268    3266    3264    3267    3270
    3266    3264    3267    3269    3266    3264    3267    3268
    3268    3267    3270    3272    3268    3267    3270    3271
    3268    3267    3270    3273    3269    3267    3270    3272
    3269    3267    3270    3271    3269    3267    3270    3273
    3274    3277    3280    3283    3274    3277    3280    3282
    3274    3277    3280    3281    3275    3274    3277    3280
    3275    3274    3277    3279    3275    3274    3277    3278
    3276    3274    3277    3280    3276    3274    3277    3279
    3276    3274    3277    3278    3277    3280    3283    3285
    3277    3280    3283    3284    3277    3280    3283    3286
    3278    3277    3280    3283    3278    3277    3280    3282
    3278    3277    3280    3281    3279    3277    3280    3283
    3279    3277    3280    3282    3279    3277    3280    3281
    3281    3280    3283    3285    3281    3280    3283    3284
    3281    3280    3283    3286    3282    3280    3283    3285
    3282    3280    3283    3284    3282    3280    3283    3286
    3287    3288    3303    3309    3287    3288    3303    3305
    3287    3288    3303    3304    3288    3303    3309    3306
    3288    3287    3299    3302    3288    3287    3299    3301
    3288    3287    3299    3300    3288    3287    3295    3298
    3288    3287    3295    3297    3288    3287    3295    3296
    3288    3287    3291    3294    3288    3287    3291    3293
    3288    3287    3291    3292    3289    3288    3303    3309
    3289    3288    3303    3305    3289    3288    3303    3304
    3289    3288    3287    3299    3289    3288    3287    3295
    3289    3288    3287    3291    3290    3288    3303    3309
    3290    3288    3303    3305    3290    3288    3303    3304
    3290    3288    3287    3299    3290    3288    3287    3295
    3290    3288    3287    3291    3291    3287    3288    3303
    3291    3287    3299    3302    3291    3287    3299    3301
    3291    3287    3299    3300    3291    3287    3295    3298
    3291    3287    3295    3297    3291    3287    3295    3296
    3292    3291    3287    3299    3292    3291    3287    3295
    3293    3291    3287    3299    3293    3291    3287    3295
    3294    3291    3287    3299    3294    3291    3287    3295
    3295    3287    3288    3303    3295    3287    3299    3302
    3295    3287    3299    3301    3295    3287    3299    3300
    3296    3295    3287    3299    3297    3295    3287    3299
    3298    3295    3287    3299    3299    3287    3288    3303
    3303    3309    3306    3308    3303    3309    3306    3307
    3303    3309    3306    3310    3304    3303    3309    3306
    3305    3303    3309    3306    3306    3310    3311    3314
    3306    3310    3311    3313    3306    3310    3311    3312
    3307    3306    3310    3311    3308    3306    3310    3311
    3309    3306    3310    3311    3310    3311    3314    3316
    3310    3311    3314    3322    3310    3311    3314    3315
    3311    3314    3316    3317    3311    3314    3322    3325
    3311    3314    3322    3324    3311    3314    3322    3323
    3312    3311    3314    3316    3312    3311    3314    3322
    3312    3311    3314    3315    3313    3311    3314    3316
    3313    3311    3314    3322    3313    3311    3314    3315
    3314    3316    3317    3318    3314    3316    3317    3319
    3314    3322    3325    3326    3315    3314    3316    3317
    3315    3314    3322    3325    3315    3314    3322    3324
    3315    3314    3322    3323    3316    3317    3319    3331
    3316    3317    3319    3321    3316    3317    3319    3320
    3316    3314    3322    3325    3316    3314    3322    3324
    3316    3314    3322    3323    3317    3319    3331    3334
    3317    3319    3331    3333    3317    3319    3331    3332
    3317    3316    3314    3322    3318    3317    3319    3331
    3318    3317    3319    3321    3318    3317    3319    3320
    3319    3331    3334    3337    3319    3331    3334    3336
    3319    3331    3334    3335    3320    3319    3331    3334
    3320    3319    3331    3333    3320    3319    3331    3332
    3321    3319    3331    3334    3321    3319    3331    3333
    3321    3319    3331    3332    3322    3325    3326    3327
    3322    3325    3326    3328    3323    3322    3325    3326
    3324    3322    3325    3326    3325    3326    3328    3344
    3325    3326    3328    3330    3325    3326    3328    3329
    3326    3328    3344    3347    3326    3328    3344    3346
    3326    3328    3344    3345    3327    3326    3328    3344
    3327    3326    3328    3330    3327    3326    3328    3329
    3328    3344    3347    3350    3328    3344    3347    3349
    3328    3344    3347    3348    3329    3328    3344    3347
    3329    3328    3344    3346    3329    3328    3344    3345
    3330    3328    3344    3347    3330    3328    3344    3346
    3330    3328    3344    3345    3331    3334    3337    3340
    3331    3334    3337    3339    3331    3334    3337    3338
    3332    3331    3334    3337    3332    3331    3334    3336
    3332    3331    3334    3335    3333    3331    3334    3337
    3333    3331    3334    3336    3333    3331    3334    3335
    3334    3337    3340    3342    3334    3337    3340    3341
    3334    3337    3340    3343    3335    3334    3337    3340
    3335    3334    3337    3339    3335    3334    3337    3338
    3336    3334    3337    3340    3336    3334    3337    3339
    3336    3334    3337    3338    3338    3337    3340    3342
    3338    3337    3340    3341    3338    3337    3340    3343
    3339    3337    3340    3342    3339    3337    3340    3341
    3339    3337    3340    3343    3344    3347    3350    3353
    3344    3347    3350    3352    3344    3347    3350    3351
    3345    3344    3347    3350    3345    3344    3347    3349
    3345    3344    3347    3348    3346    3344    3347    3350
    3346    3344    3347    3349    3346    3344    3347    3348
    3347    3350    3353    3355    3347    3350    3353    3354
    3347    3350    3353    3356    3348    3347    3350    3353
    3348    3347    3350    3352    3348    3347    3350    3351
    3349    3347    3350    3353    3349    3347    3350    3352
    3349    3347    3350    3351    3351    3350    3353    3355
    3351    3350    3353    3354    3351    3350    3353    3356
    3352    3350    3353    3355    3352    3350    3353    3354
    3352    3350    3353    3356    3357    3361    3364    3371
    3357    3361    3364    3366    3357    3361    3364    3365
    3358    3357    3361    3364    3358    3357    3361    3363
    3358    3357    3361    3362    3359    3357    3361    3364
    3359    3357    3361    3363    3359    3357    3361    3362
    3360    3357    3361    3364    3360    3357    3361    3363
    3360    3357    3361    3362    3361    3364    3371    3367
    3362    3361    3364    3371    3362    3361    3364    3366
    3362    3361    3364    3365    3363    3361    3364    3371
    3363    3361    3364    3366    3363    3361    3364    3365
    3364    3371    3367    3369    3364    3371    3367    3368
    3364    3371    3367    3370    3365    3364    3371    3367
    3366    3364    3371    3367    3367    3370    3372    3375
    3367    3370    3372    3374    3367    3370    3372    3373
    3368    3367    3370    3372    3369    3367    3370    3372
    3370    3372    3375    3377    3370    3372    3375    3383
    3370    3372    3375    3376    3371    3367    3370    3372
    3372    3375    3377    3378    3372    3375    3383    3386
    3372    3375    3383    3385    3372    3375    3383    3384
    3373    3372    3375    3377    3373    3372    3375    3383
    3373    3372    3375    3376    3374    3372    3375    3377
    3374    3372    3375    3383    3374    3372    3375    3376
    3375    3377    3378    3379    3375    3377    3378    3380
    3375    3383    3386    3387    3376    3375    3377    3378
    3376    3375    3383    3386    3376    3375    3383    3385
    3376    3375    3383    3384    3377    3378    3380    3392
    3377    3378    3380    3382    3377    3378    3380    3381
    3377    3375    3383    3386    3377    3375    3383    3385
    3377    3375    3383    3384    3378    3380    3392    3395
    3378    3380    3392    3394    3378    3380    3392    3393
    3378    3377    3375    3383    3379    3378    3380    3392
    3379    3378    3380    3382    3379    3378    3380    3381
    3380    3392    3395    3398    3380    3392    3395    3397
    3380    3392    3395    3396    3381    3380    3392    3395
    3381    3380    3392    3394    3381    3380    3392    3393
    3382    3380    3392    3395    3382    3380    3392    3394
    3382    3380    3392    3393    3383    3386    3387    3388
    3383    3386    3387    3389    3384    3383    3386    3387
    3385    3383    3386    3387    3386    3387    3389    3405
    3386    3387    3389    3391    3386    3387    3389    3390
    3387    3389    3405    3408    3387    3389    3405    3407
    3387    3389    3405    3406    3388    3387    3389    3405
    3388    3387    3389    3391    3388    3387    3389    3390
    3389    3405    3408    3411    3389    3405    3408    3410
    3389    3405    3408    3409    3390    3389    3405    3408
    3390    3389    3405    3407    3390    3389    3405    3406
    3391    3389    3405    3408    3391    3389    3405    3407
    3391    3389    3405    3406    3392    3395    3398    3401
    3392    3395    3398    3400    3392    3395    3398    3399
    3393    3392    3395    3398    3393    3392    3395    3397
    3393    3392    3395    3396    3394    3392    3395    3398
    3394    3392    3395    3397    3394    3392    3395    3396
    3395    3398    3401    3403    3395    3398    3401    3402
    3395    3398    3401    3404    3396    3395    3398    3401
    3396    3395    3398    3400    3396    3395    3398    3399
    3397    3395    3398    3401    3397    3395    3398    3400
    3397    3395    3398    3399    3399    3398    3401    3403
    3399    3398    3401    3402    3399    3398    3401    3404
    3400    3398    3401    3403    3400    3398    3401    3402
    3400    3398    3401    3404    3405    3408    3411    3414
    3405    3408    3411    3413    3405    3408    3411    3412
    3406    3405    3408    3411    3406    3405    3408    3410
    3406    3405    3408    3409    3407    3405    3408    3411
    3407    3405    3408    3410    3407    3405    3408    3409
    3408    3411    3414    3416    3408    3411    3414    3415
    3408    3411    3414    3417    3409    3408    3411    3414
    3409    3408    3411    3413    3409    3408    3411    3412
    3410    3408    3411    3414    3410    3408    3411    3413
    3410    3408    3411    3412    3412    3411    3414    3416
    3412    3411    3414    3415    3412    3411    3414    3417
    3413    3411    3414    3416    3413    3411    3414    3415
    3413    3411    3414    3417    3418    3422    3425    3432
    3418    3422    3425    3427    3418    3422    3425    3426
    3419    3418    3422    3425    3419    3418    3422    3424
    3419    3418    3422    3423    3420    3418    3422    3425
    3420    3418    3422    3424    3420    3418    3422    3423
    3421    3418    3422    3425    3421    3418    3422    3424
    3421    3418    3422    3423    3422    3425    3432    3428
    3423    3422    3425    3432    3423    3422    3425    3427
    3423    3422    3425    3426    3424    3422    3425    3432
    3424    3422    3425    3427    3424    3422    3425    3426
    3425    3432    3428    3430    3425    3432    3428    3429
    3425    3432    3428    3431    3426    3425    3432    3428
    3427    3425    3432    3428    3428    3431    3433    3436
    3428    3431    3433    3435    3428    3431    3433    3434
    3429    3428    3431    3433    3430    3428    3431    3433
    3431    3433    3436    3438    3431    3433    3436    3444
    3431    3433    3436    3437    3432    3428    3431    3433
    3433    3436    3438    3439    3433    3436    3444    3447
    3433    3436    3444    3446    3433    3436    3444    3445
    3434    3433    3436    3438    3434    3433    3436    3444
    3434    3433    3436    3437    3435    3433    3436    3438
    3435    3433    3436    3444    3435    3433    3436    3437
    3436    3438    3439    3440    3436    3438    3439    3441
    3436    3444    3447    3448    3437    3436    3438    3439
    3437    3436    3444    3447    3437    3436    3444    3446
    3437    3436    3444    3445    3438    3439    3441    3453
    3438    3439    3441    3443    3438    3439    3441    3442
    3438    3436    3444    3447    3438    3436    3444    3446
    3438    3436    3444    3445    3439    3441    3453    3456
    3439    3441    3453    3455    3439    3441    3453    3454
    3439    3438    3436    3444    3440    3439    3441    3453
    3440    3439    3441    3443    3440    3439    3441    3442
    3441    3453    3456    3459    3441    3453    3456    3458
    3441    3453    3456    3457    3442    3441    3453    3456
    3442    3441    3453    3455    3442    3441    3453    3454
    3443    3441    3453    3456    3443    3441    3453    3455
    3443    3441    3453    3454    3444    3447    3448    3449
    3444    3447    3448    3450    3445    3444    3447    3448
    3446    3444    3447    3448    3447    3448    3450    3466
    3447    3448    3450    3452    3447    3448    3450    3451
    3448    3450    3466    3469    3448    3450    3466    3468
    3448    3450    3466    3467    3449    3448    3450    3466
    3449    3448    3450    3452    3449    3448    3450    3451
    3450    3466    3469    3472    3450    3466    3469    3471
    3450    3466    3469    3470    3451    3450    3466    3469
    3451    3450    3466    3468    3451    3450    3466    3467
    3452    3450    3466    3469    3452    3450    3466    3468
    3452    3450    3466    3467    3453    3456    3459    3462
    3453    3456    3459    3461    3453    3456    3459    3460
    3454    3453    3456    3459    3454    3453    3456    3458
    3454    3453    3456    3457    3455    3453    3456    3459
    3455    3453    3456    3458    3455    3453    3456    3457
    3456    3459    3462    3464    3456    3459    3462    3463
    3456    3459    3462    3465    3457    3456    3459    3462
    3457    3456    3459    3461    3457    3456    3459    3460
    3458    3456    3459    3462    3458    3456    3459    3461
    3458    3456    3459    3460    3460    3459    3462    3464
    3460    3459    3462    3463    3460    3459    3462    3465
    3461    3459    3462    3464    3461    3459    3462    3463
    3461    3459    3462    3465    3466    3469    3472    3475
    3466    3469    3472    3474    3466    3469    3472    3473
    3467    3466    3469    3472    3467    3466    3469    3471
    3467    3466    3469    3470    3468    3466    3469    3472
    3468    3466    3469    3471    3468    3466    3469    3470
    3469    3472    3475    3477    3469    3472    3475    3476
    3469    3472    3475    3478    3470    3469    3472    3475
    3470    3469    3472    3474    3470    3469    3472    3473
    3471    3469    3472    3475    3471    3469    3472    3474
    3471    3469    3472    3473    3473    3472    3475    3477
    3473    3472    3475    3476    3473    3472    3475    3478
    3474    3472    3475    3477    3474    3472    3475    3476
    3474    3472    3475    3478    3479    3483    3486    3493
    3479    3483    3486    3488    3479    3483    3486    3487
    3480    3479    3483    3486    3480    3479    3483    3485
    3480    3479    3483    3484    3481    3479    3483    3486
    3481    3479    3483    3485    3481    3479    3483    3484
    3482    3479    3483    3486    3482    3479    3483    3485
    3482    3479    3483    3484    3483    3486    3493    3489
    3484    3483    3486    3493    3484    3483    3486    3488
    3484    3483    3486    3487    3485    3483    3486    3493
    3485    3483    3486    3488    3485    3483    3486    3487
    3486    3493    3489    3491    3486    3493    3489    3490
    3486    3493    3489    3492    3487    3486    3493    3489
    3488    3486    3493    3489    3489    3492    3494    3497
    3489    3492    3494    3496    3489    3492    3494    3495
    3490    3489    3492    3494    3491    3489    3492    3494
    3492    3494    3497    3499    3492    3494    3497    3505
    3492    3494    3497    3498    3493    3489    3492    3494
    3494    3497    3499    3500    3494    3497    3505    3508
    3494    3497    3505    3507    3494    3497    3505    3506
    3495    3494    3497    3499    3495    3494    3497    3505
    3495    3494    3497    3498    3496    3494    3497    3499
    3496    3494    3497    3505    3496    3494    3497    3498
    3497    3499    3500    3501    3497    3499    3500    3502
    3497    3505    3508    3509    3498    3497    3499    3500
    3498    3497    3505    3508    3498    3497    3505    3507
    3498    3497    3505    3506    3499    3500    3502    3514
    3499    3500    3502    3504    3499    3500    3502    3503
    3499    3497    3505    3508    3499    3497    3505    3507
    3499    3497    3505    3506    3500    3502    3514    3517
    3500    3502    3514    3516    3500    3502    3514    3515
    3500    3499    3497    3505    3501    3500    3502    3514
    3501    3500    3502    3504    3501    3500    3502    3503
    3502    3514    3517    3520    3502    3514    3517    3519
    3502    3514    3517    3518    3503    3502    3514    3517
    3503    3502    3514    3516    3503    3502    3514    3515
    3504    3502    3514    3517    3504    3502    3514    3516
    3504    3502    3514    3515    3505    3508    3509    3510
    3505    3508    3509    3511    3506    3505    3508    3509
    3507    3505    3508    3509    3508    3509    3511    3527
    3508    3509    3511    3513    3508    3509    3511    3512
    3509    3511    3527    3530    3509    3511    3527    3529
    3509    3511    3527    3528    3510    3509    3511    3527
    3510    3509    3511    3513    3510    3509    3511    3512
    3511    3527    3530    3533    3511    3527    3530    3532
    3511    3527    3530    3531    3512    3511    3527    3530
    3512    3511    3527    3529    3512    3511    3527    3528
    3513    3511    3527    3530    3513    3511    3527    3529
    3513    3511    3527    3528    3514    3517    3520    3523
    3514    3517    3520    3522    3514    3517    3520    3521
    3515    3514    3517    3520    3515    3514    3517    3519
    3515    3514    3517    3518    3516    3514    3517    3520
    3516    3514    3517    3519    3516    3514    3517    3518
    3517    3520    3523    3525    3517    3520    3523    3524
    3517    3520    3523    3526    3518    3517    3520    3523
    3518    3517    3520    3522    3518    3517    3520    3521
    3519    3517    3520    3523    3519    3517    3520    3522
    3519    3517    3520    3521    3521    3520    3523    3525
    3521    3520    3523    3524    3521    3520    3523    3526
    3522    3520    3523    3525    3522    3520    3523    3524
    3522    3520    3523    3526    3527    3530    3533    3536
    3527    3530    3533    3535    3527    3530    3533    3534
    3528    3527    3530    3533    3528    3527    3530    3532
    3528    3527    3530    3531    3529    3527    3530    3533
    3529    3527    3530    3532    3529    3527    3530    3531
    3530    3533    3536    3538    3530    3533    3536    3537
    3530    3533    3536    3539    3531    3530    3533    3536
    3531    3530    3533    3535    3531    3530    3533    3534
    3532    3530    3533    3536    3532    3530    3533    3535
    3532    3530    3533    3534    3534    3533    3536    3538
    3534    3533    3536    3537    3534    3533    3536    3539
    3535    3533    3536    3538    3535    3533    3536    3537
    3535    3533    3536    3539    3540    3553    3556    3558
    3540    3553    3556    3557    3540    3553    3556    3563
    3541    3540    3545    3548    3541    3540    3545    3547
    3541    3540    3545    3546    3541    3540    3549    3552
    3541    3540    3549    3551    3541    3540    3549    3550
    3541    3540    3553    3555    3541    3540    3553    3554
    3541    3540    3553    3556    3542    3541    3540    3545
    3542    3541    3540    3549    3542    3541    3540    3553
    3543    3541    3540    3545    3543    3541    3540    3549
    3543    3541    3540    3553    3544    3541    3540    3545
    3544    3541    3540    3549    3544    3541    3540    3553
    3545    3540    3549    3552    3545    3540    3549    3551
    3545    3540    3549    3550    3545    3540    3553    3555
    3545    3540    3553    3554    3545    3540    3553    3556
    3546    3545    3540    3549    3546    3545    3540    3553
    3547    3545    3540    3549    3547    3545    3540    3553
    3548    3545    3540    3549    3548    3545    3540    3553
    3549    3540    3553    3555    3549    3540    3553    3554
    3549    3540    3553    3556    3550    3549    3540    3553
    3551    3549    3540    3553    3552    3549    3540    3553
    3553    3556    3563    3559    3554    3553    3556    3558
    3554    3553    3556    3557    3554    3553    3556    3563
    3555    3553    3556    3558    3555    3553    3556    3557
    3555    3553    3556    3563    3556    3563    3559    3561
    3556    3563    3559    3560    3556    3563    3559    3562
    3557    3556    3563    3559    3558    3556    3563    3559
    3559    3562    3564    3566    3559    3562    3564    3565
    3559    3562    3564    3569    3560    3559    3562    3564
    3561    3559    3562    3564    3562    3564    3569    3567
    3562    3564    3569    3570    3562    3564    3569    3571
    3563    3559    3562    3564    3564    3569    3567    3583
    3564    3569    3567    3568    3564    3569    3571    3573
    3564    3569    3571    3572    3564    3569    3571    3575
    3565    3564    3569    3567    3565    3564    3569    3570
    3565    3564    3569    3571    3566    3564    3569    3567
    3566    3564    3569    3570    3566    3564    3569    3571
    3567    3583    3585    3588    3567    3583    3585    3587
    3567    3583    3585    3586    3567    3569    3571    3573
    3567    3569    3571    3572    3567    3569    3571    3575
    3568    3567    3583    3584    3568    3567    3583    3585
    3568    3567    3569    3570    3568    3567    3569    3571
    3569    3567    3583    3584    3569    3567    3583    3585
    3569    3571    3573    3574    3569    3571    3575    3577
    3569    3571    3575    3576    3570    3569    3567    3583
    3570    3569    3571    3573    3570    3569    3571    3572
    3570    3569    3571    3575    3571    3569    3567    3583
    3571    3575    3577    3578    3571    3575    3577    3579
    3572    3571    3573    3574    3572    3571    3575    3577
    3572    3571    3575    3576    3573    3571    3575    3577
    3573    3571    3575    3576    3574    3573    3571    3575
    3575    3577    3579    3581    3575    3577    3579    3580
    3575    3577    3579    3582    3576    3575    3577    3578
    3576    3575    3577    3579    3578    3577    3579    3581
    3578    3577    3579    3580    3578    3577    3579    3582
    3583    3585    3588    3591    3583    3585    3588    3590
    3583    3585    3588    3589    3584    3583    3585    3588
    3584    3583    3585    3587    3584    3583    3585    3586
    3585    3588    3591    3594    3585    3588    3591    3593
    3585    3588    3591    3592    3586    3585    3588    3591
    3586    3585    3588    3590    3586    3585    3588    3589
    3587    3585    3588    3591    3587    3585    3588    3590
    3587    3585    3588    3589    3588    3591    3594    3597
    3588    3591    3594    3596    3588    3591    3594    3595
    3589    3588    3591    3594    3589    3588    3591    3593
    3589    3588    3591    3592    3590    3588    3591    3594
    3590    3588    3591    3593    3590    3588    3591    3592
    3591    3594    3597    3599    3591    3594    3597    3598
    3591    3594    3597    3600    3592    3591    3594    3597
    3592    3591    3594    3596    3592    3591    3594    3595
    3593    3591    3594    3597    3593    3591    3594    3596
    3593    3591    3594    3595    3595    3594    3597    3599
    3595    3594    3597    3598    3595    3594    3597    3600
    3596    3594    3597    3599    3596    3594    3597    3598
    3596    3594    3597    3600    3601    3614    3617    3619
    3601    3614    3617    3618    3601    3614    3617    3624
    3602    3601    3606    3609    3602    3601    3606    3608
    3602    3601    3606    3607    3602    3601    3610    3613
    3602    3601    3610    3612    3602    3601    3610    3611
    3602    3601    3614    3616    3602    3601    3614    3615
    3602    3601    3614    3617    3603    3602    3601    3606
    3603    3602    3601    3610    3603    3602    3601    3614
    3604    3602    3601    3606    3604    3602    3601    3610
    3604    3602    3601    3614    3605    3602    3601    3606
    3605    3602    3601    3610    3605    3602    3601    3614
    3606    3601    3610    3613    3606    3601    3610    3612
    3606    3601    3610    3611    3606    3601    3614    3616
    3606    3601    3614    3615    3606    3601    3614    3617
    3607    3606    3601    3610    3607    3606    3601    3614
    3608    3606    3601    3610    3608    3606    3601    3614
    3609    3606    3601    3610    3609    3606    3601    3614
    3610    3601    3614    3616    3610    3601    3614    3615
    3610    3601    3614    3617    3611    3610    3601    3614
    3612    3610    3601    3614    3613    3610    3601    3614
    3614    3617    3624    3620    3615    3614    3617    3619
    3615    3614    3617    3618    3615    3614    3617    3624
    3616    3614    3617    3619    3616    3614    3617    3618
    3616    3614    3617    3624    3617    3624    3620    3622
    3617    3624    3620    3621    3617    3624    3620    3623
    3618    3617    3624    3620    3619    3617    3624    3620
    3620    3623    3625    3627    3620    3623    3625    3626
    3620    3623    3625    3630    3621    3620    3623    3625
    3622    3620    3623    3625    3623    3625    3630    3628
    3623    3625    3630    3631    3623    3625    3630    3632
    3624    3620    3623    3625    3625    3630    3628    3644
    3625    3630    3628    3629    3625    3630    3632    3634
    3625    3630    3632    3633    3625    3630    3632    3636
    3626    3625    3630    3628    3626    3625    3630    3631
    3626    3625    3630    3632    3627    3625    3630    3628
    3627    3625    3630    3631    3627    3625    3630    3632
    3628    3644    3646    3649    3628    3644    3646    3648
    3628    3644    3646    3647    3628    3630    3632    3634
    3628    3630    3632    3633    3628    3630    3632    3636
    3629    3628    3644    3645    3629    3628    3644    3646
    3629    3628    3630    3631    3629    3628    3630    3632
    3630    3628    3644    3645    3630    3628    3644    3646
    3630    3632    3634    3635    3630    3632    3636    3638
    3630    3632    3636    3637    3631    3630    3628    3644
    3631    3630    3632    3634    3631    3630    3632    3633
    3631    3630    3632    3636    3632    3630    3628    3644
    3632    3636    3638    3639    3632    3636    3638    3640
    3633    3632    3634    3635    3633    3632    3636    3638
    3633    3632    3636    3637    3634    3632    3636    3638
    3634    3632    3636    3637    3635    3634    3632    3636
    3636    3638    3640    3642    3636    3638    3640    3641
    3636    3638    3640    3643    3637    3636    3638    3639
    3637    3636    3638    3640    3639    3638    3640    3642
    3639    3638    3640    3641    3639    3638    3640    3643
    3644    3646    3649    3652    3644    3646    3649    3651
    3644    3646    3649    3650    3645    3644    3646    3649
    3645    3644    3646    3648    3645    3644    3646    3647
    3646    3649    3652    3655    3646    3649    3652    3654
    3646    3649    3652    3653    3647    3646    3649    3652
    3647    3646    3649    3651    3647    3646    3649    3650
    3648    3646    3649    3652    3648    3646    3649    3651
    3648    3646    3649    3650    3649    3652    3655    3658
    3649    3652    3655    3657    3649    3652    3655    3656
    3650    3649    3652    3655    3650    3649    3652    3654
    3650    3649    3652    3653    3651    3649    3652    3655
    3651    3649    3652    3654    3651    3649    3652    3653
    3652    3655    3658    3660    3652    3655    3658    3659
    3652    3655    3658    3661    3653    3652    3655    3658
    3653    3652    3655    3657    3653    3652    3655    3656
    3654    3652    3655    3658    3654    3652    3655    3657
    3654    3652    3655    3656    3656    3655    3658    3660
    3656    3655    3658    3659    3656    3655    3658    3661
    3657    3655    3658    3660    3657    3655    3658    3659
    3657    3655    3658    3661    3662    3666    3669    3676
    3662    3666    3669    3671    3662    3666    3669    3670
    3663    3662    3666    3669    3663    3662    3666    3668
    3663    3662    3666    3667    3664    3662    3666    3669
    3664    3662    3666    3668    3664    3662    3666    3667
    3665    3662    3666    3669    3665    3662    3666    3668
    3665    3662    3666    3667    3666    3669    3676    3672
    3667    3666    3669    3676    3667    3666    3669    3671
    3667    3666    3669    3670    3668    3666    3669    3676
    3668    3666    3669    3671    3668    3666    3669    3670
    3669    3676    3672    3674    3669    3676    3672    3673
    3669    3676    3672    3675    3670    3669    3676    3672
    3671    3669    3676    3672    3672    3675    3677    3680
    3672    3675    3677    3679    3672    3675    3677    3678
    3673    3672    3675    3677    3674    3672    3675    3677
    3675    3677    3680    3682    3675    3677    3680    3688
    3675    3677    3680    3681    3676    3672    3675    3677
    3677    3680    3682    3683    3677    3680    3688    3691
    3677    3680    3688    3690    3677    3680    3688    3689
    3678    3677    3680    3682    3678    3677    3680    3688
    3678    3677    3680    3681    3679    3677    3680    3682
    3679    3677    3680    3688    3679    3677    3680    3681
    3680    3682    3683    3684    3680    3682    3683    3685
    3680    3688    3691    3692    3681    3680    3682    3683
    3681    3680    3688    3691    3681    3680    3688    3690
    3681    3680    3688    3689    3682    3683    3685    3697
    3682    3683    3685    3687    3682    3683    3685    3686
    3682    3680    3688    3691    3682    3680    3688    3690
    3682    3680    3688    3689    3683    3685    3697    3700
    3683    3685    3697    3699    3683    3685    3697    3698
    3683    3682    3680    3688    3684    3683    3685    3697
    3684    3683    3685    3687    3684    3683    3685    3686
    3685    3697    3700    3703    3685    3697    3700    3702
    3685    3697    3700    3701    3686    3685    3697    3700
    3686    3685    3697    3699    3686    3685    3697    3698
    3687    3685    3697    3700    3687    3685    3697    3699
    3687    3685    3697    3698    3688    3691    3692    3693
    3688    3691    3692    3694    3689    3688    3691    3692
    3690    3688    3691    3692    3691    3692    3694    3710
    3691    3692    3694    3696    3691    3692    3694    3695
    3692    3694    3710    3713    3692    3694    3710    3712
    3692    3694    3710    3711    3693    3692    3694    3710
    3693    3692    3694    3696    3693    3692    3694    3695
    3694    3710    3713    3716    3694    3710    3713    3715
    3694    3710    3713    3714    3695    3694    3710    3713
    3695    3694    3710    3712    3695    3694    3710    3711
    3696    3694    3710    3713    3696    3694    3710    3712
    3696    3694    3710    3711    3697    3700    3703    3706
    3697    3700    3703    3705    3697    3700    3703    3704
    3698    3697    3700    3703    3698    3697    3700    3702
    3698    3697    3700    3701    3699    3697    3700    3703
    3699    3697    3700    3702    3699    3697    3700    3701
    3700    3703    3706    3708    3700    3703    3706    3707
    3700    3703    3706    3709    3701    3700    3703    3706
    3701    3700    3703    3705    3701    3700    3703    3704
    3702    3700    3703    3706    3702    3700    3703    3705
    3702    3700    3703    3704    3704    3703    3706    3708
    3704    3703    3706    3707    3704    3703    3706    3709
    3705    3703    3706    3708    3705    3703    3706    3707
    3705    3703    3706    3709    3710    3713    3716    3719
    3710    3713    3716    3718    3710    3713    3716    3717
    3711    3710    3713    3716    3711    3710    3713    3715
    3711    3710    3713    3714    3712    3710    3713    3716
    3712    3710    3713    3715    3712    3710    3713    3714
    3713    3716    3719    3721    3713    3716    3719    3720
    3713    3716    3719    3722    3714    3713    3716    3719
    3714    3713    3716    3718    3714    3713    3716    3717
    3715    3713    3716    3719    3715    3713    3716    3718
    3715    3713    3716    3717    3717    3716    3719    3721
    3717    3716    3719    3720    3717    3716    3719    3722
    3718    3716    3719    3721    3718    3716    3719    3720
    3718    3716    3719    3722    3723    3727    3730    3737
    3723    3727    3730    3732    3723    3727    3730    3731
    3724    3723    3727    3730    3724    3723    3727    3729
    3724    3723    3727    3728    3725    3723    3727    3730
    3725    3723    3727    3729    3725    3723    3727    3728
    3726    3723    3727    3730    3726    3723    3727    3729
    3726    3723    3727    3728    3727    3730    3737    3733
    3728    3727    3730    3737    3728    3727    3730    3732
    3728    3727    3730    3731    3729    3727    3730    3737
    3729    3727    3730    3732    3729    3727    3730    3731
    3730    3737    3733    3735    3730    3737    3733    3734
    3730    3737    3733    3736    3731    3730    3737    3733
    3732    3730    3737    3733    3733    3736    3738    3741
    3733    3736    3738    3740    3733    3736    3738    3739
    3734    3733    3736    3738    3735    3733    3736    3738
    3736    3738    3741    3743    3736    3738    3741    3749
    3736    3738    3741    3742    3737    3733    3736    3738
    3738    3741    3743    3744    3738    3741    3749    3752
    3738    3741    3749    3751    3738    3741    3749    3750
    3739    3738    3741    3743    3739    3738    3741    3749
    3739    3738    3741    3742    3740    3738    3741    3743
    3740    3738    3741    3749    3740    3738    3741    3742
    3741    3743    3744    3745    3741    3743    3744    3746
    3741    3749    3752    3753    3742    3741    3743    3744
    3742    3741    3749    3752    3742    3741    3749    3751
    3742    3741    3749    3750    3743    3744    3746    3758
    3743    3744    3746    3748    3743    3744    3746    3747
    3743    3741    3749    3752    3743    3741    3749    3751
    3743    3741    3749    3750    3744    3746    3758    3761
    3744    3746    3758    3760    3744    3746    3758    3759
    3744    3743    3741    3749    3745    3744    3746    3758
    3745    3744    3746    3748    3745    3744    3746    3747
    3746    3758    3761    3764    3746    3758    3761    3763
    3746    3758    3761    3762    3747    3746    3758    3761
    3747    3746    3758    3760    3747    3746    3758    3759
    3748    3746    3758    3761    3748    3746    3758    3760
    3748    3746    3758    3759    3749    3752    3753    3754
    3749    3752    3753    3755    3750    3749    3752    3753
    3751    3749    3752    3753    3752    3753    3755    3771
    3752    3753    3755    3757    3752    3753    3755    3756
    3753    3755    3771    3774    3753    3755    3771    3773
    3753    3755    3771    3772    3754    3753    3755    3771
    3754    3753    3755    3757    3754    3753    3755    3756
    3755    3771    3774    3777    3755    3771    3774    3776
    3755    3771    3774    3775    3756    3755    3771    3774
    3756    3755    3771    3773    3756    3755    3771    3772
    3757    3755    3771    3774    3757    3755    3771    3773
    3757    3755    3771    3772    3758    3761    3764    3767
    3758    3761    3764    3766    3758    3761    3764    3765
    3759    3758    3761    3764    3759    3758    3761    3763
    3759    3758    3761    3762    3760    3758    3761    3764
    3760    3758    3761    3763    3760    3758    3761    3762
    3761    3764    3767    3769    3761    3764    3767    3768
    3761    3764    3767    3770    3762    3761    3764    3767
    3762    3761    3764    3766    3762    3761    3764    3765
    3763    3761    3764    3767    3763    3761    3764    3766
    3763    3761    3764    3765    3765    3764    3767    3769
    3765    3764    3767    3768    3765    3764    3767    3770
    3766    3764    3767    3769    3766    3764    3767    3768
    3766    3764    3767    3770    3771    3774    3777    3780
    3771    3774    3777    3779    3771    3774    3777    3778
    3772    3771    3774    3777    3772    3771    3774    3776
    3772    3771    3774    3775    3773    3771    3774    3777
    3773    3771    3774    3776    3773    3771    3774    3775
    3774    3777    3780    3782    3774    3777    3780    3781
    3774    3777    3780    3783    3775    3774    3777    3780
    3775    3774    3777    3779    3775    3774    3777    3778
    3776    3774    3777    3780    3776    3774    3777    3779
    3776    3774    3777    3778    3778    3777    3780    3782
    3778    3777    3780    3781    3778    3777    3780    3783
    3779    3777    3780    3782    3779    3777    3780    3781
    3779    3777    3780    3783    3784    3797    3800    3802
    3784    3797    3800    3801    3784    3797    3800    3807
    3785    3784    3789    3792    3785    3784    3789    3791
    3785    3784    3789    3790    3785    3784    3793    3796
    3785    3784    3793    3795    3785    3784    3793    3794
    3785    3784    3797    3799    3785    3784    3797    3798
    3785    3784    3797    3800    3786    3785    3784    3789
    3786    3785    3784    3793    3786    3785    3784    3797
    3787    3785    3784    3789    3787    3785    3784    3793
    3787    3785    3784    3797    3788    3785    3784    3789
    3788    3785    3784    3793    3788    3785    3784    3797
    3789    3784    3793    3796    3789    3784    3793    3795
    3789    3784    3793    3794    3789    3784    3797    3799
    3789    3784    3797    3798    3789    3784    3797    3800
    3790    3789    3784    3793    3790    3789    3784    3797
    3791    3789    3784    3793    3791    3789    3784    3797
    3792    3789    3784    3793    3792    3789    3784    3797
    3793    3784    3797    3799    3793    3784    3797    3798
    3793    3784    3797    3800    3794    3793    3784    3797
    3795    3793    3784    3797    3796    3793    3784    3797
    3797    3800    3807    3803    3798    3797    3800    3802
    3798    3797    3800    3801    3798    3797    3800    3807
    3799    3797    3800    3802    3799    3797    3800    3801
    3799    3797    3800    3807    3800    3807    3803    3805
    3800    3807    3803    3804    3800    3807    3803    3806
    3801    3800    3807    3803    3802    3800    3807    3803
    3803    3806    3808    3810    3803    3806    3808    3809
    3803    3806    3808    3813    3804    3803    3806    3808
    3805    3803    3806    3808    3806    3808    3813    3811
    3806    3808    3813    3814    3806    3808    3813    3815
    3807    3803    3806    3808    3808    3813    3811    3827
    3808    3813    3811    3812    3808    3813    3815    3817
    3808    3813    3815    3816    3808    3813    3815    3819
    3809    3808    3813    3811    3809    3808    3813    3814
    3809    3808    3813    3815    3810    3808    3813    3811
    3810    3808    3813    3814    3810    3808    3813    3815
    3811    3827    3829    3832    3811    3827    3829    3831
    3811    3827    3829    3830    3811    3813    3815    3817
    3811    3813    3815    3816    3811    3813    3815    3819
    3812    3811    3827    3828    3812    3811    3827    3829
    3812    3811    3813    3814    3812    3811    3813    3815
    3813    3811    3827    3828    3813    3811    3827    3829
    3813    3815    3817    3818    3813    3815    3819    3821
    3813    3815    3819    3820    3814    3813    3811    3827
    3814    3813    3815    3817    3814    3813    3815    3816
    3814    3813    3815    3819    3815    3813    3811    3827
    3815    3819    3821    3822    3815    3819    3821    3823
    3816    3815    3817    3818    3816    3815    3819    3821
    3816    3815    3819    3820    3817    3815    3819    3821
    3817    3815    3819    3820    3818    3817    3815    3819
    3819    3821    3823    3825    3819    3821    3823    3824
    3819    3821    3823    3826    3820    3819    3821    3822
    3820    3819    3821    3823    3822    3821    3823    3825
    3822    3821    3823    3824    3822    3821    3823    3826
    3827    3829    3832    3835    3827    3829    3832    3834
    3827    3829    3832    3833    3828    3827    3829    3832
    3828    3827    3829    3831    3828    3827    3829    3830
    3829    3832    3835    3838    3829    3832    3835    3837
    3829    3832    3835    3836    3830    3829    3832    3835
    3830    3829    3832    3834    3830    3829    3832    3833
    3831    3829    3832    3835    3831    3829    3832    3834
    3831    3829    3832    3833    3832    3835    3838    3841
    3832    3835    3838    3840    3832    3835    3838    3839
    3833    3832    3835    3838    3833    3832    3835    3837
    3833    3832    3835    3836    3834    3832    3835    3838
    3834    3832    3835    3837    3834    3832    3835    3836
    3835    3838    3841    3843    3835    3838    3841    3842
    3835    3838    3841    3844    3836    3835    3838    3841
    3836    3835    3838    3840    3836    3835    3838    3839
    3837    3835    3838    3841    3837    3835    3838    3840
    3837    3835    3838    3839    3839    3838    3841    3843
    3839    3838    3841    3842    3839    3838    3841    3844
    3840    3838    3841    3843    3840    3838    3841    3842
    3840    3838    3841    3844    3845    3849    3854    3860
    3845    3849    3854    3856    3845    3849    3854    3855
    3845    3849    3851    3852    3845    3849    3851    3853
    3846    3845    3849    3854    3846    3845    3849    3850
    3846    3845    3849    3851    3847    3845    3849    3854
    3847    3845    3849    3850    3847    3845    3849    3851
    3848    3845    3849    3854    3848    3845    3849    3850
    3848    3845    3849    3851    3849    3854    3860    3857
    3850    3849    3854    3860    3850    3849    3854    3856
    3850    3849    3854    3855    3850    3849    3851    3852
    3850    3849    3851    3853    3851    3849    3854    3860
    3851    3849    3854    3856    3851    3849    3854    3855
    3852    3851    3849    3854    3853    3851    3849    3854
    3854    3860    3857    3859    3854    3860    3857    3858
    3854    3860    3857    3861    3855    3854    3860    3857
    3856    3854    3860    3857    3857    3861    3862    3865
    3857    3861    3862    3864    3857    3861    3862    3863
    3858    3857    3861    3862    3859    3857    3861    3862
    3860    3857    3861    3862    3861    3862    3865    3867
    3861    3862    3865    3873    3861    3862    3865    3866
    3862    3865    3867    3868    3862    3865    3873    3876
    3862    3865    3873    3875    3862    3865    3873    3874
    3863    3862    3865    3867    3863    3862    3865    3873
    3863    3862    3865    3866    3864    3862    3865    3867
    3864    3862    3865    3873    3864    3862    3865    3866
    3865    3867    3868    3869    3865    3867    3868    3870
    3865    3873    3876    3877    3866    3865    3867    3868
    3866    3865    3873    3876    3866    3865    3873    3875
    3866    3865    3873    3874    3867    3868    3870    3882
    3867    3868    3870    3872    3867    3868    3870    3871
    3867    3865    3873    3876    3867    3865    3873    3875
    3867    3865    3873    3874    3868    3870    3882    3885
    3868    3870    3882    3884    3868    3870    3882    3883
    3868    3867    3865    3873    3869    3868    3870    3882
    3869    3868    3870    3872    3869    3868    3870    3871
    3870    3882    3885    3888    3870    3882    3885    3887
    3870    3882    3885    3886    3871    3870    3882    3885
    3871    3870    3882    3884    3871    3870    3882    3883
    3872    3870    3882    3885    3872    3870    3882    3884
    3872    3870    3882    3883    3873    3876    3877    3878
    3873    3876    3877    3879    3874    3873    3876    3877
    3875    3873    3876    3877    3876    3877    3879    3895
    3876    3877    3879    3881    3876    3877    3879    3880
    3877    3879    3895    3898    3877    3879    3895    3897
    3877    3879    3895    3896    3878    3877    3879    3895
    3878    3877    3879    3881    3878    3877    3879    3880
    3879    3895    3898    3901    3879    3895    3898    3900
    3879    3895    3898    3899    3880    3879    3895    3898
    3880    3879    3895    3897    3880    3879    3895    3896
    3881    3879    3895    3898    3881    3879    3895    3897
    3881    3879    3895    3896    3882    3885    3888    3891
    3882    3885    3888    3890    3882    3885    3888    3889
    3883    3882    3885    3888    3883    3882    3885    3887
    3883    3882    3885    3886    3884    3882    3885    3888
    3884    3882    3885    3887    3884    3882    3885    3886
    3885    3888    3891    3893    3885    3888    3891    3892
    3885    3888    3891    3894    3886    3885    3888    3891
    3886    3885    3888    3890    3886    3885    3888    3889
    3887    3885    3888    3891    3887    3885    3888    3890
    3887    3885    3888    3889    3889    3888    3891    3893
    3889    3888    3891    3892    3889    3888    3891    3894
    3890    3888    3891    3893    3890    3888    3891    3892
    3890    3888    3891    3894    3895    3898    3901    3904
    3895    3898    3901    3903    3895    3898    3901    3902
    3896    3895    3898    3901    3896    3895    3898    3900
    3896    3895    3898    3899    3897    3895    3898    3901
    3897    3895    3898    3900    3897    3895    3898    3899
    3898    3901    3904    3906    3898    3901    3904    3905
    3898    3901    3904    3907    3899    3898    3901    3904
    3899    3898    3901    3903    3899    3898    3901    3902
    3900    3898    3901    3904    3900    3898    3901    3903
    3900    3898    3901    3902    3902    3901    3904    3906
    3902    3901    3904    3905    3902    3901    3904    3907
    3903    3901    3904    3906    3903    3901    3904    3905
    3903    3901    3904    3907    3908    3912    3915    3922
    3908    3912    3915    3917    3908    3912    3915    3916
    3909    3908    3912    3915    3909    3908    3912    3914
    3909    3908    3912    3913    3910    3908    3912    3915
    3910    3908    3912    3914    3910    3908    3912    3913
    3911    3908    3912    3915    3911    3908    3912    3914
    3911    3908    3912    3913    3912    3915    3922    3918
    3913    3912    3915    3922    3913    3912    3915    3917
    3913    3912    3915    3916    3914    3912    3915    3922
    3914    3912    3915    3917    3914    3912    3915    3916
    3915    3922    3918    3920    3915    3922    3918    3919
    3915    3922    3918    3921    3916    3915    3922    3918
    3917    3915    3922    3918    3918    3921    3923    3926
    3918    3921    3923    3925    3918    3921    3923    3924
    3919    3918    3921    3923    3920    3918    3921    3923
    3921    3923    3926    3928    3921    3923    3926    3934
    3921    3923    3926    3927    3922    3918    3921    3923
    3923    3926    3928    3929    3923    3926    3934    3937
    3923    3926    3934    3936    3923    3926    3934    3935
    3924    3923    3926    3928    3924    3923    3926    3934
    3924    3923    3926    3927    3925    3923    3926    3928
    3925    3923    3926    3934    3925    3923    3926    3927
    3926    3928    3929    3930    3926    3928    3929    3931
    3926    3934    3937    3938    3927    3926    3928    3929
    3927    3926    3934    3937    3927    3926    3934    3936
    3927    3926    3934    3935    3928    3929    3931    3943
    3928    3929    3931    3933    3928    3929    3931    3932
    3928    3926    3934    3937    3928    3926    3934    3936
    3928    3926    3934    3935    3929    3931    3943    3946
    3929    3931    3943    3945    3929    3931    3943    3944
    3929    3928    3926    3934    3930    3929    3931    3943
    3930    3929    3931    3933    3930    3929    3931    3932
    3931    3943    3946    3949    3931    3943    3946    3948
    3931    3943    3946    3947    3932    3931    3943    3946
    3932    3931    3943    3945    3932    3931    3943    3944
    3933    3931    3943    3946    3933    3931    3943    3945
    3933    3931    3943    3944    3934    3937    3938    3939
    3934    3937    3938    3940    3935    3934    3937    3938
    3936    3934    3937    3938    3937    3938    3940    3956
    3937    3938    3940    3942    3937    3938    3940    3941
    3938    3940    3956    3959    3938    3940    3956    3958
    3938    3940    3956    3957    3939    3938    3940    3956
    3939    3938    3940    3942    3939    3938    3940    3941
    3940    3956    3959    3962    3940    3956    3959    3961
    3940    3956    3959    3960    3941    3940    3956    3959
    3941    3940    3956    3958    3941    3940    3956    3957
    3942    3940    3956    3959    3942    3940    3956    3958
    3942    3940    3956    3957    3943    3946    3949    3952
    3943    3946    3949    3951    3943    3946    3949    3950
    3944    3943    3946    3949    3944    3943    3946    3948
    3944    3943    3946    3947    3945    3943    3946    3949
    3945    3943    3946    3948    3945    3943    3946    3947
    3946    3949    3952    3954    3946    3949    3952    3953
    3946    3949    3952    3955    3947    3946    3949    3952
    3947    3946    3949    3951    3947    3946    3949    3950
    3948    3946    3949    3952    3948    3946    3949    3951
    3948    3946    3949    3950    3950    3949    3952    3954
    3950    3949    3952    3953    3950    3949    3952    3955
    3951    3949    3952    3954    3951    3949    3952    3953
    3951    3949    3952    3955    3956    3959    3962    3965
    3956    3959    3962    3964    3956    3959    3962    3963
    3957    3956    3959    3962    3957    3956    3959    3961
    3957    3956    3959    3960    3958    3956    3959    3962
    3958    3956    3959    3961    3958    3956    3959    3960
    3959    3962    3965    3967    3959    3962    3965    3966
    3959    3962    3965    3968    3960    3959    3962    3965
    3960    3959    3962    3964    3960    3959    3962    3963
    3961    3959    3962    3965    3961    3959    3962    3964
    3961    3959    3962    3963    3963    3962    3965    3967
    3963    3962    3965    3966    3963    3962    3965    3968
    3964    3962    3965    3967    3964    3962    3965    3966
    3964    3962    3965    3968    3969    3970    3985    3991
    3969    3970    3985    3987    3969    3970    3985    3986
    3970    3985    3991    3988    3970    3969    3981    3984
    3970    3969    3981    3983    3970    3969    3981    3982
    3970    3969    3977    3980    3970    3969    3977    3979
    3970    3969    3977    3978    3970    3969    3973    3976
    3970    3969    3973    3975    3970    3969    3973    3974
    3971    3970    3985    3991    3971    3970    3985    3987
    3971    3970    3985    3986    3971    3970    3969    3981
    3971    3970    3969    3977    3971    3970    3969    3973
    3972    3970    3985    3991    3972    3970    3985    3987
    3972    3970    3985    3986    3972    3970    3969    3981
    3972    3970    3969    3977    3972    3970    3969    3973
    3973    3969    3970    3985    3973    3969    3981    3984
    3973    3969    3981    3983    3973    3969    3981    3982
    3973    3969    3977    3980    3973    3969    3977    3979
    3973    3969    3977    3978    3974    3973    3969    3981
    3974    3973    3969    3977    3975    3973    3969    3981
    3975    3973    3969    3977    3976    3973    3969    3981
    3976    3973    3969    3977    3977    3969    3970    3985
    3977    3969    3981    3984    3977    3969    3981    3983
    3977    3969    3981    3982    3978    3977    3969    3981
    3979    3977    3969    3981    3980    3977    3969    3981
    3981    3969    3970    3985    3985    3991    3988    3990
    3985    3991    3988    3989    3985    3991    3988    3992
    3986    3985    3991    3988    3987    3985    3991    3988
    3988    3992    3993    3996    3988    3992    3993    3995
    3988    3992    3993    3994    3989    3988    3992    3993
    3990    3988    3992    3993    3991    3988    3992    3993
    3992    3993    3996    3998    3992    3993    3996    4004
    3992    3993    3996    3997    3993    3996    3998    3999
    3993    3996    4004    4007    3993    3996    4004    4006
    3993    3996    4004    4005    3994    3993    3996    3998
    3994    3993    3996    4004    3994    3993    3996    3997
    3995    3993    3996    3998    3995    3993    3996    4004
    3995    3993    3996    3997    3996    3998    3999    4000
    3996    3998    3999    4001    3996    4004    4007    4008
    3997    3996    3998    3999    3997    3996    4004    4007
    3997    3996    4004    4006    3997    3996    4004    4005
    3998    3999    4001    4013    3998    3999    4001    4003
    3998    3999    4001    4002    3998    3996    4004    4007
    3998    3996    4004    4006    3998    3996    4004    4005
    3999    4001    4013    4016    3999    4001    4013    4015
    3999    4001    4013    4014    3999    3998    3996    4004
    4000    3999    4001    4013    4000    3999    4001    4003
    4000    3999    4001    4002    4001    4013    4016    4019
    4001    4013    4016    4018    4001    4013    4016    4017
    4002    4001    4013    4016    4002    4001    4013    4015
    4002    4001    4013    4014    4003    4001    4013    4016
    4003    4001    4013    4015    4003    4001    4013    4014
    4004    4007    4008    4009    4004    4007    4008    4010
    4005    4004    4007    4008    4006    4004    4007    4008
    4007    4008    4010    4026    4007    4008    4010    4012
    4007    4008    4010    4011    4008    4010    4026    4029
    4008    4010    4026    4028    4008    4010    4026    4027
    4009    4008    4010    4026    4009    4008    4010    4012
    4009    4008    4010    4011    4010    4026    4029    4032
    4010    4026    4029    4031    4010    4026    4029    4030
    4011    4010    4026    4029    4011    4010    4026    4028
    4011    4010    4026    4027    4012    4010    4026    4029
    4012    4010    4026    4028    4012    4010    4026    4027
    4013    4016    4019    4022    4013    4016    4019    4021
    4013    4016    4019    4020    4014    4013    4016    4019
    4014    4013    4016    4018    4014    4013    4016    4017
    4015    4013    4016    4019    4015    4013    4016    4018
    4015    4013    4016    4017    4016    4019    4022    4024
    4016    4019    4022    4023    4016    4019    4022    4025
    4017    4016    4019    4022    4017    4016    4019    4021
    4017    4016    4019    4020    4018    4016    4019    4022
    4018    4016    4019    4021    4018    4016    4019    4020
    4020    4019    4022    4024    4020    4019    4022    4023
    4020    4019    4022    4025    4021    4019    4022    4024
    4021    4019    4022    4023    4021    4019    4022    4025
    4026    4029    4032    4035    4026    4029    4032    4034
    4026    4029    4032    4033    4027    4026    4029    4032
    4027    4026    4029    4031    4027    4026    4029    4030
    4028    4026    4029    4032    4028    4026    4029    4031
    4028    4026    4029    4030    4029    4032    4035    4037
    4029    4032    4035    4036    4029    4032    4035    4038
    4030    4029    4032    4035    4030    4029    4032    4034
    4030    4029    4032    4033    4031    4029    4032    4035
    4031    4029    4032    4034    4031    4029    4032    4033
    4033    4032    4035    4037    4033    4032    4035    4036
    4033    4032    4035    4038    4034    4032    4035    4037
    4034    4032    4035    4036    4034    4032    4035    4038
    4039    4043    4046    4053    4039    4043    4046    4048
    4039    4043    4046    4047    4040    4039    4043    4046
    4040    4039    4043    4045    4040    4039    4043    4044
    4041    4039    4043    4046    4041    4039    4043    4045
    4041    4039    4043    4044    4042    4039    4043    4046
    4042    4039    4043    4045    4042    4039    4043    4044
    4043    4046    4053    4049    4044    4043    4046    4053
    4044    4043    4046    4048    4044    4043    4046    4047
    4045    4043    4046    4053    4045    4043    4046    4048
    4045    4043    4046    4047    4046    4053    4049    4051
    4046    4053    4049    4050    4046    4053    4049    4052
    4047    4046    4053    4049    4048    4046    4053    4049
    4049    4052    4054    4057    4049    4052    4054    4056
    4049    4052    4054    4055    4050    4049    4052    4054
    4051    4049    4052    4054    4052    4054    4057    4059
    4052    4054    4057    4065    4052    4054    4057    4058
    4053    4049    4052    4054    4054    4057    4059    4060
    4054    4057    4065    4068    4054    4057    4065    4067
    4054    4057    4065    4066    4055    4054    4057    4059
    4055    4054    4057    4065    4055    4054    4057    4058
    4056    4054    4057    4059    4056    4054    4057    4065
    4056    4054    4057    4058    4057    4059    4060    4061
    4057    4059    4060    4062    4057    4065    4068    4069
    4058    4057    4059    4060    4058    4057    4065    4068
    4058    4057    4065    4067    4058    4057    4065    4066
    4059    4060    4062    4074    4059    4060    4062    4064
    4059    4060    4062    4063    4059    4057    4065    4068
    4059    4057    4065    4067    4059    4057    4065    4066
    4060    4062    4074    4077    4060    4062    4074    4076
    4060    4062    4074    4075    4060    4059    4057    4065
    4061    4060    4062    4074    4061    4060    4062    4064
    4061    4060    4062    4063    4062    4074    4077    4080
    4062    4074    4077    4079    4062    4074    4077    4078
    4063    4062    4074    4077    4063    4062    4074    4076
    4063    4062    4074    4075    4064    4062    4074    4077
    4064    4062    4074    4076    4064    4062    4074    4075
    4065    4068    4069    4070    4065    4068    4069    4071
    4066    4065    4068    4069    4067    4065    4068    4069
    4068    4069    4071    4087    4068    4069    4071    4073
    4068    4069    4071    4072    4069    4071    4087    4090
    4069    4071    4087    4089    4069    4071    4087    4088
    4070    4069    4071    4087    4070    4069    4071    4073
    4070    4069    4071    4072    4071    4087    4090    4093
    4071    4087    4090    4092    4071    4087    4090    4091
    4072    4071    4087    4090    4072    4071    4087    4089
    4072    4071    4087    4088    4073    4071    4087    4090
    4073    4071    4087    4089    4073    4071    4087    4088
    4074    4077    4080    4083    4074    4077    4080    4082
    4074    4077    4080    4081    4075    4074    4077    4080
    4075    4074    4077    4079    4075    4074    4077    4078
    4076    4074    4077    4080    4076    4074    4077    4079
    4076    4074    4077    4078    4077    4080    4083    4085
    4077    4080    4083    4084    4077    4080    4083    4086
    4078    4077    4080    4083    4078    4077    4080    4082
    4078    4077    4080    4081    4079    4077    4080    4083
    4079    4077    4080    4082    4079    4077    4080    4081
    4081    4080    4083    4085    4081    4080    4083    4084
    4081    4080    4083    4086    4082    4080    4083    4085
    4082    4080    4083    4084    4082    4080    4083    4086
    4087    4090    4093    4096    4087    4090    4093    4095
    4087    4090    4093    4094    4088    4087    4090    4093
    4088    4087    4090    4092    4088    4087    4090    4091
    4089    4087    4090    4093    4089    4087    4090    4092
    4089    4087    4090    4091    4090    4093    4096    4098
    4090    4093    4096    4097    4090    4093    4096    4099
    4091    4090    4093    4096    4091    4090    4093    4095
    4091    4090    4093    4094    4092    4090    4093    4096
    4092    4090    4093    4095    4092    4090    4093    4094
    4094    4093    4096    4098    4094    4093    4096    4097
    4094    4093    4096    4099    4095    4093    4096    4098
    4095    4093    4096    4097    4095    4093    4096    4099
    4100    4101    4116    4122    4100    4101    4116    4118
    4100    4101    4116    4117    4101    4116    4122    4119
    4101    4100    4112    4115    4101    4100    4112    4114
    4101    4100    4112    4113    4101    4100    4108    4111
    4101    4100    4108    4110    4101    4100    4108    4109
    4101    4100    4104    4107    4101    4100    4104    4106
    4101    4100    4104    4105    4102    4101    4116    4122
    4102    4101    4116    4118    4102    4101    4116    4117
    4102    4101    4100    4112    4102    4101    4100    4108
    4102    4101    4100    4104    4103    4101    4116    4122
    4103    4101    4116    4118    4103    4101    4116    4117
    4103    4101    4100    4112    4103    4101    4100    4108
    4103    4101    4100    4104    4104    4100    4101    4116
    4104    4100    4112    4115    4104    4100    4112    4114
    4104    4100    4112    4113    4104    4100    4108    4111
    4104    4100    4108    4110    4104    4100    4108    4109
    4105    4104    4100    4112    4105    4104    4100    4108
    4106    4104    4100    4112    4106    4104    4100    4108
    4107    4104    4100    4112    4107    4104    4100    4108
    4108    4100    4101    4116    4108    4100    4112    4115
    4108    4100    4112    4114    4108    4100    4112    4113
    4109    4108    4100    4112    4110    4108    4100    4112
    4111    4108    4100    4112    4112    4100    4101    4116
    4116    4122    4119    4121    4116    4122    4119    4120
    4116    4122    4119    4123    4117    4116    4122    4119
    4118    4116    4122    4119    4119    4123    4124    4127
    4119    4123    4124    4126    4119    4123    4124    4125
    4120    4119    4123    4124    4121    4119    4123    4124
    4122    4119    4123    4124    4123    4124    4127    4129
    4123    4124    4127    4135    4123    4124    4127    4128
    4124    4127    4129    4130    4124    4127    4135    4138
    4124    4127    4135    4137    4124    4127    4135    4136
    4125    4124    4127    4129    4125    4124    4127    4135
    4125    4124    4127    4128    4126    4124    4127    4129
    4126    4124    4127    4135    4126    4124    4127    4128
    4127    4129    4130    4131    4127    4129    4130    4132
    4127    4135    4138    4139    4128    4127    4129    4130
    4128    4127    4135    4138    4128    4127    4135    4137
    4128    4127    4135    4136    4129    4130    4132    4144
    4129    4130    4132    4134    4129    4130    4132    4133
    4129    4127    4135    4138    4129    4127    4135    4137
    4129    4127    4135    4136    4130    4132    4144    4147
    4130    4132    4144    4146    4130    4132    4144    4145
    4130    4129    4127    4135    4131    4130    4132    4144
    4131    4130    4132    4134    4131    4130    4132    4133
    4132    4144    4147    4150    4132    4144    4147    4149
    4132    4144    4147    4148    4133    4132    4144    4147
    4133    4132    4144    4146    4133    4132    4144    4145
    4134    4132    4144    4147    4134    4132    4144    4146
    4134    4132    4144    4145    4135    4138    4139    4140
    4135    4138    4139    4141    4136    4135    4138    4139
    4137    4135    4138    4139    4138    4139    4141    4157
    4138    4139    4141    4143    4138    4139    4141    4142
    4139    4141    4157    4160    4139    4141    4157    4159
    4139    4141    4157    4158    4140    4139    4141    4157
    4140    4139    4141    4143    4140    4139    4141    4142
    4141    4157    4160    4163    4141    4157    4160    4162
    4141    4157    4160    4161    4142    4141    4157    4160
    4142    4141    4157    4159    4142    4141    4157    4158
    4143    4141    4157    4160    4143    4141    4157    4159
    4143    4141    4157    4158    4144    4147    4150    4153
    4144    4147    4150    4152    4144    4147    4150    4151
    4145    4144    4147    4150    4145    4144    4147    4149
    4145    4144    4147    4148    4146    4144    4147    4150
    4146    4144    4147    4149    4146    4144    4147    4148
    4147    4150    4153    4155    4147    4150    4153    4154
    4147    4150    4153    4156    4148    4147    4150    4153
    4148    4147    4150    4152    4148    4147    4150    4151
    4149    4147    4150    4153    4149    4147    4150    4152
    4149    4147    4150    4151    4151    4150    4153    4155
    4151    4150    4153    4154    4151    4150    4153    4156
    4152    4150    4153    4155    4152    4150    4153    4154
    4152    4150    4153    4156    4157    4160    4163    4166
    4157    4160    4163    4165    4157    4160    4163    4164
    4158    4157    4160    4163    4158    4157    4160    4162
    4158    4157    4160    4161    4159    4157    4160    4163
    4159    4157    4160    4162    4159    4157    4160    4161
    4160    4163    4166    4168    4160    4163    4166    4167
    4160    4163    4166    4169    4161    4160    4163    4166
    4161    4160    4163    4165    4161    4160    4163    4164
    4162    4160    4163    4166    4162    4160    4163    4165
    4162    4160    4163    4164    4164    4163    4166    4168
    4164    4163    4166    4167    4164    4163    4166    4169
    4165    4163    4166    4168    4165    4163    4166    4167
    4165    4163    4166    4169    4170    4171    4186    4192
    4170    4171    4186    4188    4170    4171    4186    4187
    4171    4186    4192    4189    4171    4170    4182    4185
    4171    4170    4182    4184    4171    4170    4182    4183
    4171    4170    4178    4181    4171    4170    4178    4180
    4171    4170    4178    4179    4171    4170    4174    4177
    4171    4170    4174    4176    4171    4170    4174    4175
    4172    4171    4186    4192    4172    4171    4186    4188
    4172    4171    4186    4187    4172    4171    4170    4182
    4172    4171    4170    4178    4172    4171    4170    4174
    4173    4171    4186    4192    4173    4171    4186    4188
    4173    4171    4186    4187    4173    4171    4170    4182
    4173    4171    4170    4178    4173    4171    4170    4174
    4174    4170    4171    4186    4174    4170    4182    4185
    4174    4170    4182    4184    4174    4170    4182    4183
    4174    4170    4178    4181    4174    4170    4178    4180
    4174    4170    4178    4179    4175    4174    4170    4182
    4175    4174    4170    4178    4176    4174    4170    4182
    4176    4174    4170    4178    4177    4174    4170    4182
    4177    4174    4170    4178    4178    4170    4171    4186
    4178    4170    4182    4185    4178    4170    4182    4184
    4178    4170    4182    4183    4179    4178    4170    4182
    4180    4178    4170    4182    4181    4178    4170    4182
    4182    4170    4171    4186    4186    4192    4189    4191
    4186    4192    4189    4190    4186    4192    4189    4193
    4187    4186    4192    4189    4188    4186    4192    4189
    4189    4193    4194    4197    4189    4193    4194    4196
    4189    4193    4194    4195    4190    4189    4193    4194
    4191    4189    4193    4194    4192    4189    4193    4194
    4193    4194    4197    4199    4193    4194    4197    4205
    4193    4194    4197    4198    4194    4197    4199    4200
    4194    4197    4205    4208    4194    4197    4205    4207
    4194    4197    4205    4206    4195    4194    4197    4199
    4195    4194    4197    4205    4195    4194    4197    4198
    4196    4194    4197    4199    4196    4194    4197    4205
    4196    4194    4197    4198    4197    4199    4200    4201
    4197    4199    4200    4202    4197    4205    4208    4209
    4198    4197    4199    4200    4198    4197    4205    4208
    4198    4197    4205    4207    4198    4197    4205    4206
    4199    4200    4202    4214    4199    4200    4202    4204
    4199    4200    4202    4203    4199    4197    4205    4208
    4199    4197    4205    4207    4199    4197    4205    4206
    4200    4202    4214    4217    4200    4202    4214    4216
    4200    4202    4214    4215    4200    4199    4197    4205
    4201    4200    4202    4214    4201    4200    4202    4204
    4201    4200    4202    4203    4202    4214    4217    4220
    4202    4214    4217    4219    4202    4214    4217    4218
    4203    4202    4214    4217    4203    4202    4214    4216
    4203    4202    4214    4215    4204    4202    4214    4217
    4204    4202    4214    4216    4204    4202    4214    4215
    4205    4208    4209    4210    4205    4208    4209    4211
    4206    4205    4208    4209    4207    4205    4208    4209
    4208    4209    4211    4227    4208    4209    4211    4213
    4208    4209    4211    4212    4209    4211    4227    4230
    4209    4211    4227    4229    4209    4211    4227    4228
    4210    4209    4211    4227    4210    4209    4211    4213
    4210    4209    4211    4212    4211    4227    4230    4233
    4211    4227    4230    4232    4211    4227    4230    4231
    4212    4211    4227    4230    4212    4211    4227    4229
    4212    4211    4227    4228    4213    4211    4227    4230
    4213    4211    4227    4229    4213    4211    4227    4228
    4214    4217    4220    4223    4214    4217    4220    4222
    4214    4217    4220    4221    4215    4214    4217    4220
    4215    4214    4217    4219    4215    4214    4217    4218
    4216    4214    4217    4220    4216    4214    4217    4219
    4216    4214    4217    4218    4217    4220    4223    4225
    4217    4220    4223    4224    4217    4220    4223    4226
    4218    4217    4220    4223    4218    4217    4220    4222
    4218    4217    4220    4221    4219    4217    4220    4223
    4219    4217    4220    4222    4219    4217    4220    4221
    4221    4220    4223    4225    4221    4220    4223    4224
    4221    4220    4223    4226    4222    4220    4223    4225
    4222    4220    4223    4224    4222    4220    4223    4226
    4227    4230    4233    4236    4227    4230    4233    4235
    4227    4230    4233    4234    4228    4227    4230    4233
    4228    4227    4230    4232    4228    4227    4230    4231
    4229    4227    4230    4233    4229    4227    4230    4232
    4229    4227    4230    4231    4230    4233    4236    4238
    4230    4233    4236    4237    4230    4233    4236    4239
    4231    4230    4233    4236    4231    4230    4233    4235
    4231    4230    4233    4234    4232    4230    4233    4236
    4232    4230    4233    4235    4232    4230    4233    4234
    4234    4233    4236    4238    4234    4233    4236    4237
    4234    4233    4236    4239    4235    4233    4236    4238
    4235    4233    4236    4237    4235    4233    4236    4239
    4240    4253    4256    4258    4240    4253    4256    4257
    4240    4253    4256    4263    4241    4240    4245    4248
    4241    4240    4245    4247    4241    4240    4245    4246
    4241    4240    4249    4252    4241    4240    4249    4251
    4241    4240    4249    4250    4241    4240    4253    4255
    4241    4240    4253    4254    4241    4240    4253    4256
    4242    4241    4240    4245    4242    4241    4240    4249
    4242    4241    4240    4253    4243    4241    4240    4245
    4243    4241    4240    4249    4243    4241    4240    4253
    4244    4241    4240    4245    4244    4241    4240    4249
    4244    4241    4240    4253    4245    4240    4249    4252
    4245    4240    4249    4251    4245    4240    4249    4250
    4245    4240    4253    4255    4245    4240    4253    4254
    4245    4240    4253    4256    4246    4245    4240    4249
    4246    4245    4240    4253    4247    4245    4240    4249
    4247    4245    4240    4253    4248    4245    4240    4249
    4248    4245    4240    4253    4249    4240    4253    4255
    4249    4240    4253    4254    4249    4240    4253    4256
    4250    4249    4240    4253    4251    4249    4240    4253
    4252    4249    4240    4253    4253    4256    4263    4259
    4254    4253    4256    4258    4254    4253    4256    4257
    4254    4253    4256    4263    4255    4253    4256    4258
    4255    4253    4256    4257    4255    4253    4256    4263
    4256    4263    4259    4261    4256    4263    4259    4260
    4256    4263    4259    4262    4257    4256    4263    4259
    4258    4256    4263    4259    4259    4262    4264    4266
    4259    4262    4264    4265    4259    4262    4264    4269
    4260    4259    4262    4264    4261    4259    4262    4264
    4262    4264    4269    4267    4262    4264    4269    4270
    4262    4264    4269    4271    4263    4259    4262    4264
    4264    4269    4267    4283    4264    4269    4267    4268
    4264    4269    4271    4273    4264    4269    4271    4272
    4264    4269    4271    4275    4265    4264    4269    4267
    4265    4264    4269    4270    4265    4264    4269    4271
    4266    4264    4269    4267    4266    4264    4269    4270
    4266    4264    4269    4271    4267    4283    4285    4288
    4267    4283    4285    4287    4267    4283    4285    4286
    4267    4269    4271    4273    4267    4269    4271    4272
    4267    4269    4271    4275    4268    4267    4283    4284
    4268    4267    4283    4285    4268    4267    4269    4270
    4268    4267    4269    4271    4269    4267    4283    4284
    4269    4267    4283    4285    4269    4271    4273    4274
    4269    4271    4275    4277    4269    4271    4275    4276
    4270    4269    4267    4283    4270    4269    4271    4273
    4270    4269    4271    4272    4270    4269    4271    4275
    4271    4269    4267    4283    4271    4275    4277    4278
    4271    4275    4277    4279    4272    4271    4273    4274
    4272    4271    4275    4277    4272    4271    4275    4276
    4273    4271    4275    4277    4273    4271    4275    4276
    4274    4273    4271    4275    4275    4277    4279    4281
    4275    4277    4279    4280    4275    4277    4279    4282
    4276    4275    4277    4278    4276    4275    4277    4279
    4278    4277    4279    4281    4278    4277    4279    4280
    4278    4277    4279    4282    4283    4285    4288    4291
    4283    4285    4288    4290    4283    4285    4288    4289
    4284    4283    4285    4288    4284    4283    4285    4287
    4284    4283    4285    4286    4285    4288    4291    4294
    4285    4288    4291    4293    4285    4288    4291    4292
    4286    4285    4288    4291    4286    4285    4288    4290
    4286    4285    4288    4289    4287    4285    4288    4291
    4287    4285    4288    4290    4287    4285    4288    4289
    4288    4291    4294    4297    4288    4291    4294    4296
    4288    4291    4294    4295    4289    4288    4291    4294
    4289    4288    4291    4293    4289    4288    4291    4292
    4290    4288    4291    4294    4290    4288    4291    4293
    4290    4288    4291    4292    4291    4294    4297    4299
    4291    4294    4297    4298    4291    4294    4297    4300
    4292    4291    4294    4297    4292    4291    4294    4296
    4292    4291    4294    4295    4293    4291    4294    4297
    4293    4291    4294    4296    4293    4291    4294    4295
    4295    4294    4297    4299    4295    4294    4297    4298
    4295    4294    4297    4300    4296    4294    4297    4299
    4296    4294    4297    4298    4296    4294    4297    4300
    4301    4305    4308    4309    4301    4305    4308    4339
    4301    4347    4344    4339    4301    4347    4344    4346
    4301    4347    4344    4345    4302    4301    4305    4308
    4302    4301    4305    4307    4302    4301    4305    4306
    4302    4301    4347    4344    4302    4301    4347    4349
    4302    4301    4347    4348    4302    4301    4303    4304
    4303    4301    4305    4308    4303    4301    4305    4307
    4303    4301    4305    4306    4303    4301    4347    4344
    4303    4301    4347    4349    4303    4301    4347    4348
    4304    4303    4301    4305    4304    4303    4301    4347
    4305    4308    4309    4311    4305    4308    4309    4310
    4305    4308    4339    4337    4305    4308    4339    4340
    4305    4308    4339    4344    4305    4301    4347    4344
    4305    4301    4347    4349    4305    4301    4347    4348
    4306    4305    4308    4309    4306    4305    4308    4339
    4306    4305    4301    4347    4307    4305    4308    4309
    4307    4305    4308    4339    4307    4305    4301    4347
    4308    4309    4311    4314    4308    4309    4311    4313
    4308    4309    4311    4312    4308    4339    4337    4334
    4308    4339    4337    4338    4308    4339    4337    4314
    4308    4339    4340    4343    4308    4339    4340    4342
    4308    4339    4340    4341    4308    4339    4344    4346
    4308    4339    4344    4345    4308    4339    4344    4347
    4308    4305    4301    4347    4309    4311    4314    4316
    4309    4311    4314    4337    4309    4311    4314    4315
    4309    4308    4339    4337    4309    4308    4339    4340
    4309    4308    4339    4344    4310    4309    4311    4314
    4310    4309    4311    4313    4310    4309    4311    4312
    4310    4309    4308    4339    4311    4314    4316    4318
    4311    4314    4316    4326    4311    4314    4316    4317
    4311    4314    4337    4334    4311    4314    4337    4339
    4311    4314    4337    4338    4311    4309    4308    4339
    4312    4311    4314    4316    4312    4311    4314    4337
    4312    4311    4314    4315    4313    4311    4314    4316
    4313    4311    4314    4337    4313    4311    4314    4315
    4314    4316    4318    4321    4314    4316    4318    4320
    4314    4316    4318    4319    4314    4316    4326    4324
    4314    4316    4326    4327    4314    4316    4326    4331
    4314    4337    4334    4336    4314    4337    4334    4335
    4314    4337    4334    4331    4314    4337    4339    4340
    4314    4337    4339    4344    4315    4314    4316    4318
    4315    4314    4316    4326    4315    4314    4316    4317
    4315    4314    4337    4334    4315    4314    4337    4339
    4315    4314    4337    4338    4316    4318    4321    4324
    4316    4318    4321    4323    4316    4318    4321    4322
    4316    4326    4324    4350    4316    4326    4324    4325
    4316    4326    4324    4321    4316    4326    4327    4330
    4316    4326    4327    4329    4316    4326    4327    4328
    4316    4326    4331    4334    4316    4326    4331    4333
    4316    4326    4331    4332    4316    4314    4337    4334
    4316    4314    4337    4339    4316    4314    4337    4338
    4317    4316    4318    4321    4317    4316    4318    4320
    4317    4316    4318    4319    4317    4316    4326    4324
    4317    4316    4326    4327    4317    4316    4326    4331
    4317    4316    4314    4337    4318    4321    4324    4350
    4318    4321    4324    4326    4318    4321    4324    4325
    4318    4316    4326    4324    4318    4316    4326    4327
    4318    4316    4326    4331    4318    4316    4314    4337
    4319    4318    4321    4324    4319    4318    4321    4323
    4319    4318    4321    4322    4319    4318    4316    4326
    4320    4318    4321    4324    4320    4318    4321    4323
    4320    4318    4321    4322    4320    4318    4316    4326
    4321    4324    4350    4356    4321    4324    4350    4352
    4321    4324    4350    4351    4321    4324    4326    4327
    4321    4324    4326    4331    4321    4318    4316    4326
    4322    4321    4324    4350    4322    4321    4324    4326
    4322    4321    4324    4325    4323    4321    4324    4350
    4323    4321    4324    4326    4323    4321    4324    4325
    4324    4350    4356    4359    4324    4350    4356    4358
    4324    4350    4356    4357    4324    4350    4352    4355
    4324    4350    4352    4354    4324    4350    4352    4353
    4324    4326    4327    4330    4324    4326    4327    4329
    4324    4326    4327    4328    4324    4326    4331    4334
    4324    4326    4331    4333    4324    4326    4331    4332
    4325    4324    4350    4356    4325    4324    4350    4352
    4325    4324    4350    4351    4325    4324    4326    4327
    4325    4324    4326    4331    4326    4324    4350    4356
    4326    4324    4350    4352    4326    4324    4350    4351
    4326    4331    4334    4337    4326    4331    4334    4336
    4326    4331    4334    4335    4326    4316    4314    4337
    4327    4326    4324    4350    4327    4326    4331    4334
    4327    4326    4331    4333    4327    4326    4331    4332
    4328    4327    4326    4331    4329    4327    4326    4331
    4330    4327    4326    4331    4331    4334    4337    4339
    4331    4334    4337    4338    4331    4326    4324    4350
    4332    4331    4334    4337    4332    4331    4334    4336
    4332    4331    4334    4335    4333    4331    4334    4337
    4333    4331    4334    4336    4333    4331    4334    4335
    4334    4337    4339    4340    4334    4337    4339    4344
    4335    4334    4337    4339    4335    4334    4337    4338
    4336    4334    4337    4339    4336    4334    4337    4338
    4337    4339    4340    4343    4337    4339    4340    4342
    4337    4339    4340    4341    4337    4339    4344    4346
    4337    4339    4344    4345    4337    4339    4344    4347
    4338    4337    4339    4340    4338    4337    4339    4344
    4339    4344    4347    4349    4339    4344    4347    4348
    4340    4339    4344    4346    4340    4339    4344    4345
    4340    4339    4344    4347    4341    4340    4339    4344
    4342    4340    4339    4344    4343    4340    4339    4344
    4345    4344    4347    4349    4345    4344    4347    4348
    4346    4344    4347    4349    4346    4344    4347    4348
    4350    4356    4359    4362    4350    4356    4359    4361
    4350    4356    4359    4360    4351    4350    4356    4359
    4351    4350    4356    4358    4351    4350    4356    4357
    4351    4350    4352    4355    4351    4350    4352    4354
    4351    4350    4352    4353    4352    4350    4356    4359
    4352    4350    4356    4358    4352    4350    4356    4357
    4353    4352    4350    4356    4354    4352    4350    4356
    4355    4352    4350    4356    4356    4359    4362    4365
    4356    4359    4362    4364    4356    4359    4362    4363
    4357    4356    4359    4362    4357    4356    4359    4361
    4357    4356    4359    4360    4358    4356    4359    4362
    4358    4356    4359    4361    4358    4356    4359    4360
    4359    4362    4365    4371    4359    4362    4365    4367
    4359    4362    4365    4366    4360    4359    4362    4365
    4360    4359    4362    4364    4360    4359    4362    4363
    4361    4359    4362    4365    4361    4359    4362    4364
    4361    4359    4362    4363    4362    4365    4371    4374
    4362    4365    4371    4373    4362    4365    4371    4372
    4362    4365    4367    4370    4362    4365    4367    4369
    4362    4365    4367    4368    4363    4362    4365    4371
    4363    4362    4365    4367    4363    4362    4365    4366
    4364    4362    4365    4371    4364    4362    4365    4367
    4364    4362    4365    4366    4366    4365    4371    4374
    4366    4365    4371    4373    4366    4365    4371    4372
    4366    4365    4367    4370    4366    4365    4367    4369
    4366    4365    4367    4368    4367    4365    4371    4374
    4367    4365    4371    4373    4367    4365    4371    4372
    4368    4367    4365    4371    4369    4367    4365    4371
    4370    4367    4365    4371    4375    4379    4382    4383
    4375    4379    4382    4413    4375    4421    4418    4413
    4375    4421    4418    4420    4375    4421    4418    4419
    4376    4375    4379    4382    4376    4375    4379    4381
    4376    4375    4379    4380    4376    4375    4421    4418
    4376    4375    4421    4423    4376    4375    4421    4422
    4376    4375    4377    4378    4377    4375    4379    4382
    4377    4375    4379    4381    4377    4375    4379    4380
    4377    4375    4421    4418    4377    4375    4421    4423
    4377    4375    4421    4422    4378    4377    4375    4379
    4378    4377    4375    4421    4379    4382    4383    4385
    4379    4382    4383    4384    4379    4382    4413    4411
    4379    4382    4413    4414    4379    4382    4413    4418
    4379    4375    4421    4418    4379    4375    4421    4423
    4379    4375    4421    4422    4380    4379    4382    4383
    4380    4379    4382    4413    4380    4379    4375    4421
    4381    4379    4382    4383    4381    4379    4382    4413
    4381    4379    4375    4421    4382    4383    4385    4388
    4382    4383    4385    4387    4382    4383    4385    4386
    4382    4413    4411    4408    4382    4413    4411    4412
    4382    4413    4411    4388    4382    4413    4414    4417
    4382    4413    4414    4416    4382    4413    4414    4415
    4382    4413    4418    4420    4382    4413    4418    4419
    4382    4413    4418    4421    4382    4379    4375    4421
    4383    4385    4388    4390    4383    4385    4388    4411
    4383    4385    4388    4389    4383    4382    4413    4411
    4383    4382    4413    4414    4383    4382    4413    4418
    4384    4383    4385    4388    4384    4383    4385    4387
    4384    4383    4385    4386    4384    4383    4382    4413
    4385    4388    4390    4392    4385    4388    4390    4400
    4385    4388    4390    4391    4385    4388    4411    4408
    4385    4388    4411    4413    4385    4388    4411    4412
    4385    4383    4382    4413    4386    4385    4388    4390
    4386    4385    4388    4411    4386    4385    4388    4389
    4387    4385    4388    4390    4387    4385    4388    4411
    4387    4385    4388    4389    4388    4390    4392    4395
    4388    4390    4392    4394    4388    4390    4392    4393
    4388    4390    4400    4398    4388    4390    4400    4401
    4388    4390    4400    4405    4388    4411    4408    4410
    4388    4411    4408    4409    4388    4411    4408    4405
    4388    4411    4413    4414    4388    4411    4413    4418
    4389    4388    4390    4392    4389    4388    4390    4400
    4389    4388    4390    4391    4389    4388    4411    4408
    4389    4388    4411    4413    4389    4388    4411    4412
    4390    4392    4395    4398    4390    4392    4395    4397
    4390    4392    4395    4396    4390    4400    4398    4424
    4390    4400    4398    4399    4390    4400    4398    4395
    4390    4400    4401    4404    4390    4400    4401    4403
    4390    4400    4401    4402    4390    4400    4405    4408
    4390    4400    4405    4407    4390    4400    4405    4406
    4390    4388    4411    4408    4390    4388    4411    4413
    4390    4388    4411    4412    4391    4390    4392    4395
    4391    4390    4392    4394    4391    4390    4392    4393
    4391    4390    4400    4398    4391    4390    4400    4401
    4391    4390    4400    4405    4391    4390    4388    4411
    4392    4395    4398    4424    4392    4395    4398    4400
    4392    4395    4398    4399    4392    4390    4400    4398
    4392    4390    4400    4401    4392    4390    4400    4405
    4392    4390    4388    4411    4393    4392    4395    4398
    4393    4392    4395    4397    4393    4392    4395    4396
    4393    4392    4390    4400    4394    4392    4395    4398
    4394    4392    4395    4397    4394    4392    4395    4396
    4394    4392    4390    4400    4395    4398    4424    4430
    4395    4398    4424    4426    4395    4398    4424    4425
    4395    4398    4400    4401    4395    4398    4400    4405
    4395    4392    4390    4400    4396    4395    4398    4424
    4396    4395    4398    4400    4396    4395    4398    4399
    4397    4395    4398    4424    4397    4395    4398    4400
    4397    4395    4398    4399    4398    4424    4430    4433
    4398    4424    4430    4432    4398    4424    4430    4431
    4398    4424    4426    4429    4398    4424    4426    4428
    4398    4424    4426    4427    4398    4400    4401    4404
    4398    4400    4401    4403    4398    4400    4401    4402
    4398    4400    4405    4408    4398    4400    4405    4407
    4398    4400    4405    4406    4399    4398    4424    4430
    4399    4398    4424    4426    4399    4398    4424    4425
    4399    4398    4400    4401    4399    4398    4400    4405
    4400    4398    4424    4430    4400    4398    4424    4426
    4400    4398    4424    4425    4400    4405    4408    4411
    4400    4405    4408    4410    4400    4405    4408    4409
    4400    4390    4388    4411    4401    4400    4398    4424
    4401    4400    4405    4408    4401    4400    4405    4407
    4401    4400    4405    4406    4402    4401    4400    4405
    4403    4401    4400    4405    4404    4401    4400    4405
    4405    4408    4411    4413    4405    4408    4411    4412
    4405    4400    4398    4424    4406    4405    4408    4411
    4406    4405    4408    4410    4406    4405    4408    4409
    4407    4405    4408    4411    4407    4405    4408    4410
    4407    4405    4408    4409    4408    4411    4413    4414
    4408    4411    4413    4418    4409    4408    4411    4413
    4409    4408    4411    4412    4410    4408    4411    4413
    4410    4408    4411    4412    4411    4413    4414    4417
    4411    4413    4414    4416    4411    4413    4414    4415
    4411    4413    4418    4420    4411    4413    4418    4419
    4411    4413    4418    4421    4412    4411    4413    4414
    4412    4411    4413    4418    4413    4418    4421    4423
    4413    4418    4421    4422    4414    4413    4418    4420
    4414    4413    4418    4419    4414    4413    4418    4421
    4415    4414    4413    4418    4416    4414    4413    4418
    4417    4414    4413    4418    4419    4418    4421    4423
    4419    4418    4421    4422    4420    4418    4421    4423
    4420    4418    4421    4422    4424    4430    4433    4436
    4424    4430    4433    4435    4424    4430    4433    4434
    4425    4424    4430    4433    4425    4424    4430    4432
    4425    4424    4430    4431    4425    4424    4426    4429
    4425    4424    4426    4428    4425    4424    4426    4427
    4426    4424    4430    4433    4426    4424    4430    4432
    4426    4424    4430    4431    4427    4426    4424    4430
    4428    4426    4424    4430    4429    4426    4424    4430
    4430    4433    4436    4439    4430    4433    4436    4438
    4430    4433    4436    4437    4431    4430    4433    4436
    4431    4430    4433    4435    4431    4430    4433    4434
    4432    4430    4433    4436    4432    4430    4433    4435
    4432    4430    4433    4434    4433    4436    4439    4445
    4433    4436    4439    4441    4433    4436    4439    4440
    4434    4433    4436    4439    4434    4433    4436    4438
    4434    4433    4436    4437    4435    4433    4436    4439
    4435    4433    4436    4438    4435    4433    4436    4437
    4436    4439    4445    4448    4436    4439    4445    4447
    4436    4439    4445    4446    4436    4439    4441    4444
    4436    4439    4441    4443    4436    4439    4441    4442
    4437    4436    4439    4445    4437    4436    4439    4441
    4437    4436    4439    4440    4438    4436    4439    4445
    4438    4436    4439    4441    4438    4436    4439    4440
    4440    4439    4445    4448    4440    4439    4445    4447
    4440    4439    4445    4446    4440    4439    4441    4444
    4440    4439    4441    4443    4440    4439    4441    4442
    4441    4439    4445    4448    4441    4439    4445    4447
    4441    4439    4445    4446    4442    4441    4439    4445
    4443    4441    4439    4445    4444    4441    4439    4445
    4449    4453    4456    4457    4449    4453    4456    4487
    4449    4495    4492    4487    4449    4495    4492    4494
    4449    4495    4492    4493    4450    4449    4453    4456
    4450    4449    4453    4455    4450    4449    4453    4454
    4450    4449    4495    4492    4450    4449    4495    4497
    4450    4449    4495    4496    4450    4449    4451    4452
    4451    4449    4453    4456    4451    4449    4453    4455
    4451    4449    4453    4454    4451    4449    4495    4492
    4451    4449    4495    4497    4451    4449    4495    4496
    4452    4451    4449    4453    4452    4451    4449    4495
    4453    4456    4457    4459    4453    4456    4457    4458
    4453    4456    4487    4485    4453    4456    4487    4488
    4453    4456    4487    4492    4453    4449    4495    4492
    4453    4449    4495    4497    4453    4449    4495    4496
    4454    4453    4456    4457    4454    4453    4456    4487
    4454    4453    4449    4495    4455    4453    4456    4457
    4455    4453    4456    4487    4455    4453    4449    4495
    4456    4457    4459    4462    4456    4457    4459    4461
    4456    4457    4459    4460    4456    4487    4485    4482
    4456    4487    4485    4486    4456    4487    4485    4462
    4456    4487    4488    4491    4456    4487    4488    4490
    4456    4487    4488    4489    4456    4487    4492    4494
    4456    4487    4492    4493    4456    4487    4492    4495
    4456    4453    4449    4495    4457    4459    4462    4464
    4457    4459    4462    4485    4457    4459    4462    4463
    4457    4456    4487    4485    4457    4456    4487    4488
    4457    4456    4487    4492    4458    4457    4459    4462
    4458    4457    4459    4461    4458    4457    4459    4460
    4458    4457    4456    4487    4459    4462    4464    4466
    4459    4462    4464    4474    4459    4462    4464    4465
    4459    4462    4485    4482    4459    4462    4485    4487
    4459    4462    4485    4486    4459    4457    4456    4487
    4460    4459    4462    4464    4460    4459    4462    4485
    4460    4459    4462    4463    4461    4459    4462    4464
    4461    4459    4462    4485    4461    4459    4462    4463
    4462    4464    4466    4469    4462    4464    4466    4468
    4462    4464    4466    4467    4462    4464    4474    4472
    4462    4464    4474    4475    4462    4464    4474    4479
    4462    4485    4482    4484    4462    4485    4482    4483
    4462    4485    4482    4479    4462    4485    4487    4488
    4462    4485    4487    4492    4463    4462    4464    4466
    4463    4462    4464    4474    4463    4462    4464    4465
    4463    4462    4485    4482    4463    4462    4485    4487
    4463    4462    4485    4486    4464    4466    4469    4472
    4464    4466    4469    4471    4464    4466    4469    4470
    4464    4474    4472    4498    4464    4474    4472    4473
    4464    4474    4472    4469    4464    4474    4475    4478
    4464    4474    4475    4477    4464    4474    4475    4476
    4464    4474    4479    4482    4464    4474    4479    4481
    4464    4474    4479    4480    4464    4462    4485    4482
    4464    4462    4485    4487    4464    4462    4485    4486
    4465    4464    4466    4469    4465    4464    4466    4468
    4465    4464    4466    4467    4465    4464    4474    4472
    4465    4464    4474    4475    4465    4464    4474    4479
    4465    4464    4462    4485    4466    4469    4472    4498
    4466    4469    4472    4474    4466    4469    4472    4473
    4466    4464    4474    4472    4466    4464    4474    4475
    4466    4464    4474    4479    4466    4464    4462    4485
    4467    4466    4469    4472    4467    4466    4469    4471
    4467    4466    4469    4470    4467    4466    4464    4474
    4468    4466    4469    4472    4468    4466    4469    4471
    4468    4466    4469    4470    4468    4466    4464    4474
    4469    4472    4498    4504    4469    4472    4498    4500
    4469    4472    4498    4499    4469    4472    4474    4475
    4469    4472    4474    4479    4469    4466    4464    4474
    4470    4469    4472    4498    4470    4469    4472    4474
    4470    4469    4472    4473    4471    4469    4472    4498
    4471    4469    4472    4474    4471    4469    4472    4473
    4472    4498    4504    4507    4472    4498    4504    4506
    4472    4498    4504    4505    4472    4498    4500    4503
    4472    4498    4500    4502    4472    4498    4500    4501
    4472    4474    4475    4478    4472    4474    4475    4477
    4472    4474    4475    4476    4472    4474    4479    4482
    4472    4474    4479    4481    4472    4474    4479    4480
    4473    4472    4498    4504    4473    4472    4498    4500
    4473    4472    4498    4499    4473    4472    4474    4475
    4473    4472    4474    4479    4474    4472    4498    4504
    4474    4472    4498    4500    4474    4472    4498    4499
    4474    4479    4482    4485    4474    4479    4482    4484
    4474    4479    4482    4483    4474    4464    4462    4485
    4475    4474    4472    4498    4475    4474    4479    4482
    4475    4474    4479    4481    4475    4474    4479    4480
    4476    4475    4474    4479    4477    4475    4474    4479
    4478    4475    4474    4479    4479    4482    4485    4487
    4479    4482    4485    4486    4479    4474    4472    4498
    4480    4479    4482    4485    4480    4479    4482    4484
    4480    4479    4482    4483    4481    4479    4482    4485
    4481    4479    4482    4484    4481    4479    4482    4483
    4482    4485    4487    4488    4482    4485    4487    4492
    4483    4482    4485    4487    4483    4482    4485    4486
    4484    4482    4485    4487    4484    4482    4485    4486
    4485    4487    4488    4491    4485    4487    4488    4490
    4485    4487    4488    4489    4485    4487    4492    4494
    4485    4487    4492    4493    4485    4487    4492    4495
    4486    4485    4487    4488    4486    4485    4487    4492
    4487    4492    4495    4497    4487    4492    4495    4496
    4488    4487    4492    4494    4488    4487    4492    4493
    4488    4487    4492    4495    4489    4488    4487    4492
    4490    4488    4487    4492    4491    4488    4487    4492
    4493    4492    4495    4497    4493    4492    4495    4496
    4494    4492    4495    4497    4494    4492    4495    4496
    4498    4504    4507    4510    4498    4504    4507    4509
    4498    4504    4507    4508    4499    4498    4504    4507
    4499    4498    4504    4506    4499    4498    4504    4505
    4499    4498    4500    4503    4499    4498    4500    4502
    4499    4498    4500    4501    4500    4498    4504    4507
    4500    4498    4504    4506    4500    4498    4504    4505
    4501    4500    4498    4504    4502    4500    4498    4504
    4503    4500    4498    4504    4504    4507    4510    4513
    4504    4507    4510    4512    4504    4507    4510    4511
    4505    4504    4507    4510    4505    4504    4507    4509
    4505    4504    4507    4508    4506    4504    4507    4510
    4506    4504    4507    4509    4506    4504    4507    4508
    4507    4510    4513    4519    4507    4510    4513    4515
    4507    4510    4513    4514    4508    4507    4510    4513
    4508    4507    4510    4512    4508    4507    4510    4511
    4509    4507    4510    4513    4509    4507    4510    4512
    4509    4507    4510    4511    4510    4513    4519    4522
    4510    4513    4519    4521    4510    4513    4519    4520
    4510    4513    4515    4518    4510    4513    4515    4517
    4510    4513    4515    4516    4511    4510    4513    4519
    4511    4510    4513    4515    4511    4510    4513    4514
    4512    4510    4513    4519    4512    4510    4513    4515
    4512    4510    4513    4514    4514    4513    4519    4522
    4514    4513    4519    4521    4514    4513    4519    4520
    4514    4513    4515    4518    4514    4513    4515    4517
    4514    4513    4515    4516    4515    4513    4519    4522
    4515    4513    4519    4521    4515    4513    4519    4520
    4516    4515    4513    4519    4517    4515    4513    4519
    4518    4515    4513    4519    4523    4527    4530    4531
    4523    4527    4530    4561    4523    4569    4566    4561
    4523    4569    4566    4568    4523    4569    4566    4567
    4524    4523    4527    4530    4524    4523    4527    4529
    4524    4523    4527    4528    4524    4523    4569    4566
    4524    4523    4569    4571    4524    4523    4569    4570
    4524    4523    4525    4526    4525    4523    4527    4530
    4525    4523    4527    4529    4525    4523    4527    4528
    4525    4523    4569    4566    4525    4523    4569    4571
    4525    4523    4569    4570    4526    4525    4523    4527
    4526    4525    4523    4569    4527    4530    4531    4533
    4527    4530    4531    4532    4527    4530    4561    4559
    4527    4530    4561    4562    4527    4530    4561    4566
    4527    4523    4569    4566    4527    4523    4569    4571
    4527    4523    4569    4570    4528    4527    4530    4531
    4528    4527    4530    4561    4528    4527    4523    4569
    4529    4527    4530    4531    4529    4527    4530    4561
    4529    4527    4523    4569    4530    4531    4533    4536
    4530    4531    4533    4535    4530    4531    4533    4534
    4530    4561    4559    4556    4530    4561    4559    4560
    4530    4561    4559    4536    4530    4561    4562    4565
    4530    4561    4562    4564    4530    4561    4562    4563
    4530    4561    4566    4568    4530    4561    4566    4567
    4530    4561    4566    4569    4530    4527    4523    4569
    4531    4533    4536    4538    4531    4533    4536    4559
    4531    4533    4536    4537    4531    4530    4561    4559
    4531    4530    4561    4562    4531    4530    4561    4566
    4532    4531    4533    4536    4532    4531    4533    4535
    4532    4531    4533    4534    4532    4531    4530    4561
    4533    4536    4538    4540    4533    4536    4538    4548
    4533    4536    4538    4539    4533    4536    4559    4556
    4533    4536    4559    4561    4533    4536    4559    4560
    4533    4531    4530    4561    4534    4533    4536    4538
    4534    4533    4536    4559    4534    4533    4536    4537
    4535    4533    4536    4538    4535    4533    4536    4559
    4535    4533    4536    4537    4536    4538    4540    4543
    4536    4538    4540    4542    4536    4538    4540    4541
    4536    4538    4548    4546    4536    4538    4548    4549
    4536    4538    4548    4553    4536    4559    4556    4558
    4536    4559    4556    4557    4536    4559    4556    4553
    4536    4559    4561    4562    4536    4559    4561    4566
    4537    4536    4538    4540    4537    4536    4538    4548
    4537    4536    4538    4539    4537    4536    4559    4556
    4537    4536    4559    4561    4537    4536    4559    4560
    4538    4540    4543    4546    4538    4540    4543    4545
    4538    4540    4543    4544    4538    4548    4546    4572
    4538    4548    4546    4547    4538    4548    4546    4543
    4538    4548    4549    4552    4538    4548    4549    4551
    4538    4548    4549    4550    4538    4548    4553    4556
    4538    4548    4553    4555    4538    4548    4553    4554
    4538    4536    4559    4556    4538    4536    4559    4561
    4538    4536    4559    4560    4539    4538    4540    4543
    4539    4538    4540    4542    4539    4538    4540    4541
    4539    4538    4548    4546    4539    4538    4548    4549
    4539    4538    4548    4553    4539    4538    4536    4559
    4540    4543    4546    4572    4540    4543    4546    4548
    4540    4543    4546    4547    4540    4538    4548    4546
    4540    4538    4548    4549    4540    4538    4548    4553
    4540    4538    4536    4559    4541    4540    4543    4546
    4541    4540    4543    4545    4541    4540    4543    4544
    4541    4540    4538    4548    4542    4540    4543    4546
    4542    4540    4543    4545    4542    4540    4543    4544
    4542    4540    4538    4548    4543    4546    4572    4578
    4543    4546    4572    4574    4543    4546    4572    4573
    4543    4546    4548    4549    4543    4546    4548    4553
    4543    4540    4538    4548    4544    4543    4546    4572
    4544    4543    4546    4548    4544    4543    4546    4547
    4545    4543    4546    4572    4545    4543    4546    4548
    4545    4543    4546    4547    4546    4572    4578    4581
    4546    4572    4578    4580    4546    4572    4578    4579
    4546    4572    4574    4577    4546    4572    4574    4576
    4546    4572    4574    4575    4546    4548    4549    4552
    4546    4548    4549    4551    4546    4548    4549    4550
    4546    4548    4553    4556    4546    4548    4553    4555
    4546    4548    4553    4554    4547    4546    4572    4578
    4547    4546    4572    4574    4547    4546    4572    4573
    4547    4546    4548    4549    4547    4546    4548    4553
    4548    4546    4572    4578    4548    4546    4572    4574
    4548    4546    4572    4573    4548    4553    4556    4559
    4548    4553    4556    4558    4548    4553    4556    4557
    4548    4538    4536    4559    4549    4548    4546    4572
    4549    4548    4553    4556    4549    4548    4553    4555
    4549    4548    4553    4554    4550    4549    4548    4553
    4551    4549    4548    4553    4552    4549    4548    4553
    4553    4556    4559    4561    4553    4556    4559    4560
    4553    4548    4546    4572    4554    4553    4556    4559
    4554    4553    4556    4558    4554    4553    4556    4557
    4555    4553    4556    4559    4555    4553    4556    4558
    4555    4553    4556    4557    4556    4559    4561    4562
    4556    4559    4561    4566    4557    4556    4559    4561
    4557    4556    4559    4560    4558    4556    4559    4561
    4558    4556    4559    4560    4559    4561    4562    4565
    4559    4561    4562    4564    4559    4561    4562    4563
    4559    4561    4566    4568    4559    4561    4566    4567
    4559    4561    4566    4569    4560    4559    4561    4562
    4560    4559    4561    4566    4561    4566    4569    4571
    4561    4566    4569    4570    4562    4561    4566    4568
    4562    4561    4566    4567    4562    4561    4566    4569
    4563    4562    4561    4566    4564    4562    4561    4566
    4565    4562    4561    4566    4567    4566    4569    4571
    4567    4566    4569    4570    4568    4566    4569    4571
    4568    4566    4569    4570    4572    4578    4581    4584
    4572    4578    4581    4583    4572    4578    4581    4582
    4573    4572    4578    4581    4573    4572    4578    4580
    4573    4572    4578    4579    4573    4572    4574    4577
    4573    4572    4574    4576    4573    4572    4574    4575
    4574    4572    4578    4581    4574    4572    4578    4580
    4574    4572    4578    4579    4575    4574    4572    4578
    4576    4574    4572    4578    4577    4574    4572    4578
    4578    4581    4584    4587    4578    4581    4584    4586
    4578    4581    4584    4585    4579    4578    4581    4584
    4579    4578    4581    4583    4579    4578    4581    4582
    4580    4578    4581    4584    4580    4578    4581    4583
    4580    4578    4581    4582    4581    4584    4587    4593
    4581    4584    4587    4589    4581    4584    4587    4588
    4582    4581    4584    4587    4582    4581    4584    4586
    4582    4581    4584    4585    4583    4581    4584    4587
    4583    4581    4584    4586    4583    4581    4584    4585
    4584    4587    4593    4596    4584    4587    4593    4595
    4584    4587    4593    4594    4584    4587    4589    4592
    4584    4587    4589    4591    4584    4587    4589    4590
    4585    4584    4587    4593    4585    4584    4587    4589
    4585    4584    4587    4588    4586    4584    4587    4593
    4586    4584    4587    4589    4586    4584    4587    4588
    4588    4587    4593    4596    4588    4587    4593    4595
    4588    4587    4593    4594    4588    4587    4589    4592
    4588    4587    4589    4591    4588    4587    4589    4590
    4589    4587    4593    4596    4589    4587    4593    4595
    4589    4587    4593    4594    4590    4589    4587    4593
    4591    4589    4587    4593    4592    4589    4587    4593
    4597    4601    4604    4605    4597    4601    4604    4635
    4597    4643    4640    4635    4597    4643    4640    4642
    4597    4643    4640    4641    4598    4597    4601    4604
    4598    4597    4601    4603    4598    4597    4601    4602
    4598    4597    4643    4640    4598    4597    4643    4645
    4598    4597    4643    4644    4598    4597    4599    4600
    4599    4597    4601    4604    4599    4597    4601    4603
    4599    4597    4601    4602    4599    4597    4643    4640
    4599    4597    4643    4645    4599    4597    4643    4644
    4600    4599    4597    4601    4600    4599    4597    4643
    4601    4604    4605    4607    4601    4604    4605    4606
    4601    4604    4635    4633    4601    4604    4635    4636
    4601    4604    4635    4640    4601    4597    4643    4640
    4601    4597    4643    4645    4601    4597    4643    4644
    4602    4601    4604    4605    4602    4601    4604    4635
    4602    4601    4597    4643    4603    4601    4604    4605
    4603    4601    4604    4635    4603    4601    4597    4643
    4604    4605    4607    4610    4604    4605    4607    4609
    4604    4605    4607    4608    4604    4635    4633    4630
    4604    4635    4633    4634    4604    4635    4633    4610
    4604    4635    4636    4639    4604    4635    4636    4638
    4604    4635    4636    4637    4604    4635    4640    4642
    4604    4635    4640    4641    4604    4635    4640    4643
    4604    4601    4597    4643    4605    4607    4610    4612
    4605    4607    4610    4633    4605    4607    4610    4611
    4605    4604    4635    4633    4605    4604    4635    4636
    4605    4604    4635    4640    4606    4605    4607    4610
    4606    4605    4607    4609    4606    4605    4607    4608
    4606    4605    4604    4635    4607    4610    4612    4614
    4607    4610    4612    4622    4607    4610    4612    4613
    4607    4610    4633    4630    4607    4610    4633    4635
    4607    4610    4633    4634    4607    4605    4604    4635
    4608    4607    4610    4612    4608    4607    4610    4633
    4608    4607    4610    4611    4609    4607    4610    4612
    4609    4607    4610    4633    4609    4607    4610    4611
    4610    4612    4614    4617    4610    4612    4614    4616
    4610    4612    4614    4615    4610    4612    4622    4620
    4610    4612    4622    4623    4610    4612    4622    4627
    4610    4633    4630    4632    4610    4633    4630    4631
    4610    4633    4630    4627    4610    4633    4635    4636
    4610    4633    4635    4640    4611    4610    4612    4614
    4611    4610    4612    4622    4611    4610    4612    4613
    4611    4610    4633    4630    4611    4610    4633    4635
    4611    4610    4633    4634    4612    4614    4617    4620
    4612    4614    4617    4619    4612    4614    4617    4618
    4612    4622    4620    4646    4612    4622    4620    4621
    4612    4622    4620    4617    4612    4622    4623    4626
    4612    4622    4623    4625    4612    4622    4623    4624
    4612    4622    4627    4630    4612    4622    4627    4629
    4612    4622    4627    4628    4612    4610    4633    4630
    4612    4610    4633    4635    4612    4610    4633    4634
    4613    4612    4614    4617    4613    4612    4614    4616
    4613    4612    4614    4615    4613    4612    4622    4620
    4613    4612    4622    4623    4613    4612    4622    4627
    4613    4612    4610    4633    4614    4617    4620    4646
    4614    4617    4620    4622    4614    4617    4620    4621
    4614    4612    4622    4620    4614    4612    4622    4623
    4614    4612    4622    4627    4614    4612    4610    4633
    4615    4614    4617    4620    4615    4614    4617    4619
    4615    4614    4617    4618    4615    4614    4612    4622
    4616    4614    4617    4620    4616    4614    4617    4619
    4616    4614    4617    4618    4616    4614    4612    4622
    4617    4620    4646    4652    4617    4620    4646    4648
    4617    4620    4646    4647    4617    4620    4622    4623
    4617    4620    4622    4627    4617    4614    4612    4622
    4618    4617    4620    4646    4618    4617    4620    4622
    4618    4617    4620    4621    4619    4617    4620    4646
    4619    4617    4620    4622    4619    4617    4620    4621
    4620    4646    4652    4655    4620    4646    4652    4654
    4620    4646    4652    4653    4620    4646    4648    4651
    4620    4646    4648    4650    4620    4646    4648    4649
    4620    4622    4623    4626    4620    4622    4623    4625
    4620    4622    4623    4624    4620    4622    4627    4630
    4620    4622    4627    4629    4620    4622    4627    4628
    4621    4620    4646    4652    4621    4620    4646    4648
    4621    4620    4646    4647    4621    4620    4622    4623
    4621    4620    4622    4627    4622    4620    4646    4652
    4622    4620    4646    4648    4622    4620    4646    4647
    4622    4627    4630    4633    4622    4627    4630    4632
    4622    4627    4630    4631    4622    4612    4610    4633
    4623    4622    4620    4646    4623    4622    4627    4630
    4623    4622    4627    4629    4623    4622    4627    4628
    4624    4623    4622    4627    4625    4623    4622    4627
    4626    4623    4622    4627    4627    4630    4633    4635
    4627    4630    4633    4634    4627    4622    4620    4646
    4628    4627    4630    4633    4628    4627    4630    4632
    4628    4627    4630    4631    4629    4627    4630    4633
    4629    4627    4630    4632    4629    4627    4630    4631
    4630    4633    4635    4636    4630    4633    4635    4640
    4631    4630    4633    4635    4631    4630    4633    4634
    4632    4630    4633    4635    4632    4630    4633    4634
    4633    4635    4636    4639    4633    4635    4636    4638
    4633    4635    4636    4637    4633    4635    4640    4642
    4633    4635    4640    4641    4633    4635    4640    4643
    4634    4633    4635    4636    4634    4633    4635    4640
    4635    4640    4643    4645    4635    4640    4643    4644
    4636    4635    4640    4642    4636    4635    4640    4641
    4636    4635    4640    4643    4637    4636    4635    4640
    4638    4636    4635    4640    4639    4636    4635    4640
    4641    4640    4643    4645    4641    4640    4643    4644
    4642    4640    4643    4645    4642    4640    4643    4644
    4646    4652    4655    4658    4646    4652    4655    4657
    4646    4652    4655    4656    4647    4646    4652    4655
    4647    4646    4652    4654    4647    4646    4652    4653
    4647    4646    4648    4651    4647    4646    4648    4650
    4647    4646    4648    4649    4648    4646    4652    4655
    4648    4646    4652    4654    4648    4646    4652    4653
    4649    4648    4646    4652    4650    4648    4646    4652
    4651    4648    4646    4652    4652    4655    4658    4661
    4652    4655    4658    4660    4652    4655    4658    4659
    4653    4652    4655    4658    4653    4652    4655    4657
    4653    4652    4655    4656    4654    4652    4655    4658
    4654    4652    4655    4657    4654    4652    4655    4656
    4655    4658    4661    4667    4655    4658    4661    4663
    4655    4658    4661    4662    4656    4655    4658    4661
    4656    4655    4658    4660    4656    4655    4658    4659
    4657    4655    4658    4661    4657    4655    4658    4660
    4657    4655    4658    4659    4658    4661    4667    4670
    4658    4661    4667    4669    4658    4661    4667    4668
    4658    4661    4663    4666    4658    4661    4663    4665
    4658    4661    4663    4664    4659    4658    4661    4667
    4659    4658    4661    4663    4659    4658    4661    4662
    4660    4658    4661    4667    4660    4658    4661    4663
    4660    4658    4661    4662    4662    4661    4667    4670
    4662    4661    4667    4669    4662    4661    4667    4668
    4662    4661    4663    4666    4662    4661    4663    4665
    4662    4661    4663    4664    4663    4661    4667    4670
    4663    4661    4667    4669    4663    4661    4667    4668
    4664    4663    4661    4667    4665    4663    4661    4667
    4666    4663    4661    4667    4671    4675    4678    4679
    4671    4675    4678    4709    4671    4717    4714    4709
    4671    4717    4714    4716    4671    4717    4714    4715
    4672    4671    4675    4678    4672    4671    4675    4677
    4672    4671    4675    4676    4672    4671    4717    4714
    4672    4671    4717    4719    4672    4671    4717    4718
    4672    4671    4673    4674    4673    4671    4675    4678
    4673    4671    4675    4677    4673    4671    4675    4676
    4673    4671    4717    4714    4673    4671    4717    4719
    4673    4671    4717    4718    4674    4673    4671    4675
    4674    4673    4671    4717    4675    4678    4679    4681
    4675    4678    4679    4680    4675    4678    4709    4707
    4675    4678    4709    4710    4675    4678    4709    4714
    4675    4671    4717    4714    4675    4671    4717    4719
    4675    4671    4717    4718    4676    4675    4678    4679
    4676    4675    4678    4709    4676    4675    4671    4717
    4677    4675    4678    4679    4677    4675    4678    4709
    4677    4675    4671    4717    4678    4679    4681    4684
    4678    4679    4681    4683    4678    4679    4681    4682
    4678    4709    4707    4704    4678    4709    4707    4708
    4678    4709    4707    4684    4678    4709    4710    4713
    4678    4709    4710    4712    4678    4709    4710    4711
    4678    4709    4714    4716    4678    4709    4714    4715
    4678    4709    4714    4717    4678    4675    4671    4717
    4679    4681    4684    4686    4679    4681    4684    4707
    4679    4681    4684    4685    4679    4678    4709    4707
    4679    4678    4709    4710    4679    4678    4709    4714
    4680    4679    4681    4684    4680    4679    4681    4683
    4680    4679    4681    4682    4680    4679    4678    4709
    4681    4684    4686    4688    4681    4684    4686    4696
    4681    4684    4686    4687    4681    4684    4707    4704
    4681    4684    4707    4709    4681    4684    4707    4708
    4681    4679    4678    4709    4682    4681    4684    4686
    4682    4681    4684    4707    4682    4681    4684    4685
    4683    4681    4684    4686    4683    4681    4684    4707
    4683    4681    4684    4685    4684    4686    4688    4691
    4684    4686    4688    4690    4684    4686    4688    4689
    4684    4686    4696    4694    4684    4686    4696    4697
    4684    4686    4696    4701    4684    4707    4704    4706
    4684    4707    4704    4705    4684    4707    4704    4701
    4684    4707    4709    4710    4684    4707    4709    4714
    4685    4684    4686    4688    4685    4684    4686    4696
    4685    4684    4686    4687    4685    4684    4707    4704
    4685    4684    4707    4709    4685    4684    4707    4708
    4686    4688    4691    4694    4686    4688    4691    4693
    4686    4688    4691    4692    4686    4696    4694    4720
    4686    4696    4694    4695    4686    4696    4694    4691
    4686    4696    4697    4700    4686    4696    4697    4699
    4686    4696    4697    4698    4686    4696    4701    4704
    4686    4696    4701    4703    4686    4696    4701    4702
    4686    4684    4707    4704    4686    4684    4707    4709
    4686    4684    4707    4708    4687    4686    4688    4691
    4687    4686    4688    4690    4687    4686    4688    4689
    4687    4686    4696    4694    4687    4686    4696    4697
    4687    4686    4696    4701    4687    4686    4684    4707
    4688    4691    4694    4720    4688    4691    4694    4696
    4688    4691    4694    4695    4688    4686    4696    4694
    4688    4686    4696    4697    4688    4686    4696    4701
    4688    4686    4684    4707    4689    4688    4691    4694
    4689    4688    4691    4693    4689    4688    4691    4692
    4689    4688    4686    4696    4690    4688    4691    4694
    4690    4688    4691    4693    4690    4688    4691    4692
    4690    4688    4686    4696    4691    4694    4720    4726
    4691    4694    4720    4722    4691    4694    4720    4721
    4691    4694    4696    4697    4691    4694    4696    4701
    4691    4688    4686    4696    4692    4691    4694    4720
    4692    4691    4694    4696    4692    4691    4694    4695
    4693    4691    4694    4720    4693    4691    4694    4696
    4693    4691    4694    4695    4694    4720    4726    4729
    4694    4720    4726    4728    4694    4720    4726    4727
    4694    4720    4722    4725    4694    4720    4722    4724
    4694    4720    4722    4723    4694    4696    4697    4700
    4694    4696    4697    4699    4694    4696    4697    4698
    4694    4696    4701    4704    4694    4696    4701    4703
    4694    4696    4701    4702    4695    4694    4720    4726
    4695    4694    4720    4722    4695    4694    4720    4721
    4695    4694    4696    4697    4695    4694    4696    4701
    4696    4694    4720    4726    4696    4694    4720    4722
    4696    4694    4720    4721    4696    4701    4704    4707
    4696    4701    4704    4706    4696    4701    4704    4705
    4696    4686    4684    4707    4697    4696    4694    4720
    4697    4696    4701    4704    4697    4696    4701    4703
    4697    4696    4701    4702    4698    4697    4696    4701
    4699    4697    4696    4701    4700    4697    4696    4701
    4701    4704    4707    4709    4701    4704    4707    4708
    4701    4696    4694    4720    4702    4701    4704    4707
    4702    4701    4704    4706    4702    4701    4704    4705
    4703    4701    4704    4707    4703    4701    4704    4706
    4703    4701    4704    4705    4704    4707    4709    4710
    4704    4707    4709    4714    4705    4704    4707    4709
    4705    4704    4707    4708    4706    4704    4707    4709
    4706    4704    4707    4708    4707    4709    4710    4713
    4707    4709    4710    4712    4707    4709    4710    4711
    4707    4709    4714    4716    4707    4709    4714    4715
    4707    4709    4714    4717    4708    4707    4709    4710
    4708    4707    4709    4714    4709    4714    4717    4719
    4709    4714    4717    4718    4710    4709    4714    4716
    4710    4709    4714    4715    4710    4709    4714    4717
    4711    4710    4709    4714    4712    4710    4709    4714
    4713    4710    4709    4714    4715    4714    4717    4719
    4715    4714    4717    4718    4716    4714    4717    4719
    4716    4714    4717    4718    4720    4726    4729    4732
    4720    4726    4729    4731    4720    4726    4729    4730
    4721    4720    4726    4729    4721    4720    4726    4728
    4721    4720    4726    4727    4721    4720    4722    4725
    4721    4720    4722    4724    4721    4720    4722    4723
    4722    4720    4726    4729    4722    4720    4726    4728
    4722    4720    4726    4727    4723    4722    4720    4726
    4724    4722    4720    4726    4725    4722    4720    4726
    4726    4729    4732    4735    4726    4729    4732    4734
    4726    4729    4732    4733    4727    4726    4729    4732
    4727    4726    4729    4731    4727    4726    4729    4730
    4728    4726    4729    4732    4728    4726    4729    4731
    4728    4726    4729    4730    4729    4732    4735    4741
    4729    4732    4735    4737    4729    4732    4735    4736
    4730    4729    4732    4735    4730    4729    4732    4734
    4730    4729    4732    4733    4731    4729    4732    4735
    4731    4729    4732    4734    4731    4729    4732    4733
    4732    4735    4741    4744    4732    4735    4741    4743
    4732    4735    4741    4742    4732    4735    4737    4740
    4732    4735    4737    4739    4732    4735    4737    4738
    4733    4732    4735    4741    4733    4732    4735    4737
    4733    4732    4735    4736    4734    4732    4735    4741
    4734    4732    4735    4737    4734    4732    4735    4736
    4736    4735    4741    4744    4736    4735    4741    4743
    4736    4735    4741    4742    4736    4735    4737    4740
    4736    4735    4737    4739    4736    4735    4737    4738
    4737    4735    4741    4744    4737    4735    4741    4743
    4737    4735    4741    4742    4738    4737    4735    4741
    4739    4737    4735    4741    4740    4737    4735    4741
    4745    4749    4752    4753    4745    4749    4752    4783
    4745    4791    4788    4783    4745    4791    4788    4790
    4745    4791    4788    4789    4746    4745    4749    4752
    4746    4745    4749    4751    4746    4745    4749    4750
    4746    4745    4791    4788    4746    4745    4791    4793
    4746    4745    4791    4792    4746    4745    4747    4748
    4747    4745    4749    4752    4747    4745    4749    4751
    4747    4745    4749    4750    4747    4745    4791    4788
    4747    4745    4791    4793    4747    4745    4791    4792
    4748    4747    4745    4749    4748    4747    4745    4791
    4749    4752    4753    4755    4749    4752    4753    4754
    4749    4752    4783    4781    4749    4752    4783    4784
    4749    4752    4783    4788    4749    4745    4791    4788
    4749    4745    4791    4793    4749    4745    4791    4792
    4750    4749    4752    4753    4750    4749    4752    4783
    4750    4749    4745    4791    4751    4749    4752    4753
    4751    4749    4752    4783    4751    4749    4745    4791
    4752    4753    4755    4758    4752    4753    4755    4757
    4752    4753    4755    4756    4752    4783    4781    4778
    4752    4783    4781    4782    4752    4783    4781    4758
    4752    4783    4784    4787    4752    4783    4784    4786
    4752    4783    4784    4785    4752    4783    4788    4790
    4752    4783    4788    4789    4752    4783    4788    4791
    4752    4749    4745    4791    4753    4755    4758    4760
    4753    4755    4758    4781    4753    4755    4758    4759
    4753    4752    4783    4781    4753    4752    4783    4784
    4753    4752    4783    4788    4754    4753    4755    4758
    4754    4753    4755    4757    4754    4753    4755    4756
    4754    4753    4752    4783    4755    4758    4760    4762
    4755    4758    4760    4770    4755    4758    4760    4761
    4755    4758    4781    4778    4755    4758    4781    4783
    4755    4758    4781    4782    4755    4753    4752    4783
    4756    4755    4758    4760    4756    4755    4758    4781
    4756    4755    4758    4759    4757    4755    4758    4760
    4757    4755    4758    4781    4757    4755    4758    4759
    4758    4760    4762    4765    4758    4760    4762    4764
    4758    4760    4762    4763    4758    4760    4770    4768
    4758    4760    4770    4771    4758    4760    4770    4775
    4758    4781    4778    4780    4758    4781    4778    4779
    4758    4781    4778    4775    4758    4781    4783    4784
    4758    4781    4783    4788    4759    4758    4760    4762
    4759    4758    4760    4770    4759    4758    4760    4761
    4759    4758    4781    4778    4759    4758    4781    4783
    4759    4758    4781    4782    4760    4762    4765    4768
    4760    4762    4765    4767    4760    4762    4765    4766
    4760    4770    4768    4794    4760    4770    4768    4769
    4760    4770    4768    4765    4760    4770    4771    4774
    4760    4770    4771    4773    4760    4770    4771    4772
    4760    4770    4775    4778    4760    4770    4775    4777
    4760    4770    4775    4776    4760    4758    4781    4778
    4760    4758    4781    4783    4760    4758    4781    4782
    4761    4760    4762    4765    4761    4760    4762    4764
    4761    4760    4762    4763    4761    4760    4770    4768
    4761    4760    4770    4771    4761    4760    4770    4775
    4761    4760    4758    4781    4762    4765    4768    4794
    4762    4765    4768    4770    4762    4765    4768    4769
    4762    4760    4770    4768    4762    4760    4770    4771
    4762    4760    4770    4775    4762    4760    4758    4781
    4763    4762    4765    4768    4763    4762    4765    4767
    4763    4762    4765    4766    4763    4762    4760    4770
    4764    4762    4765    4768    4764    4762    4765    4767
    4764    4762    4765    4766    4764    4762    4760    4770
    4765    4768    4794    4800    4765    4768    4794    4796
    4765    4768    4794    4795    4765    4768    4770    4771
    4765    4768    4770    4775    4765    4762    4760    4770
    4766    4765    4768    4794    4766    4765    4768    4770
    4766    4765    4768    4769    4767    4765    4768    4794
    4767    4765    4768    4770    4767    4765    4768    4769
    4768    4794    4800    4803    4768    4794    4800    4802
    4768    4794    4800    4801    4768    4794    4796    4799
    4768    4794    4796    4798    4768    4794    4796    4797
    4768    4770    4771    4774    4768    4770    4771    4773
    4768    4770    4771    4772    4768    4770    4775    4778
    4768    4770    4775    4777    4768    4770    4775    4776
    4769    4768    4794    4800    4769    4768    4794    4796
    4769    4768    4794    4795    4769    4768    4770    4771
    4769    4768    4770    4775    4770    4768    4794    4800
    4770    4768    4794    4796    4770    4768    4794    4795
    4770    4775    4778    4781    4770    4775    4778    4780
    4770    4775    4778    4779    4770    4760    4758    4781
    4771    4770    4768    4794    4771    4770    4775    4778
    4771    4770    4775    4777    4771    4770    4775    4776
    4772    4771    4770    4775    4773    4771    4770    4775
    4774    4771    4770    4775    4775    4778    4781    4783
    4775    4778    4781    4782    4775    4770    4768    4794
    4776    4775    4778    4781    4776    4775    4778    4780
    4776    4775    4778    4779    4777    4775    4778    4781
    4777    4775    4778    4780    4777    4775    4778    4779
    4778    4781    4783    4784    4778    4781    4783    4788
    4779    4778    4781    4783    4779    4778    4781    4782
    4780    4778    4781    4783    4780    4778    4781    4782
    4781    4783    4784    4787    4781    4783    4784    4786
    4781    4783    4784    4785    4781    4783    4788    4790
    4781    4783    4788    4789    4781    4783    4788    4791
    4782    4781    4783    4784    4782    4781    4783    4788
    4783    4788    4791    4793    4783    4788    4791    4792
    4784    4783    4788    4790    4784    4783    4788    4789
    4784    4783    4788    4791    4785    4784    4783    4788
    4786    4784    4783    4788    4787    4784    4783    4788
    4789    4788    4791    4793    4789    4788    4791    4792
    4790    4788    4791    4793    4790    4788    4791    4792
    4794    4800    4803    4806    4794    4800    4803    4805
    4794    4800    4803    4804    4795    4794    4800    4803
    4795    4794    4800    4802    4795    4794    4800    4801
    4795    4794    4796    4799    4795    4794    4796    4798
    4795    4794    4796    4797    4796    4794    4800    4803
    4796    4794    4800    4802    4796    4794    4800    4801
    4797    4796    4794    4800    4798    4796    4794    4800
    4799    4796    4794    4800    4800    4803    4806    4809
    4800    4803    4806    4808    4800    4803    4806    4807
    4801    4800    4803    4806    4801    4800    4803    4805
    4801    4800    4803    4804    4802    4800    4803    4806
    4802    4800    4803    4805    4802    4800    4803    4804
    4803    4806    4809    4815    4803    4806    4809    4811
    4803    4806    4809    4810    4804    4803    4806    4809
    4804    4803    4806    4808    4804    4803    4806    4807
    4805    4803    4806    4809    4805    4803    4806    4808
    4805    4803    4806    4807    4806    4809    4815    4818
    4806    4809    4815    4817    4806    4809    4815    4816
    4806    4809    4811    4814    4806    4809    4811    4813
    4806    4809    4811    4812    4807    4806    4809    4815
    4807    4806    4809    4811    4807    4806    4809    4810
    4808    4806    4809    4815    4808    4806    4809    4811
    4808    4806    4809    4810    4810    4809    4815    4818
    4810    4809    4815    4817    4810    4809    4815    4816
    4810    4809    4811    4814    4810    4809    4811    4813
    4810    4809    4811    4812    4811    4809    4815    4818
    4811    4809    4815    4817    4811    4809    4815    4816
    4812    4811    4809    4815    4813    4811    4809    4815
    4814    4811    4809    4815    4819    4823    4826    4827
    4819    4823    4826    4857    4819    4865    4862    4857
    4819    4865    4862    4864    4819    4865    4862    4863
    4820    4819    4823    4826    4820    4819    4823    4825
    4820    4819    4823    4824    4820    4819    4865    4862
    4820    4819    4865    4867    4820    4819    4865    4866
    4820    4819    4821    4822    4821    4819    4823    4826
    4821    4819    4823    4825    4821    4819    4823    4824
    4821    4819    4865    4862    4821    4819    4865    4867
    4821    4819    4865    4866    4822    4821    4819    4823
    4822    4821    4819    4865    4823    4826    4827    4829
    4823    4826    4827    4828    4823    4826    4857    4855
    4823    4826    4857    4858    4823    4826    4857    4862
    4823    4819    4865    4862    4823    4819    4865    4867
    4823    4819    4865    4866    4824    4823    4826    4827
    4824    4823    4826    4857    4824    4823    4819    4865
    4825    4823    4826    4827    4825    4823    4826    4857
    4825    4823    4819    4865    4826    4827    4829    4832
    4826    4827    4829    4831    4826    4827    4829    4830
    4826    4857    4855    4852    4826    4857    4855    4856
    4826    4857    4855    4832    4826    4857    4858    4861
    4826    4857    4858    4860    4826    4857    4858    4859
    4826    4857    4862    4864    4826    4857    4862    4863
    4826    4857    4862    4865    4826    4823    4819    4865
    4827    4829    4832    4834    4827    4829    4832    4855
    4827    4829    4832    4833    4827    4826    4857    4855
    4827    4826    4857    4858    4827    4826    4857    4862
    4828    4827    4829    4832    4828    4827    4829    4831
    4828    4827    4829    4830    4828    4827    4826    4857
    4829    4832    4834    4836    4829    4832    4834    4844
    4829    4832    4834    4835    4829    4832    4855    4852
    4829    4832    4855    4857    4829    4832    4855    4856
    4829    4827    4826    4857    4830    4829    4832    4834
    4830    4829    4832    4855    4830    4829    4832    4833
    4831    4829    4832    4834    4831    4829    4832    4855
    4831    4829    4832    4833    4832    4834    4836    4839
    4832    4834    4836    4838    4832    4834    4836    4837
    4832    4834    4844    4842    4832    4834    4844    4845
    4832    4834    4844    4849    4832    4855    4852    4854
    4832    4855    4852    4853    4832    4855    4852    4849
    4832    4855    4857    4858    4832    4855    4857    4862
    4833    4832    4834    4836    4833    4832    4834    4844
    4833    4832    4834    4835    4833    4832    4855    4852
    4833    4832    4855    4857    4833    4832    4855    4856
    4834    4836    4839    4842    4834    4836    4839    4841
    4834    4836    4839    4840    4834    4844    4842    4868
    4834    4844    4842    4843    4834    4844    4842    4839
    4834    4844    4845    4848    4834    4844    4845    4847
    4834    4844    4845    4846    4834    4844    4849    4852
    4834    4844    4849    4851    4834    4844    4849    4850
    4834    4832    4855    4852    4834    4832    4855    4857
    4834    4832    4855    4856    4835    4834    4836    4839
    4835    4834    4836    4838    4835    4834    4836    4837
    4835    4834    4844    4842    4835    4834    4844    4845
    4835    4834    4844    4849    4835    4834    4832    4855
    4836    4839    4842    4868    4836    4839    4842    4844
    4836    4839    4842    4843    4836    4834    4844    4842
    4836    4834    4844    4845    4836    4834    4844    4849
    4836    4834    4832    4855    4837    4836    4839    4842
    4837    4836    4839    4841    4837    4836    4839    4840
    4837    4836    4834    4844    4838    4836    4839    4842
    4838    4836    4839    4841    4838    4836    4839    4840
    4838    4836    4834    4844    4839    4842    4868    4874
    4839    4842    4868    4870    4839    4842    4868    4869
    4839    4842    4844    4845    4839    4842    4844    4849
    4839    4836    4834    4844    4840    4839    4842    4868
    4840    4839    4842    4844    4840    4839    4842    4843
    4841    4839    4842    4868    4841    4839    4842    4844
    4841    4839    4842    4843    4842    4868    4874    4877
    4842    4868    4874    4876    4842    4868    4874    4875
    4842    4868    4870    4873    4842    4868    4870    4872
    4842    4868    4870    4871    4842    4844    4845    4848
    4842    4844    4845    4847    4842    4844    4845    4846
    4842    4844    4849    4852    4842    4844    4849    4851
    4842    4844    4849    4850    4843    4842    4868    4874
    4843    4842    4868    4870    4843    4842    4868    4869
    4843    4842    4844    4845    4843    4842    4844    4849
    4844    4842    4868    4874    4844    4842    4868    4870
    4844    4842    4868    4869    4844    4849    4852    4855
    4844    4849    4852    4854    4844    4849    4852    4853
    4844    4834    4832    4855    4845    4844    4842    4868
    4845    4844    4849    4852    4845    4844    4849    4851
    4845    4844    4849    4850    4846    4845    4844    4849
    4847    4845    4844    4849    4848    4845    4844    4849
    4849    4852    4855    4857    4849    4852    4855    4856
    4849    4844    4842    4868    4850    4849    4852    4855
    4850    4849    4852    4854    4850    4849    4852    4853
    4851    4849    4852    4855    4851    4849    4852    4854
    4851    4849    4852    4853    4852    4855    4857    4858
    4852    4855    4857    4862    4853    4852    4855    4857
    4853    4852    4855    4856    4854    4852    4855    4857
    4854    4852    4855    4856    4855    4857    4858    4861
    4855    4857    4858    4860    4855    4857    4858    4859
    4855    4857    4862    4864    4855    4857    4862    4863
    4855    4857    4862    4865    4856    4855    4857    4858
    4856    4855    4857    4862    4857    4862    4865    4867
    4857    4862    4865    4866    4858    4857    4862    4864
    4858    4857    4862    4863    4858    4857    4862    4865
    4859    4858    4857    4862    4860    4858    4857    4862
    4861    4858    4857    4862    4863    4862    4865    4867
    4863    4862    4865    4866    4864    4862    4865    4867
    4864    4862    4865    4866    4868    4874    4877    4880
    4868    4874    4877    4879    4868    4874    4877    4878
    4869    4868    4874    4877    4869    4868    4874    4876
    4869    4868    4874    4875    4869    4868    4870    4873
    4869    4868    4870    4872    4869    4868    4870    4871
    4870    4868    4874    4877    4870    4868    4874    4876
    4870    4868    4874    4875    4871    4870    4868    4874
    4872    4870    4868    4874    4873    4870    4868    4874
    4874    4877    4880    4883    4874    4877    4880    4882
    4874    4877    4880    4881    4875    4874    4877    4880
    4875    4874    4877    4879    4875    4874    4877    4878
    4876    4874    4877    4880    4876    4874    4877    4879
    4876    4874    4877    4878    4877    4880    4883    4889
    4877    4880    4883    4885    4877    4880    4883    4884
    4878    4877    4880    4883    4878    4877    4880    4882
    4878    4877    4880    4881    4879    4877    4880    4883
    4879    4877    4880    4882    4879    4877    4880    4881
    4880    4883    4889    4892    4880    4883    4889    4891
    4880    4883    4889    4890    4880    4883    4885    4888
    4880    4883    4885    4887    4880    4883    4885    4886
    4881    4880    4883    4889    4881    4880    4883    4885
    4881    4880    4883    4884    4882    4880    4883    4889
    4882    4880    4883    4885    4882    4880    4883    4884
    4884    4883    4889    4892    4884    4883    4889    4891
    4884    4883    4889    4890    4884    4883    4885    4888
    4884    4883    4885    4887    4884    4883    4885    4886
    4885    4883    4889    4892    4885    4883    4889    4891
    4885    4883    4889    4890    4886    4885    4883    4889
    4887    4885    4883    4889    4888    4885    4883    4889
    4893    4897    4900    4901    4893    4897    4900    4931
    4893    4939    4936    4931    4893    4939    4936    4938
    4893    4939    4936    4937    4894    4893    4897    4900
    4894    4893    4897    4899    4894    4893    4897    4898
    4894    4893    4939    4936    4894    4893    4939    4941
    4894    4893    4939    4940    4894    4893    4895    4896
    4895    4893    4897    4900    4895    4893    4897    4899
    4895    4893    4897    4898    4895    4893    4939    4936
    4895    4893    4939    4941    4895    4893    4939    4940
    4896    4895    4893    4897    4896    4895    4893    4939
    4897    4900    4901    4903    4897    4900    4901    4902
    4897    4900    4931    4929    4897    4900    4931    4932
    4897    4900    4931    4936    4897    4893    4939    4936
    4897    4893    4939    4941    4897    4893    4939    4940
    4898    4897    4900    4901    4898    4897    4900    4931
    4898    4897    4893    4939    4899    4897    4900    4901
    4899    4897    4900    4931    4899    4897    4893    4939
    4900    4901    4903    4906    4900    4901    4903    4905
    4900    4901    4903    4904    4900    4931    4929    4926
    4900    4931    4929    4930    4900    4931    4929    4906
    4900    4931    4932    4935    4900    4931    4932    4934
    4900    4931    4932    4933    4900    4931    4936    4938
    4900    4931    4936    4937    4900    4931    4936    4939
    4900    4897    4893    4939    4901    4903    4906    4908
    4901    4903    4906    4929    4901    4903    4906    4907
    4901    4900    4931    4929    4901    4900    4931    4932
    4901    4900    4931    4936    4902    4901    4903    4906
    4902    4901    4903    4905    4902    4901    4903    4904
    4902    4901    4900    4931    4903    4906    4908    4910
    4903    4906    4908    4918    4903    4906    4908    4909
    4903    4906    4929    4926    4903    4906    4929    4931
    4903    4906    4929    4930    4903    4901    4900    4931
    4904    4903    4906    4908    4904    4903    4906    4929
    4904    4903    4906    4907    4905    4903    4906    4908
    4905    4903    4906    4929    4905    4903    4906    4907
    4906    4908    4910    4913    4906    4908    4910    4912
    4906    4908    4910    4911    4906    4908    4918    4916
    4906    4908    4918    4919    4906    4908    4918    4923
    4906    4929    4926    4928    4906    4929    4926    4927
    4906    4929    4926    4923    4906    4929    4931    4932
    4906    4929    4931    4936    4907    4906    4908    4910
    4907    4906    4908    4918    4907    4906    4908    4909
    4907    4906    4929    4926    4907    4906    4929    4931
    4907    4906    4929    4930    4908    4910    4913    4916
    4908    4910    4913    4915    4908    4910    4913    4914
    4908    4918    4916    4942    4908    4918    4916    4917
    4908    4918    4916    4913    4908    4918    4919    4922
    4908    4918    4919    4921    4908    4918    4919    4920
    4908    4918    4923    4926    4908    4918    4923    4925
    4908    4918    4923    4924    4908    4906    4929    4926
    4908    4906    4929    4931    4908    4906    4929    4930
    4909    4908    4910    4913    4909    4908    4910    4912
    4909    4908    4910    4911    4909    4908    4918    4916
    4909    4908    4918    4919    4909    4908    4918    4923
    4909    4908    4906    4929    4910    4913    4916    4942
    4910    4913    4916    4918    4910    4913    4916    4917
    4910    4908    4918    4916    4910    4908    4918    4919
    4910    4908    4918    4923    4910    4908    4906    4929
    4911    4910    4913    4916    4911    4910    4913    4915
    4911    4910    4913    4914    4911    4910    4908    4918
    4912    4910    4913    4916    4912    4910    4913    4915
    4912    4910    4913    4914    4912    4910    4908    4918
    4913    4916    4942    4948    4913    4916    4942    4944
    4913    4916    4942    4943    4913    4916    4918    4919
    4913    4916    4918    4923    4913    4910    4908    4918
    4914    4913    4916    4942    4914    4913    4916    4918
    4914    4913    4916    4917    4915    4913    4916    4942
    4915    4913    4916    4918    4915    4913    4916    4917
    4916    4942    4948    4951    4916    4942    4948    4950
    4916    4942    4948    4949    4916    4942    4944    4947
    4916    4942    4944    4946    4916    4942    4944    4945
    4916    4918    4919    4922    4916    4918    4919    4921
    4916    4918    4919    4920    4916    4918    4923    4926
    4916    4918    4923    4925    4916    4918    4923    4924
    4917    4916    4942    4948    4917    4916    4942    4944
    4917    4916    4942    4943    4917    4916    4918    4919
    4917    4916    4918    4923    4918    4916    4942    4948
    4918    4916    4942    4944    4918    4916    4942    4943
    4918    4923    4926    4929    4918    4923    4926    4928
    4918    4923    4926    4927    4918    4908    4906    4929
    4919    4918    4916    4942    4919    4918    4923    4926
    4919    4918    4923    4925    4919    4918    4923    4924
    4920    4919    4918    4923    4921    4919    4918    4923
    4922    4919    4918    4923    4923    4926    4929    4931
    4923    4926    4929    4930    4923    4918    4916    4942
    4924    4923    4926    4929    4924    4923    4926    4928
    4924    4923    4926    4927    4925    4923    4926    4929
    4925    4923    4926    4928    4925    4923    4926    4927
    4926    4929    4931    4932    4926    4929    4931    4936
    4927    4926    4929    4931    4927    4926    4929    4930
    4928    4926    4929    4931    4928    4926    4929    4930
    4929    4931    4932    4935    4929    4931    4932    4934
    4929    4931    4932    4933    4929    4931    4936    4938
    4929    4931    4936    4937    4929    4931    4936    4939
    4930    4929    4931    4932    4930    4929    4931    4936
    4931    4936    4939    4941    4931    4936    4939    4940
    4932    4931    4936    4938    4932    4931    4936    4937
    4932    4931    4936    4939    4933    4932    4931    4936
    4934    4932    4931    4936    4935    4932    4931    4936
    4937    4936    4939    4941    4937    4936    4939    4940
    4938    4936    4939    4941    4938    4936    4939    4940
    4942    4948    4951    4954    4942    4948    4951    4953
    4942    4948    4951    4952    4943    4942    4948    4951
    4943    4942    4948    4950    4943    4942    4948    4949
    4943    4942    4944    4947    4943    4942    4944    4946
    4943    4942    4944    4945    4944    4942    4948    4951
    4944    4942    4948    4950    4944    4942    4948    4949
    4945    4944    4942    4948    4946    4944    4942    4948
    4947    4944    4942    4948    4948    4951    4954    4957
    4948    4951    4954    4956    4948    4951    4954    4955
    4949    4948    4951    4954    4949    4948    4951    4953
    4949    4948    4951    4952    4950    4948    4951    4954
    4950    4948    4951    4953    4950    4948    4951    4952
    4951    4954    4957    4963    4951    4954    4957    4959
    4951    4954    4957    4958    4952    4951    4954    4957
    4952    4951    4954    4956    4952    4951    4954    4955
    4953    4951    4954    4957    4953    4951    4954    4956
    4953    4951    4954    4955    4954    4957    4963    4966
    4954    4957    4963    4965    4954    4957    4963    4964
    4954    4957    4959    4962    4954    4957    4959    4961
    4954    4957    4959    4960    4955    4954    4957    4963
    4955    4954    4957    4959    4955    4954    4957    4958
    4956    4954    4957    4963    4956    4954    4957    4959
    4956    4954    4957    4958    4958    4957    4963    4966
    4958    4957    4963    4965    4958    4957    4963    4964
    4958    4957    4959    4962    4958    4957    4959    4961
    4958    4957    4959    4960    4959    4957    4963    4966
    4959    4957    4963    4965    4959    4957    4963    4964
    4960    4959    4957    4963    4961    4959    4957    4963
    4962    4959    4957    4963    4967    4971    4974    4975
    4967    4971    4974    5005    4967    5013    5010    5005
    4967    5013    5010    5012    4967    5013    5010    5011
    4968    4967    4971    4974    4968    4967    4971    4973
    4968    4967    4971    4972    4968    4967    5013    5010
    4968    4967    5013    5015    4968    4967    5013    5014
    4968    4967    4969    4970    4969    4967    4971    4974
    4969    4967    4971    4973    4969    4967    4971    4972
    4969    4967    5013    5010    4969    4967    5013    5015
    4969    4967    5013    5014    4970    4969    4967    4971
    4970    4969    4967    5013    4971    4974    4975    4977
    4971    4974    4975    4976    4971    4974    5005    5003
    4971    4974    5005    5006    4971    4974    5005    5010
    4971    4967    5013    5010    4971    4967    5013    5015
    4971    4967    5013    5014    4972    4971    4974    4975
    4972    4971    4974    5005    4972    4971    4967    5013
    4973    4971    4974    4975    4973    4971    4974    5005
    4973    4971    4967    5013    4974    4975    4977    4980
    4974    4975    4977    4979    4974    4975    4977    4978
    4974    5005    5003    5000    4974    5005    5003    5004
    4974    5005    5003    4980    4974    5005    5006    5009
    4974    5005    5006    5008    4974    5005    5006    5007
    4974    5005    5010    5012    4974    5005    5010    5011
    4974    5005    5010    5013    4974    4971    4967    5013
    4975    4977    4980    4982    4975    4977    4980    5003
    4975    4977    4980    4981    4975    4974    5005    5003
    4975    4974    5005    5006    4975    4974    5005    5010
    4976    4975    4977    4980    4976    4975    4977    4979
    4976    4975    4977    4978    4976    4975    4974    5005
    4977    4980    4982    4984    4977    4980    4982    4992
    4977    4980    4982    4983    4977    4980    5003    5000
    4977    4980    5003    5005    4977    4980    5003    5004
    4977    4975    4974    5005    4978    4977    4980    4982
    4978    4977    4980    5003    4978    4977    4980    4981
    4979    4977    4980    4982    4979    4977    4980    5003
    4979    4977    4980    4981    4980    4982    4984    4987
    4980    4982    4984    4986    4980    4982    4984    4985
    4980    4982    4992    4990    4980    4982    4992    4993
    4980    4982    4992    4997    4980    5003    5000    5002
    4980    5003    5000    5001    4980    5003    5000    4997
    4980    5003    5005    5006    4980    5003    5005    5010
    4981    4980    4982    4984    4981    4980    4982    4992
    4981    4980    4982    4983    4981    4980    5003    5000
    4981    4980    5003    5005    4981    4980    5003    5004
    4982    4984    4987    4990    4982    4984    4987    4989
    4982    4984    4987    4988    4982    4992    4990    5016
    4982    4992    4990    4991    4982    4992    4990    4987
    4982    4992    4993    4996    4982    4992    4993    4995
    4982    4992    4993    4994    4982    4992    4997    5000
    4982    4992    4997    4999    4982    4992    4997    4998
    4982    4980    5003    5000    4982    4980    5003    5005
    4982    4980    5003    5004    4983    4982    4984    4987
    4983    4982    4984    4986    4983    4982    4984    4985
    4983    4982    4992    4990    4983    4982    4992    4993
    4983    4982    4992    4997    4983    4982    4980    5003
    4984    4987    4990    5016    4984    4987    4990    4992
    4984    4987    4990    4991    4984    4982    4992    4990
    4984    4982    4992    4993    4984    4982    4992    4997
    4984    4982    4980    5003    4985    4984    4987    4990
    4985    4984    4987    4989    4985    4984    4987    4988
    4985    4984    4982    4992    4986    4984    4987    4990
    4986    4984    4987    4989    4986    4984    4987    4988
    4986    4984    4982    4992    4987    4990    5016    5022
    4987    4990    5016    5018    4987    4990    5016    5017
    4987    4990    4992    4993    4987    4990    4992    4997
    4987    4984    4982    4992    4988    4987    4990    5016
    4988    4987    4990    4992    4988    4987    4990    4991
    4989    4987    4990    5016    4989    4987    4990    4992
    4989    4987    4990    4991    4990    5016    5022    5025
    4990    5016    5022    5024    4990    5016    5022    5023
    4990    5016    5018    5021    4990    5016    5018    5020
    4990    5016    5018    5019    4990    4992    4993    4996
    4990    4992    4993    4995    4990    4992    4993    4994
    4990    4992    4997    5000    4990    4992    4997    4999
    4990    4992    4997    4998    4991    4990    5016    5022
    4991    4990    5016    5018    4991    4990    5016    5017
    4991    4990    4992    4993    4991    4990    4992    4997
    4992    4990    5016    5022    4992    4990    5016    5018
    4992    4990    5016    5017    4992    4997    5000    5003
    4992    4997    5000    5002    4992    4997    5000    5001
    4992    4982    4980    5003    4993    4992    4990    5016
    4993    4992    4997    5000    4993    4992    4997    4999
    4993    4992    4997    4998    4994    4993    4992    4997
    4995    4993    4992    4997    4996    4993    4992    4997
    4997    5000    5003    5005    4997    5000    5003    5004
    4997    4992    4990    5016    4998    4997    5000    5003
    4998    4997    5000    5002    4998    4997    5000    5001
    4999    4997    5000    5003    4999    4997    5000    5002
    4999    4997    5000    5001    5000    5003    5005    5006
    5000    5003    5005    5010    5001    5000    5003    5005
    5001    5000    5003    5004    5002    5000    5003    5005
    5002    5000    5003    5004    5003    5005    5006    5009
    5003    5005    5006    5008    5003    5005    5006    5007
    5003    5005    5010    5012    5003    5005    5010    5011
    5003    5005    5010    5013    5004    5003    5005    5006
    5004    5003    5005    5010    5005    5010    5013    5015
    5005    5010    5013    5014    5006    5005    5010    5012
    5006    5005    5010    5011    5006    5005    5010    5013
    5007    5006    5005    5010    5008    5006    5005    5010
    5009    5006    5005    5010    5011    5010    5013    5015
    5011    5010    5013    5014    5012    5010    5013    5015
    5012    5010    5013    5014    5016    5022    5025    5028
    5016    5022    5025    5027    5016    5022    5025    5026
    5017    5016    5022    5025    5017    5016    5022    5024
    5017    5016    5022    5023    5017    5016    5018    5021
    5017    5016    5018    5020    5017    5016    5018    5019
    5018    5016    5022    5025    5018    5016    5022    5024
    5018    5016    5022    5023    5019    5018    5016    5022
    5020    5018    5016    5022    5021    5018    5016    5022
    5022    5025    5028    5031    5022    5025    5028    5030
    5022    5025    5028    5029    5023    5022    5025    5028
    5023    5022    5025    5027    5023    5022    5025    5026
    5024    5022    5025    5028    5024    5022    5025    5027
    5024    5022    5025    5026    5025    5028    5031    5037
    5025    5028    5031    5033    5025    5028    5031    5032
    5026    5025    5028    5031    5026    5025    5028    5030
    5026    5025    5028    5029    5027    5025    5028    5031
    5027    5025    5028    5030    5027    5025    5028    5029
    5028    5031    5037    5040    5028    5031    5037    5039
    5028    5031    5037    5038    5028    5031    5033    5036
    5028    5031    5033    5035    5028    5031    5033    5034
    5029    5028    5031    5037    5029    5028    5031    5033
    5029    5028    5031    5032    5030    5028    5031    5037
    5030    5028    5031    5033    5030    5028    5031    5032
    5032    5031    5037    5040    5032    5031    5037    5039
    5032    5031    5037    5038    5032    5031    5033    5036
    5032    5031    5033    5035    5032    5031    5033    5034
    5033    5031    5037    5040    5033    5031    5037    5039
    5033    5031    5037    5038    5034    5033    5031    5037
    5035    5033    5031    5037    5036    5033    5031    5037
    5041    5045    5048    5049    5041    5045    5048    5079
    5041    5087    5084    5079    5041    5087    5084    5086
    5041    5087    5084    5085    5042    5041    5045    5048
    5042    5041    5045    5047    5042    5041    5045    5046
    5042    5041    5087    5084    5042    5041    5087    5089
    5042    5041    5087    5088    5042    5041    5043    5044
    5043    5041    5045    5048    5043    5041    5045    5047
    5043    5041    5045    5046    5043    5041    5087    5084
    5043    5041    5087    5089    5043    5041    5087    5088
    5044    5043    5041    5045    5044    5043    5041    5087
    5045    5048    5049    5051    5045    5048    5049    5050
    5045    5048    5079    5077    5045    5048    5079    5080
    5045    5048    5079    5084    5045    5041    5087    5084
    5045    5041    5087    5089    5045    5041    5087    5088
    5046    5045    5048    5049    5046    5045    5048    5079
    5046    5045    5041    5087    5047    5045    5048    5049
    5047    5045    5048    5079    5047    5045    5041    5087
    5048    5049    5051    5054    5048    5049    5051    5053
    5048    5049    5051    5052    5048    5079    5077    5074
    5048    5079    5077    5078    5048    5079    5077    5054
    5048    5079    5080    5083    5048    5079    5080    5082
    5048    5079    5080    5081    5048    5079    5084    5086
    5048    5079    5084    5085    5048    5079    5084    5087
    5048    5045    5041    5087    5049    5051    5054    5056
    5049    5051    5054    5077    5049    5051    5054    5055
    5049    5048    5079    5077    5049    5048    5079    5080
    5049    5048    5079    5084    5050    5049    5051    5054
    5050    5049    5051    5053    5050    5049    5051    5052
    5050    5049    5048    5079    5051    5054    5056    5058
    5051    5054    5056    5066    5051    5054    5056    5057
    5051    5054    5077    5074    5051    5054    5077    5079
    5051    5054    5077    5078    5051    5049    5048    5079
    5052    5051    5054    5056    5052    5051    5054    5077
    5052    5051    5054    5055    5053    5051    5054    5056
    5053    5051    5054    5077    5053    5051    5054    5055
    5054    5056    5058    5061    5054    5056    5058    5060
    5054    5056    5058    5059    5054    5056    5066    5064
    5054    5056    5066    5067    5054    5056    5066    5071
    5054    5077    5074    5076    5054    5077    5074    5075
    5054    5077    5074    5071    5054    5077    5079    5080
    5054    5077    5079    5084    5055    5054    5056    5058
    5055    5054    5056    5066    5055    5054    5056    5057
    5055    5054    5077    5074    5055    5054    5077    5079
    5055    5054    5077    5078    5056    5058    5061    5064
    5056    5058    5061    5063    5056    5058    5061    5062
    5056    5066    5064    5090    5056    5066    5064    5065
    5056    5066    5064    5061    5056    5066    5067    5070
    5056    5066    5067    5069    5056    5066    5067    5068
    5056    5066    5071    5074    5056    5066    5071    5073
    5056    5066    5071    5072    5056    5054    5077    5074
    5056    5054    5077    5079    5056    5054    5077    5078
    5057    5056    5058    5061    5057    5056    5058    5060
    5057    5056    5058    5059    5057    5056    5066    5064
    5057    5056    5066    5067    5057    5056    5066    5071
    5057    5056    5054    5077    5058    5061    5064    5090
    5058    5061    5064    5066    5058    5061    5064    5065
    5058    5056    5066    5064    5058    5056    5066    5067
    5058    5056    5066    5071    5058    5056    5054    5077
    5059    5058    5061    5064    5059    5058    5061    5063
    5059    5058    5061    5062    5059    5058    5056    5066
    5060    5058    5061    5064    5060    5058    5061    5063
    5060    5058    5061    5062    5060    5058    5056    5066
    5061    5064    5090    5096    5061    5064    5090    5092
    5061    5064    5090    5091    5061    5064    5066    5067
    5061    5064    5066    5071    5061    5058    5056    5066
    5062    5061    5064    5090    5062    5061    5064    5066
    5062    5061    5064    5065    5063    5061    5064    5090
    5063    5061    5064    5066    5063    5061    5064    5065
    5064    5090    5096    5099    5064    5090    5096    5098
    5064    5090    5096    5097    5064    5090    5092    5095
    5064    5090    5092    5094    5064    5090    5092    5093
    5064    5066    5067    5070    5064    5066    5067    5069
    5064    5066    5067    5068    5064    5066    5071    5074
    5064    5066    5071    5073    5064    5066    5071    5072
    5065    5064    5090    5096    5065    5064    5090    5092
    5065    5064    5090    5091    5065    5064    5066    5067
    5065    5064    5066    5071    5066    5064    5090    5096
    5066    5064    5090    5092    5066    5064    5090    5091
    5066    5071    5074    5077    5066    5071    5074    5076
    5066    5071    5074    5075    5066    5056    5054    5077
    5067    5066    5064    5090    5067    5066    5071    5074
    5067    5066    5071    5073    5067    5066    5071    5072
    5068    5067    5066    5071    5069    5067    5066    5071
    5070    5067    5066    5071    5071    5074    5077    5079
    5071    5074    5077    5078    5071    5066    5064    5090
    5072    5071    5074    5077    5072    5071    5074    5076
    5072    5071    5074    5075    5073    5071    5074    5077
    5073    5071    5074    5076    5073    5071    5074    5075
    5074    5077    5079    5080    5074    5077    5079    5084
    5075    5074    5077    5079    5075    5074    5077    5078
    5076    5074    5077    5079    5076    5074    5077    5078
    5077    5079    5080    5083    5077    5079    5080    5082
    5077    5079    5080    5081    5077    5079    5084    5086
    5077    5079    5084    5085    5077    5079    5084    5087
    5078    5077    5079    5080    5078    5077    5079    5084
    5079    5084    5087    5089    5079    5084    5087    5088
    5080    5079    5084    5086    5080    5079    5084    5085
    5080    5079    5084    5087    5081    5080    5079    5084
    5082    5080    5079    5084    5083    5080    5079    5084
    5085    5084    5087    5089    5085    5084    5087    5088
    5086    5084    5087    5089    5086    5084    5087    5088
    5090    5096    5099    5102    5090    5096    5099    5101
    5090    5096    5099    5100    5091    5090    5096    5099
    5091    5090    5096    5098    5091    5090    5096    5097
    5091    5090    5092    5095    5091    5090    5092    5094
    5091    5090    5092    5093    5092    5090    5096    5099
    5092    5090    5096    5098    5092    5090    5096    5097
    5093    5092    5090    5096    5094    5092    5090    5096
    5095    5092    5090    5096    5096    5099    5102    5105
    5096    5099    5102    5104    5096    5099    5102    5103
    5097    5096    5099    5102    5097    5096    5099    5101
    5097    5096    5099    5100    5098    5096    5099    5102
    5098    5096    5099    5101    5098    5096    5099    5100
    5099    5102    5105    5111    5099    5102    5105    5107
    5099    5102    5105    5106    5100    5099    5102    5105
    5100    5099    5102    5104    5100    5099    5102    5103
    5101    5099    5102    5105    5101    5099    5102    5104
    5101    5099    5102    5103    5102    5105    5111    5114
    5102    5105    5111    5113    5102    5105    5111    5112
    5102    5105    5107    5110    5102    5105    5107    5109
    5102    5105    5107    5108    5103    5102    5105    5111
    5103    5102    5105    5107    5103    5102    5105    5106
    5104    5102    5105    5111    5104    5102    5105    5107
    5104    5102    5105    5106    5106    5105    5111    5114
    5106    5105    5111    5113    5106    5105    5111    5112
    5106    5105    5107    5110    5106    5105    5107    5109
    5106    5105    5107    5108    5107    5105    5111    5114
    5107    5105    5111    5113    5107    5105    5111    5112
    5108    5107    5105    5111    5109    5107    5105    5111
    5110    5107    5105    5111    5115    5119    5122    5123
    5115    5119    5122    5153    5115    5161    5158    5153
    5115    5161    5158    5160    5115    5161    5158    5159
    5116    5115    5119    5122    5116    5115    5119    5121
    5116    5115    5119    5120    5116    5115    5161    5158
    5116    5115    5161    5163    5116    5115    5161    5162
    5116    5115    5117    5118    5117    5115    5119    5122
    5117    5115    5119    5121    5117    5115    5119    5120
    5117    5115    5161    5158    5117    5115    5161    5163
    5117    5115    5161    5162    5118    5117    5115    5119
    5118    5117    5115    5161    5119    5122    5123    5125
    5119    5122    5123    5124    5119    5122    5153    5151
    5119    5122    5153    5154    5119    5122    5153    5158
    5119    5115    5161    5158    5119    5115    5161    5163
    5119    5115    5161    5162    5120    5119    5122    5123
    5120    5119    5122    5153    5120    5119    5115    5161
    5121    5119    5122    5123    5121    5119    5122    5153
    5121    5119    5115    5161    5122    5123    5125    5128
    5122    5123    5125    5127    5122    5123    5125    5126
    5122    5153    5151    5148    5122    5153    5151    5152
    5122    5153    5151    5128    5122    5153    5154    5157
    5122    5153    5154    5156    5122    5153    5154    5155
    5122    5153    5158    5160    5122    5153    5158    5159
    5122    5153    5158    5161    5122    5119    5115    5161
    5123    5125    5128    5130    5123    5125    5128    5151
    5123    5125    5128    5129    5123    5122    5153    5151
    5123    5122    5153    5154    5123    5122    5153    5158
    5124    5123    5125    5128    5124    5123    5125    5127
    5124    5123    5125    5126    5124    5123    5122    5153
    5125    5128    5130    5132    5125    5128    5130    5140
    5125    5128    5130    5131    5125    5128    5151    5148
    5125    5128    5151    5153    5125    5128    5151    5152
    5125    5123    5122    5153    5126    5125    5128    5130
    5126    5125    5128    5151    5126    5125    5128    5129
    5127    5125    5128    5130    5127    5125    5128    5151
    5127    5125    5128    5129    5128    5130    5132    5135
    5128    5130    5132    5134    5128    5130    5132    5133
    5128    5130    5140    5138    5128    5130    5140    5141
    5128    5130    5140    5145    5128    5151    5148    5150
    5128    5151    5148    5149    5128    5151    5148    5145
    5128    5151    5153    5154    5128    5151    5153    5158
    5129    5128    5130    5132    5129    5128    5130    5140
    5129    5128    5130    5131    5129    5128    5151    5148
    5129    5128    5151    5153    5129    5128    5151    5152
    5130    5132    5135    5138    5130    5132    5135    5137
    5130    5132    5135    5136    5130    5140    5138    5164
    5130    5140    5138    5139    5130    5140    5138    5135
    5130    5140    5141    5144    5130    5140    5141    5143
    5130    5140    5141    5142    5130    5140    5145    5148
    5130    5140    5145    5147    5130    5140    5145    5146
    5130    5128    5151    5148    5130    5128    5151    5153
    5130    5128    5151    5152    5131    5130    5132    5135
    5131    5130    5132    5134    5131    5130    5132    5133
    5131    5130    5140    5138    5131    5130    5140    5141
    5131    5130    5140    5145    5131    5130    5128    5151
    5132    5135    5138    5164    5132    5135    5138    5140
    5132    5135    5138    5139    5132    5130    5140    5138
    5132    5130    5140    5141    5132    5130    5140    5145
    5132    5130    5128    5151    5133    5132    5135    5138
    5133    5132    5135    5137    5133    5132    5135    5136
    5133    5132    5130    5140    5134    5132    5135    5138
    5134    5132    5135    5137    5134    5132    5135    5136
    5134    5132    5130    5140    5135    5138    5164    5170
    5135    5138    5164    5166    5135    5138    5164    5165
    5135    5138    5140    5141    5135    5138    5140    5145
    5135    5132    5130    5140    5136    5135    5138    5164
    5136    5135    5138    5140    5136    5135    5138    5139
    5137    5135    5138    5164    5137    5135    5138    5140
    5137    5135    5138    5139    5138    5164    5170    5173
    5138    5164    5170    5172    5138    5164    5170    5171
    5138    5164    5166    5169    5138    5164    5166    5168
    5138    5164    5166    5167    5138    5140    5141    5144
    5138    5140    5141    5143    5138    5140    5141    5142
    5138    5140    5145    5148    5138    5140    5145    5147
    5138    5140    5145    5146    5139    5138    5164    5170
    5139    5138    5164    5166    5139    5138    5164    5165
    5139    5138    5140    5141    5139    5138    5140    5145
    5140    5138    5164    5170    5140    5138    5164    5166
    5140    5138    5164    5165    5140    5145    5148    5151
    5140    5145    5148    5150    5140    5145    5148    5149
    5140    5130    5128    5151    5141    5140    5138    5164
    5141    5140    5145    5148    5141    5140    5145    5147
    5141    5140    5145    5146    5142    5141    5140    5145
    5143    5141    5140    5145    5144    5141    5140    5145
    5145    5148    5151    5153    5145    5148    5151    5152
    5145    5140    5138    5164    5146    5145    5148    5151
    5146    5145    5148    5150    5146    5145    5148    5149
    5147    5145    5148    5151    5147    5145    5148    5150
    5147    5145    5148    5149    5148    5151    5153    5154
    5148    5151    5153    5158    5149    5148    5151    5153
    5149    5148    5151    5152    5150    5148    5151    5153
    5150    5148    5151    5152    5151    5153    5154    5157
    5151    5153    5154    5156    5151    5153    5154    5155
    5151    5153    5158    5160    5151    5153    5158    5159
    5151    5153    5158    5161    5152    5151    5153    5154
    5152    5151    5153    5158    5153    5158    5161    5163
    5153    5158    5161    5162    5154    5153    5158    5160
    5154    5153    5158    5159    5154    5153    5158    5161
    5155    5154    5153    5158    5156    5154    5153    5158
    5157    5154    5153    5158    5159    5158    5161    5163
    5159    5158    5161    5162    5160    5158    5161    5163
    5160    5158    5161    5162    5164    5170    5173    5176
    5164    5170    5173    5175    5164    5170    5173    5174
    5165    5164    5170    5173    5165    5164    5170    5172
    5165    5164    5170    5171    5165    5164    5166    5169
    5165    5164    5166    5168    5165    5164    5166    5167
    5166    5164    5170    5173    5166    5164    5170    5172
    5166    5164    5170    5171    5167    5166    5164    5170
    5168    5166    5164    5170    5169    5166    5164    5170
    5170    5173    5176    5179    5170    5173    5176    5178
    5170    5173    5176    5177    5171    5170    5173    5176
    5171    5170    5173    5175    5171    5170    5173    5174
    5172    5170    5173    5176    5172    5170    5173    5175
    5172    5170    5173    5174    5173    5176    5179    5185
    5173    5176    5179    5181    5173    5176    5179    5180
    5174    5173    5176    5179    5174    5173    5176    5178
    5174    5173    5176    5177    5175    5173    5176    5179
    5175    5173    5176    5178    5175    5173    5176    5177
    5176    5179    5185    5188    5176    5179    5185    5187
    5176    5179    5185    5186    5176    5179    5181    5184
    5176    5179    5181    5183    5176    5179    5181    5182
    5177    5176    5179    5185    5177    5176    5179    5181
    5177    5176    5179    5180    5178    5176    5179    5185
    5178    5176    5179    5181    5178    5176    5179    5180
    5180    5179    5185    5188    5180    5179    5185    5187
    5180    5179    5185    5186    5180    5179    5181    5184
    5180    5179    5181    5183    5180    5179    5181    5182
    5181    5179    5185    5188    5181    5179    5185    5187
    5181    5179    5185    5186    5182    5181    5179    5185
    5183    5181    5179    5185    5184    5181    5179    5185
    5189    5193    5196    5197    5189    5193    5196    5227
    5189    5235    5232    5227    5189    5235    5232    5234
    5189    5235    5232    5233    5190    5189    5193    5196
    5190    5189    5193    5195    5190    5189    5193    5194
    5190    5189    5235    5232    5190    5189    5235    5237
    5190    5189    5235    5236    5190    5189    5191    5192
    5191    5189    5193    5196    5191    5189    5193    5195
    5191    5189    5193    5194    5191    5189    5235    5232
    5191    5189    5235    5237    5191    5189    5235    5236
    5192    5191    5189    5193    5192    5191    5189    5235
    5193    5196    5197    5199    5193    5196    5197    5198
    5193    5196    5227    5225    5193    5196    5227    5228
    5193    5196    5227    5232    5193    5189    5235    5232
    5193    5189    5235    5237    5193    5189    5235    5236
    5194    5193    5196    5197    5194    5193    5196    5227
    5194    5193    5189    5235    5195    5193    5196    5197
    5195    5193    5196    5227    5195    5193    5189    5235
    5196    5197    5199    5202    5196    5197    5199    5201
    5196    5197    5199    5200    5196    5227    5225    5222
    5196    5227    5225    5226    5196    5227    5225    5202
    5196    5227    5228    5231    5196    5227    5228    5230
    5196    5227    5228    5229    5196    5227    5232    5234
    5196    5227    5232    5233    5196    5227    5232    5235
    5196    5193    5189    5235    5197    5199    5202    5204
    5197    5199    5202    5225    5197    5199    5202    5203
    5197    5196    5227    5225    5197    5196    5227    5228
    5197    5196    5227    5232    5198    5197    5199    5202
    5198    5197    5199    5201    5198    5197    5199    5200
    5198    5197    5196    5227    5199    5202    5204    5206
    5199    5202    5204    5214    5199    5202    5204    5205
    5199    5202    5225    5222    5199    5202    5225    5227
    5199    5202    5225    5226    5199    5197    5196    5227
    5200    5199    5202    5204    5200    5199    5202    5225
    5200    5199    5202    5203    5201    5199    5202    5204
    5201    5199    5202    5225    5201    5199    5202    5203
    5202    5204    5206    5209    5202    5204    5206    5208
    5202    5204    5206    5207    5202    5204    5214    5212
    5202    5204    5214    5215    5202    5204    5214    5219
    5202    5225    5222    5224    5202    5225    5222    5223
    5202    5225    5222    5219    5202    5225    5227    5228
    5202    5225    5227    5232    5203    5202    5204    5206
    5203    5202    5204    5214    5203    5202    5204    5205
    5203    5202    5225    5222    5203    5202    5225    5227
    5203    5202    5225    5226    5204    5206    5209    5212
    5204    5206    5209    5211    5204    5206    5209    5210
    5204    5214    5212    5238    5204    5214    5212    5213
    5204    5214    5212    5209    5204    5214    5215    5218
    5204    5214    5215    5217    5204    5214    5215    5216
    5204    5214    5219    5222    5204    5214    5219    5221
    5204    5214    5219    5220    5204    5202    5225    5222
    5204    5202    5225    5227    5204    5202    5225    5226
    5205    5204    5206    5209    5205    5204    5206    5208
    5205    5204    5206    5207    5205    5204    5214    5212
    5205    5204    5214    5215    5205    5204    5214    5219
    5205    5204    5202    5225    5206    5209    5212    5238
    5206    5209    5212    5214    5206    5209    5212    5213
    5206    5204    5214    5212    5206    5204    5214    5215
    5206    5204    5214    5219    5206    5204    5202    5225
    5207    5206    5209    5212    5207    5206    5209    5211
    5207    5206    5209    5210    5207    5206    5204    5214
    5208    5206    5209    5212    5208    5206    5209    5211
    5208    5206    5209    5210    5208    5206    5204    5214
    5209    5212    5238    5244    5209    5212    5238    5240
    5209    5212    5238    5239    5209    5212    5214    5215
    5209    5212    5214    5219    5209    5206    5204    5214
    5210    5209    5212    5238    5210    5209    5212    5214
    5210    5209    5212    5213    5211    5209    5212    5238
    5211    5209    5212    5214    5211    5209    5212    5213
    5212    5238    5244    5247    5212    5238    5244    5246
    5212    5238    5244    5245    5212    5238    5240    5243
    5212    5238    5240    5242    5212    5238    5240    5241
    5212    5214    5215    5218    5212    5214    5215    5217
    5212    5214    5215    5216    5212    5214    5219    5222
    5212    5214    5219    5221    5212    5214    5219    5220
    5213    5212    5238    5244    5213    5212    5238    5240
    5213    5212    5238    5239    5213    5212    5214    5215
    5213    5212    5214    5219    5214    5212    5238    5244
    5214    5212    5238    5240    5214    5212    5238    5239
    5214    5219    5222    5225    5214    5219    5222    5224
    5214    5219    5222    5223    5214    5204    5202    5225
    5215    5214    5212    5238    5215    5214    5219    5222
    5215    5214    5219    5221    5215    5214    5219    5220
    5216    5215    5214    5219    5217    5215    5214    5219
    5218    5215    5214    5219    5219    5222    5225    5227
    5219    5222    5225    5226    5219    5214    5212    5238
    5220    5219    5222    5225    5220    5219    5222    5224
    5220    5219    5222    5223    5221    5219    5222    5225
    5221    5219    5222    5224    5221    5219    5222    5223
    5222    5225    5227    5228    5222    5225    5227    5232
    5223    5222    5225    5227    5223    5222    5225    5226
    5224    5222    5225    5227    5224    5222    5225    5226
    5225    5227    5228    5231    5225    5227    5228    5230
    5225    5227    5228    5229    5225    5227    5232    5234
    5225    5227    5232    5233    5225    5227    5232    5235
    5226    5225    5227    5228    5226    5225    5227    5232
    5227    5232    5235    5237    5227    5232    5235    5236
    5228    5227    5232    5234    5228    5227    5232    5233
    5228    5227    5232    5235    5229    5228    5227    5232
    5230    5228    5227    5232    5231    5228    5227    5232
    5233    5232    5235    5237    5233    5232    5235    5236
    5234    5232    5235    5237    5234    5232    5235    5236
    5238    5244    5247    5250    5238    5244    5247    5249
    5238    5244    5247    5248    5239    5238    5244    5247
    5239    5238    5244    5246    5239    5238    5244    5245
    5239    5238    5240    5243    5239    5238    5240    5242
    5239    5238    5240    5241    5240    5238    5244    5247
    5240    5238    5244    5246    5240    5238    5244    5245
    5241    5240    5238    5244    5242    5240    5238    5244
    5243    5240    5238    5244    5244    5247    5250    5253
    5244    5247    5250    5252    5244    5247    5250    5251
    5245    5244    5247    5250    5245    5244    5247    5249
    5245    5244    5247    5248    5246    5244    5247    5250
    5246    5244    5247    5249    5246    5244    5247    5248
    5247    5250    5253    5259    5247    5250    5253    5255
    5247    5250    5253    5254    5248    5247    5250    5253
    5248    5247    5250    5252    5248    5247    5250    5251
    5249    5247    5250    5253    5249    5247    5250    5252
    5249    5247    5250    5251    5250    5253    5259    5262
    5250    5253    5259    5261    5250    5253    5259    5260
    5250    5253    5255    5258    5250    5253    5255    5257
    5250    5253    5255    5256    5251    5250    5253    5259
    5251    5250    5253    5255    5251    5250    5253    5254
    5252    5250    5253    5259    5252    5250    5253    5255
    5252    5250    5253    5254    5254    5253    5259    5262
    5254    5253    5259    5261    5254    5253    5259    5260
    5254    5253    5255    5258    5254    5253    5255    5257
    5254    5253    5255    5256    5255    5253    5259    5262
    5255    5253    5259    5261    5255    5253    5259    5260
    5256    5255    5253    5259    5257    5255    5253    5259
    5258    5255    5253    5259    5263    5267    5270    5271
    5263    5267    5270    5301    5263    5309    5306    5301
    5263    5309    5306    5308    5263    5309    5306    5307
    5264    5263    5267    5270    5264    5263    5267    5269
    5264    5263    5267    5268    5264    5263    5309    5306
    5264    5263    5309    5311    5264    5263    5309    5310
    5264    5263    5265    5266    5265    5263    5267    5270
    5265    5263    5267    5269    5265    5263    5267    5268
    5265    5263    5309    5306    5265    5263    5309    5311
    5265    5263    5309    5310    5266    5265    5263    5267
    5266    5265    5263    5309    5267    5270    5271    5273
    5267    5270    5271    5272    5267    5270    5301    5299
    5267    5270    5301    5302    5267    5270    5301    5306
    5267    5263    5309    5306    5267    5263    5309    5311
    5267    5263    5309    5310    5268    5267    5270    5271
    5268    5267    5270    5301    5268    5267    5263    5309
    5269    5267    5270    5271    5269    5267    5270    5301
    5269    5267    5263    5309    5270    5271    5273    5276
    5270    5271    5273    5275    5270    5271    5273    5274
    5270    5301    5299    5296    5270    5301    5299    5300
    5270    5301    5299    5276    5270    5301    5302    5305
    5270    5301    5302    5304    5270    5301    5302    5303
    5270    5301    5306    5308    5270    5301    5306    5307
    5270    5301    5306    5309    5270    5267    5263    5309
    5271    5273    5276    5278    5271    5273    5276    5299
    5271    5273    5276    5277    5271    5270    5301    5299
    5271    5270    5301    5302    5271    5270    5301    5306
    5272    5271    5273    5276    5272    5271    5273    5275
    5272    5271    5273    5274    5272    5271    5270    5301
    5273    5276    5278    5280    5273    5276    5278    5288
    5273    5276    5278    5279    5273    5276    5299    5296
    5273    5276    5299    5301    5273    5276    5299    5300
    5273    5271    5270    5301    5274    5273    5276    5278
    5274    5273    5276    5299    5274    5273    5276    5277
    5275    5273    5276    5278    5275    5273    5276    5299
    5275    5273    5276    5277    5276    5278    5280    5283
    5276    5278    5280    5282    5276    5278    5280    5281
    5276    5278    5288    5286    5276    5278    5288    5289
    5276    5278    5288    5293    5276    5299    5296    5298
    5276    5299    5296    5297    5276    5299    5296    5293
    5276    5299    5301    5302    5276    5299    5301    5306
    5277    5276    5278    5280    5277    5276    5278    5288
    5277    5276    5278    5279    5277    5276    5299    5296
    5277    5276    5299    5301    5277    5276    5299    5300
    5278    5280    5283    5286    5278    5280    5283    5285
    5278    5280    5283    5284    5278    5288    5286    5312
    5278    5288    5286    5287    5278    5288    5286    5283
    5278    5288    5289    5292    5278    5288    5289    5291
    5278    5288    5289    5290    5278    5288    5293    5296
    5278    5288    5293    5295    5278    5288    5293    5294
    5278    5276    5299    5296    5278    5276    5299    5301
    5278    5276    5299    5300    5279    5278    5280    5283
    5279    5278    5280    5282    5279    5278    5280    5281
    5279    5278    5288    5286    5279    5278    5288    5289
    5279    5278    5288    5293    5279    5278    5276    5299
    5280    5283    5286    5312    5280    5283    5286    5288
    5280    5283    5286    5287    5280    5278    5288    5286
    5280    5278    5288    5289    5280    5278    5288    5293
    5280    5278    5276    5299    5281    5280    5283    5286
    5281    5280    5283    5285    5281    5280    5283    5284
    5281    5280    5278    5288    5282    5280    5283    5286
    5282    5280    5283    5285    5282    5280    5283    5284
    5282    5280    5278    5288    5283    5286    5312    5318
    5283    5286    5312    5314    5283    5286    5312    5313
    5283    5286    5288    5289    5283    5286    5288    5293
    5283    5280    5278    5288    5284    5283    5286    5312
    5284    5283    5286    5288    5284    5283    5286    5287
    5285    5283    5286    5312    5285    5283    5286    5288
    5285    5283    5286    5287    5286    5312    5318    5321
    5286    5312    5318    5320    5286    5312    5318    5319
    5286    5312    5314    5317    5286    5312    5314    5316
    5286    5312    5314    5315    5286    5288    5289    5292
    5286    5288    5289    5291    5286    5288    5289    5290
    5286    5288    5293    5296    5286    5288    5293    5295
    5286    5288    5293    5294    5287    5286    5312    5318
    5287    5286    5312    5314    5287    5286    5312    5313
    5287    5286    5288    5289    5287    5286    5288    5293
    5288    5286    5312    5318    5288    5286    5312    5314
    5288    5286    5312    5313    5288    5293    5296    5299
    5288    5293    5296    5298    5288    5293    5296    5297
    5288    5278    5276    5299    5289    5288    5286    5312
    5289    5288    5293    5296    5289    5288    5293    5295
    5289    5288    5293    5294    5290    5289    5288    5293
    5291    5289    5288    5293    5292    5289    5288    5293
    5293    5296    5299    5301    5293    5296    5299    5300
    5293    5288    5286    5312    5294    5293    5296    5299
    5294    5293    5296    5298    5294    5293    5296    5297
    5295    5293    5296    5299    5295    5293    5296    5298
    5295    5293    5296    5297    5296    5299    5301    5302
    5296    5299    5301    5306    5297    5296    5299    5301
    5297    5296    5299    5300    5298    5296    5299    5301
    5298    5296    5299    5300    5299    5301    5302    5305
    5299    5301    5302    5304    5299    5301    5302    5303
    5299    5301    5306    5308    5299    5301    5306    5307
    5299    5301    5306    5309    5300    5299    5301    5302
    5300    5299    5301    5306    5301    5306    5309    5311
    5301    5306    5309    5310    5302    5301    5306    5308
    5302    5301    5306    5307    5302    5301    5306    5309
    5303    5302    5301    5306    5304    5302    5301    5306
    5305    5302    5301    5306    5307    5306    5309    5311
    5307    5306    5309    5310    5308    5306    5309    5311
    5308    5306    5309    5310    5312    5318    5321    5324
    5312    5318    5321    5323    5312    5318    5321    5322
    5313    5312    5318    5321    5313    5312    5318    5320
    5313    5312    5318    5319    5313    5312    5314    5317
    5313    5312    5314    5316    5313    5312    5314    5315
    5314    5312    5318    5321    5314    5312    5318    5320
    5314    5312    5318    5319    5315    5314    5312    5318
    5316    5314    5312    5318    5317    5314    5312    5318
    5318    5321    5324    5327    5318    5321    5324    5326
    5318    5321    5324    5325    5319    5318    5321    5324
    5319    5318    5321    5323    5319    5318    5321    5322
    5320    5318    5321    5324    5320    5318    5321    5323
    5320    5318    5321    5322    5321    5324    5327    5333
    5321    5324    5327    5329    5321    5324    5327    5328
    5322    5321    5324    5327    5322    5321    5324    5326
    5322    5321    5324    5325    5323    5321    5324    5327
    5323    5321    5324    5326    5323    5321    5324    5325
    5324    5327    5333    5336    5324    5327    5333    5335
    5324    5327    5333    5334    5324    5327    5329    5332
    5324    5327    5329    5331    5324    5327    5329    5330
    5325    5324    5327    5333    5325    5324    5327    5329
    5325    5324    5327    5328    5326    5324    5327    5333
    5326    5324    5327    5329    5326    5324    5327    5328
    5328    5327    5333    5336    5328    5327    5333    5335
    5328    5327    5333    5334    5328    5327    5329    5332
    5328    5327    5329    5331    5328    5327    5329    5330
    5329    5327    5333    5336    5329    5327    5333    5335
    5329    5327    5333    5334    5330    5329    5327    5333
    5331    5329    5327    5333    5332    5329    5327    5333
    5337    5341    5344    5345    5337    5341    5344    5375
    5337    5383    5380    5375    5337    5383    5380    5382
    5337    5383    5380    5381    5338    5337    5341    5344
    5338    5337    5341    5343    5338    5337    5341    5342
    5338    5337    5383    5380    5338    5337    5383    5385
    5338    5337    5383    5384    5338    5337    5339    5340
    5339    5337    5341    5344    5339    5337    5341    5343
    5339    5337    5341    5342    5339    5337    5383    5380
    5339    5337    5383    5385    5339    5337    5383    5384
    5340    5339    5337    5341    5340    5339    5337    5383
    5341    5344    5345    5347    5341    5344    5345    5346
    5341    5344    5375    5373    5341    5344    5375    5376
    5341    5344    5375    5380    5341    5337    5383    5380
    5341    5337    5383    5385    5341    5337    5383    5384
    5342    5341    5344    5345    5342    5341    5344    5375
    5342    5341    5337    5383    5343    5341    5344    5345
    5343    5341    5344    5375    5343    5341    5337    5383
    5344    5345    5347    5350    5344    5345    5347    5349
    5344    5345    5347    5348    5344    5375    5373    5370
    5344    5375    5373    5374    5344    5375    5373    5350
    5344    5375    5376    5379    5344    5375    5376    5378
    5344    5375    5376    5377    5344    5375    5380    5382
    5344    5375    5380    5381    5344    5375    5380    5383
    5344    5341    5337    5383    5345    5347    5350    5352
    5345    5347    5350    5373    5345    5347    5350    5351
    5345    5344    5375    5373    5345    5344    5375    5376
    5345    5344    5375    5380    5346    5345    5347    5350
    5346    5345    5347    5349    5346    5345    5347    5348
    5346    5345    5344    5375    5347    5350    5352    5354
    5347    5350    5352    5362    5347    5350    5352    5353
    5347    5350    5373    5370    5347    5350    5373    5375
    5347    5350    5373    5374    5347    5345    5344    5375
    5348    5347    5350    5352    5348    5347    5350    5373
    5348    5347    5350    5351    5349    5347    5350    5352
    5349    5347    5350    5373    5349    5347    5350    5351
    5350    5352    5354    5357    5350    5352    5354    5356
    5350    5352    5354    5355    5350    5352    5362    5360
    5350    5352    5362    5363    5350    5352    5362    5367
    5350    5373    5370    5372    5350    5373    5370    5371
    5350    5373    5370    5367    5350    5373    5375    5376
    5350    5373    5375    5380    5351    5350    5352    5354
    5351    5350    5352    5362    5351    5350    5352    5353
    5351    5350    5373    5370    5351    5350    5373    5375
    5351    5350    5373    5374    5352    5354    5357    5360
    5352    5354    5357    5359    5352    5354    5357    5358
    5352    5362    5360    5386    5352    5362    5360    5361
    5352    5362    5360    5357    5352    5362    5363    5366
    5352    5362    5363    5365    5352    5362    5363    5364
    5352    5362    5367    5370    5352    5362    5367    5369
    5352    5362    5367    5368    5352    5350    5373    5370
    5352    5350    5373    5375    5352    5350    5373    5374
    5353    5352    5354    5357    5353    5352    5354    5356
    5353    5352    5354    5355    5353    5352    5362    5360
    5353    5352    5362    5363    5353    5352    5362    5367
    5353    5352    5350    5373    5354    5357    5360    5386
    5354    5357    5360    5362    5354    5357    5360    5361
    5354    5352    5362    5360    5354    5352    5362    5363
    5354    5352    5362    5367    5354    5352    5350    5373
    5355    5354    5357    5360    5355    5354    5357    5359
    5355    5354    5357    5358    5355    5354    5352    5362
    5356    5354    5357    5360    5356    5354    5357    5359
    5356    5354    5357    5358    5356    5354    5352    5362
    5357    5360    5386    5392    5357    5360    5386    5388
    5357    5360    5386    5387    5357    5360    5362    5363
    5357    5360    5362    5367    5357    5354    5352    5362
    5358    5357    5360    5386    5358    5357    5360    5362
    5358    5357    5360    5361    5359    5357    5360    5386
    5359    5357    5360    5362    5359    5357    5360    5361
    5360    5386    5392    5395    5360    5386    5392    5394
    5360    5386    5392    5393    5360    5386    5388    5391
    5360    5386    5388    5390    5360    5386    5388    5389
    5360    5362    5363    5366    5360    5362    5363    5365
    5360    5362    5363    5364    5360    5362    5367    5370
    5360    5362    5367    5369    5360    5362    5367    5368
    5361    5360    5386    5392    5361    5360    5386    5388
    5361    5360    5386    5387    5361    5360    5362    5363
    5361    5360    5362    5367    5362    5360    5386    5392
    5362    5360    5386    5388    5362    5360    5386    5387
    5362    5367    5370    5373    5362    5367    5370    5372
    5362    5367    5370    5371    5362    5352    5350    5373
    5363    5362    5360    5386    5363    5362    5367    5370
    5363    5362    5367    5369    5363    5362    5367    5368
    5364    5363    5362    5367    5365    5363    5362    5367
    5366    5363    5362    5367    5367    5370    5373    5375
    5367    5370    5373    5374    5367    5362    5360    5386
    5368    5367    5370    5373    5368    5367    5370    5372
    5368    5367    5370    5371    5369    5367    5370    5373
    5369    5367    5370    5372    5369    5367    5370    5371
    5370    5373    5375    5376    5370    5373    5375    5380
    5371    5370    5373    5375    5371    5370    5373    5374
    5372    5370    5373    5375    5372    5370    5373    5374
    5373    5375    5376    5379    5373    5375    5376    5378
    5373    5375    5376    5377    5373    5375    5380    5382
    5373    5375    5380    5381    5373    5375    5380    5383
    5374    5373    5375    5376    5374    5373    5375    5380
    5375    5380    5383    5385    5375    5380    5383    5384
    5376    5375    5380    5382    5376    5375    5380    5381
    5376    5375    5380    5383    5377    5376    5375    5380
    5378    5376    5375    5380    5379    5376    5375    5380
    5381    5380    5383    5385    5381    5380    5383    5384
    5382    5380    5383    5385    5382    5380    5383    5384
    5386    5392    5395    5398    5386    5392    5395    5397
    5386    5392    5395    5396    5387    5386    5392    5395
    5387    5386    5392    5394    5387    5386    5392    5393
    5387    5386    5388    5391    5387    5386    5388    5390
    5387    5386    5388    5389    5388    5386    5392    5395
    5388    5386    5392    5394    5388    5386    5392    5393
    5389    5388    5386    5392    5390    5388    5386    5392
    5391    5388    5386    5392    5392    5395    5398    5401
    5392    5395    5398    5400    5392    5395    5398    5399
    5393    5392    5395    5398    5393    5392    5395    5397
    5393    5392    5395    5396    5394    5392    5395    5398
    5394    5392    5395    5397    5394    5392    5395    5396
    5395    5398    5401    5407    5395    5398    5401    5403
    5395    5398    5401    5402    5396    5395    5398    5401
    5396    5395    5398    5400    5396    5395    5398    5399
    5397    5395    5398    5401    5397    5395    5398    5400
    5397    5395    5398    5399    5398    5401    5407    5410
    5398    5401    5407    5409    5398    5401    5407    5408
    5398    5401    5403    5406    5398    5401    5403    5405
    5398    5401    5403    5404    5399    5398    5401    5407
    5399    5398    5401    5403    5399    5398    5401    5402
    5400    5398    5401    5407    5400    5398    5401    5403
    5400    5398    5401    5402    5402    5401    5407    5410
    5402    5401    5407    5409    5402    5401    5407    5408
    5402    5401    5403    5406    5402    5401    5403    5405
    5402    5401    5403    5404    5403    5401    5407    5410
    5403    5401    5407    5409    5403    5401    5407    5408
    5404    5403    5401    5407    5405    5403    5401    5407
    5406    5403    5401    5407    5411    5415    5418    5419
    5411    5415    5418    5449    5411    5457    5454    5449
    5411    5457    5454    5456    5411    5457    5454    5455
    5412    5411    5415    5418    5412    5411    5415    5417
    5412    5411    5415    5416    5412    5411    5457    5454
    5412    5411    5457    5459    5412    5411    5457    5458
    5412    5411    5413    5414    5413    5411    5415    5418
    5413    5411    5415    5417    5413    5411    5415    5416
    5413    5411    5457    5454    5413    5411    5457    5459
    5413    5411    5457    5458    5414    5413    5411    5415
    5414    5413    5411    5457    5415    5418    5419    5421
    5415    5418    5419    5420    5415    5418    5449    5447
    5415    5418    5449    5450    5415    5418    5449    5454
    5415    5411    5457    5454    5415    5411    5457    5459
    5415    5411    5457    5458    5416    5415    5418    5419
    5416    5415    5418    5449    5416    5415    5411    5457
    5417    5415    5418    5419    5417    5415    5418    5449
    5417    5415    5411    5457    5418    5419    5421    5424
    5418    5419    5421    5423    5418    5419    5421    5422
    5418    5449    5447    5444    5418    5449    5447    5448
    5418    5449    5447    5424    5418    5449    5450    5453
    5418    5449    5450    5452    5418    5449    5450    5451
    5418    5449    5454    5456    5418    5449    5454    5455
    5418    5449    5454    5457    5418    5415    5411    5457
    5419    5421    5424    5426    5419    5421    5424    5447
    5419    5421    5424    5425    5419    5418    5449    5447
    5419    5418    5449    5450    5419    5418    5449    5454
    5420    5419    5421    5424    5420    5419    5421    5423
    5420    5419    5421    5422    5420    5419    5418    5449
    5421    5424    5426    5428    5421    5424    5426    5436
    5421    5424    5426    5427    5421    5424    5447    5444
    5421    5424    5447    5449    5421    5424    5447    5448
    5421    5419    5418    5449    5422    5421    5424    5426
    5422    5421    5424    5447    5422    5421    5424    5425
    5423    5421    5424    5426    5423    5421    5424    5447
    5423    5421    5424    5425    5424    5426    5428    5431
    5424    5426    5428    5430    5424    5426    5428    5429
    5424    5426    5436    5434    5424    5426    5436    5437
    5424    5426    5436    5441    5424    5447    5444    5446
    5424    5447    5444    5445    5424    5447    5444    5441
    5424    5447    5449    5450    5424    5447    5449    5454
    5425    5424    5426    5428    5425    5424    5426    5436
    5425    5424    5426    5427    5425    5424    5447    5444
    5425    5424    5447    5449    5425    5424    5447    5448
    5426    5428    5431    5434    5426    5428    5431    5433
    5426    5428    5431    5432    5426    5436    5434    5460
    5426    5436    5434    5435    5426    5436    5434    5431
    5426    5436    5437    5440    5426    5436    5437    5439
    5426    5436    5437    5438    5426    5436    5441    5444
    5426    5436    5441    5443    5426    5436    5441    5442
    5426    5424    5447    5444    5426    5424    5447    5449
    5426    5424    5447    5448    5427    5426    5428    5431
    5427    5426    5428    5430    5427    5426    5428    5429
    5427    5426    5436    5434    5427    5426    5436    5437
    5427    5426    5436    5441    5427    5426    5424    5447
    5428    5431    5434    5460    5428    5431    5434    5436
    5428    5431    5434    5435    5428    5426    5436    5434
    5428    5426    5436    5437    5428    5426    5436    5441
    5428    5426    5424    5447    5429    5428    5431    5434
    5429    5428    5431    5433    5429    5428    5431    5432
    5429    5428    5426    5436    5430    5428    5431    5434
    5430    5428    5431    5433    5430    5428    5431    5432
    5430    5428    5426    5436    5431    5434    5460    5466
    5431    5434    5460    5462    5431    5434    5460    5461
    5431    5434    5436    5437    5431    5434    5436    5441
    5431    5428    5426    5436    5432    5431    5434    5460
    5432    5431    5434    5436    5432    5431    5434    5435
    5433    5431    5434    5460    5433    5431    5434    5436
    5433    5431    5434    5435    5434    5460    5466    5469
    5434    5460    5466    5468    5434    5460    5466    5467
    5434    5460    5462    5465    5434    5460    5462    5464
    5434    5460    5462    5463    5434    5436    5437    5440
    5434    5436    5437    5439    5434    5436    5437    5438
    5434    5436    5441    5444    5434    5436    5441    5443
    5434    5436    5441    5442    5435    5434    5460    5466
    5435    5434    5460    5462    5435    5434    5460    5461
    5435    5434    5436    5437    5435    5434    5436    5441
    5436    5434    5460    5466    5436    5434    5460    5462
    5436    5434    5460    5461    5436    5441    5444    5447
    5436    5441    5444    5446    5436    5441    5444    5445
    5436    5426    5424    5447    5437    5436    5434    5460
    5437    5436    5441    5444    5437    5436    5441    5443
    5437    5436    5441    5442    5438    5437    5436    5441
    5439    5437    5436    5441    5440    5437    5436    5441
    5441    5444    5447    5449    5441    5444    5447    5448
    5441    5436    5434    5460    5442    5441    5444    5447
    5442    5441    5444    5446    5442    5441    5444    5445
    5443    5441    5444    5447    5443    5441    5444    5446
    5443    5441    5444    5445    5444    5447    5449    5450
    5444    5447    5449    5454    5445    5444    5447    5449
    5445    5444    5447    5448    5446    5444    5447    5449
    5446    5444    5447    5448    5447    5449    5450    5453
    5447    5449    5450    5452    5447    5449    5450    5451
    5447    5449    5454    5456    5447    5449    5454    5455
    5447    5449    5454    5457    5448    5447    5449    5450
    5448    5447    5449    5454    5449    5454    5457    5459
    5449    5454    5457    5458    5450    5449    5454    5456
    5450    5449    5454    5455    5450    5449    5454    5457
    5451    5450    5449    5454    5452    5450    5449    5454
    5453    5450    5449    5454    5455    5454    5457    5459
    5455    5454    5457    5458    5456    5454    5457    5459
    5456    5454    5457    5458    5460    5466    5469    5472
    5460    5466    5469    5471    5460    5466    5469    5470
    5461    5460    5466    5469    5461    5460    5466    5468
    5461    5460    5466    5467    5461    5460    5462    5465
    5461    5460    5462    5464    5461    5460    5462    5463
    5462    5460    5466    5469    5462    5460    5466    5468
    5462    5460    5466    5467    5463    5462    5460    5466
    5464    5462    5460    5466    5465    5462    5460    5466
    5466    5469    5472    5475    5466    5469    5472    5474
    5466    5469    5472    5473    5467    5466    5469    5472
    5467    5466    5469    5471    5467    5466    5469    5470
    5468    5466    5469    5472    5468    5466    5469    5471
    5468    5466    5469    5470    5469    5472    5475    5481
    5469    5472    5475    5477    5469    5472    5475    5476
    5470    5469    5472    5475    5470    5469    5472    5474
    5470    5469    5472    5473    5471    5469    5472    5475
    5471    5469    5472    5474    5471    5469    5472    5473
    5472    5475    5481    5484    5472    5475    5481    5483
    5472    5475    5481    5482    5472    5475    5477    5480
    5472    5475    5477    5479    5472    5475    5477    5478
    5473    5472    5475    5481    5473    5472    5475    5477
    5473    5472    5475    5476    5474    5472    5475    5481
    5474    5472    5475    5477    5474    5472    5475    5476
    5476    5475    5481    5484    5476    5475    5481    5483
    5476    5475    5481    5482    5476    5475    5477    5480
    5476    5475    5477    5479    5476    5475    5477    5478
    5477    5475    5481    5484    5477    5475    5481    5483
    5477    5475    5481    5482    5478    5477    5475    5481
    5479    5477    5475    5481    5480    5477    5475    5481
    5485    5489    5492    5493    5485    5489    5492    5523
    5485    5531    5528    5523    5485    5531    5528    5530
    5485    5531    5528    5529    5486    5485    5489    5492
    5486    5485    5489    5491    5486    5485    5489    5490
    5486    5485    5531    5528    5486    5485    5531    5533
    5486    5485    5531    5532    5486    5485    5487    5488
    5487    5485    5489    5492    5487    5485    5489    5491
    5487    5485    5489    5490    5487    5485    5531    5528
    5487    5485    5531    5533    5487    5485    5531    5532
    5488    5487    5485    5489    5488    5487    5485    5531
    5489    5492    5493    5495    5489    5492    5493    5494
    5489    5492    5523    5521    5489    5492    5523    5524
    5489    5492    5523    5528    5489    5485    5531    5528
    5489    5485    5531    5533    5489    5485    5531    5532
    5490    5489    5492    5493    5490    5489    5492    5523
    5490    5489    5485    5531    5491    5489    5492    5493
    5491    5489    5492    5523    5491    5489    5485    5531
    5492    5493    5495    5498    5492    5493    5495    5497
    5492    5493    5495    5496    5492    5523    5521    5518
    5492    5523    5521    5522    5492    5523    5521    5498
    5492    5523    5524    5527    5492    5523    5524    5526
    5492    5523    5524    5525    5492    5523    5528    5530
    5492    5523    5528    5529    5492    5523    5528    5531
    5492    5489    5485    5531    5493    5495    5498    5500
    5493    5495    5498    5521    5493    5495    5498    5499
    5493    5492    5523    5521    5493    5492    5523    5524
    5493    5492    5523    5528    5494    5493    5495    5498
    5494    5493    5495    5497    5494    5493    5495    5496
    5494    5493    5492    5523    5495    5498    5500    5502
    5495    5498    5500    5510    5495    5498    5500    5501
    5495    5498    5521    5518    5495    5498    5521    5523
    5495    5498    5521    5522    5495    5493    5492    5523
    5496    5495    5498    5500    5496    5495    5498    5521
    5496    5495    5498    5499    5497    5495    5498    5500
    5497    5495    5498    5521    5497    5495    5498    5499
    5498    5500    5502    5505    5498    5500    5502    5504
    5498    5500    5502    5503    5498    5500    5510    5508
    5498    5500    5510    5511    5498    5500    5510    5515
    5498    5521    5518    5520    5498    5521    5518    5519
    5498    5521    5518    5515    5498    5521    5523    5524
    5498    5521    5523    5528    5499    5498    5500    5502
    5499    5498    5500    5510    5499    5498    5500    5501
    5499    5498    5521    5518    5499    5498    5521    5523
    5499    5498    5521    5522    5500    5502    5505    5508
    5500    5502    5505    5507    5500    5502    5505    5506
    5500    5510    5508    5534    5500    5510    5508    5509
    5500    5510    5508    5505    5500    5510    5511    5514
    5500    5510    5511    5513    5500    5510    5511    5512
    5500    5510    5515    5518    5500    5510    5515    5517
    5500    5510    5515    5516    5500    5498    5521    5518
    5500    5498    5521    5523    5500    5498    5521    5522
    5501    5500    5502    5505    5501    5500    5502    5504
    5501    5500    5502    5503    5501    5500    5510    5508
    5501    5500    5510    5511    5501    5500    5510    5515
    5501    5500    5498    5521    5502    5505    5508    5534
    5502    5505    5508    5510    5502    5505    5508    5509
    5502    5500    5510    5508    5502    5500    5510    5511
    5502    5500    5510    5515    5502    5500    5498    5521
    5503    5502    5505    5508    5503    5502    5505    5507
    5503    5502    5505    5506    5503    5502    5500    5510
    5504    5502    5505    5508    5504    5502    5505    5507
    5504    5502    5505    5506    5504    5502    5500    5510
    5505    5508    5534    5540    5505    5508    5534    5536
    5505    5508    5534    5535    5505    5508    5510    5511
    5505    5508    5510    5515    5505    5502    5500    5510
    5506    5505    5508    5534    5506    5505    5508    5510
    5506    5505    5508    5509    5507    5505    5508    5534
    5507    5505    5508    5510    5507    5505    5508    5509
    5508    5534    5540    5543    5508    5534    5540    5542
    5508    5534    5540    5541    5508    5534    5536    5539
    5508    5534    5536    5538    5508    5534    5536    5537
    5508    5510    5511    5514    5508    5510    5511    5513
    5508    5510    5511    5512    5508    5510    5515    5518
    5508    5510    5515    5517    5508    5510    5515    5516
    5509    5508    5534    5540    5509    5508    5534    5536
    5509    5508    5534    5535    5509    5508    5510    5511
    5509    5508    5510    5515    5510    5508    5534    5540
    5510    5508    5534    5536    5510    5508    5534    5535
    5510    5515    5518    5521    5510    5515    5518    5520
    5510    5515    5518    5519    5510    5500    5498    5521
    5511    5510    5508    5534    5511    5510    5515    5518
    5511    5510    5515    5517    5511    5510    5515    5516
    5512    5511    5510    5515    5513    5511    5510    5515
    5514    5511    5510    5515    5515    5518    5521    5523
    5515    5518    5521    5522    5515    5510    5508    5534
    5516    5515    5518    5521    5516    5515    5518    5520
    5516    5515    5518    5519    5517    5515    5518    5521
    5517    5515    5518    5520    5517    5515    5518    5519
    5518    5521    5523    5524    5518    5521    5523    5528
    5519    5518    5521    5523    5519    5518    5521    5522
    5520    5518    5521    5523    5520    5518    5521    5522
    5521    5523    5524    5527    5521    5523    5524    5526
    5521    5523    5524    5525    5521    5523    5528    5530
    5521    5523    5528    5529    5521    5523    5528    5531
    5522    5521    5523    5524    5522    5521    5523    5528
    5523    5528    5531    5533    5523    5528    5531    5532
    5524    5523    5528    5530    5524    5523    5528    5529
    5524    5523    5528    5531    5525    5524    5523    5528
    5526    5524    5523    5528    5527    5524    5523    5528
    5529    5528    5531    5533    5529    5528    5531    5532
    5530    5528    5531    5533    5530    5528    5531    5532
    5534    5540    5543    5546    5534    5540    5543    5545
    5534    5540    5543    5544    5535    5534    5540    5543
    5535    5534    5540    5542    5535    5534    5540    5541
    5535    5534    5536    5539    5535    5534    5536    5538
    5535    5534    5536    5537    5536    5534    5540    5543
    5536    5534    5540    5542    5536    5534    5540    5541
    5537    5536    5534    5540    5538    5536    5534    5540
    5539    5536    5534    5540    5540    5543    5546    5549
    5540    5543    5546    5548    5540    5543    5546    5547
    5541    5540    5543    5546    5541    5540    5543    5545
    5541    5540    5543    5544    5542    5540    5543    5546
    5542    5540    5543    5545    5542    5540    5543    5544
    5543    5546    5549    5555    5543    5546    5549    5551
    5543    5546    5549    5550    5544    5543    5546    5549
    5544    5543    5546    5548    5544    5543    5546    5547
    5545    5543    5546    5549    5545    5543    5546    5548
    5545    5543    5546    5547    5546    5549    5555    5558
    5546    5549    5555    5557    5546    5549    5555    5556
    5546    5549    5551    5554    5546    5549    5551    5553
    5546    5549    5551    5552    5547    5546    5549    5555
    5547    5546    5549    5551    5547    5546    5549    5550
    5548    5546    5549    5555    5548    5546    5549    5551
    5548    5546    5549    5550    5550    5549    5555    5558
    5550    5549    5555    5557    5550    5549    5555    5556
    5550    5549    5551    5554    5550    5549    5551    5553
    5550    5549    5551    5552    5551    5549    5555    5558
    5551    5549    5555    5557    5551    5549    5555    5556
    5552    5551    5549    5555    5553    5551    5549    5555
    5554    5551    5549    5555    5559    5563    5566    5567
    5559    5563    5566    5597    5559    5605    5602    5597
    5559    5605    5602    5604    5559    5605    5602    5603
    5560    5559    5563    5566    5560    5559    5563    5565
    5560    5559    5563    5564    5560    5559    5605    5602
    5560    5559    5605    5607    5560    5559    5605    5606
    5560    5559    5561    5562    5561    5559    5563    5566
    5561    5559    5563    5565    5561    5559    5563    5564
    5561    5559    5605    5602    5561    5559    5605    5607
    5561    5559    5605    5606    5562    5561    5559    5563
    5562    5561    5559    5605    5563    5566    5567    5569
    5563    5566    5567    5568    5563    5566    5597    5595
    5563    5566    5597    5598    5563    5566    5597    5602
    5563    5559    5605    5602    5563    5559    5605    5607
    5563    5559    5605    5606    5564    5563    5566    5567
    5564    5563    5566    5597    5564    5563    5559    5605
    5565    5563    5566    5567    5565    5563    5566    5597
    5565    5563    5559    5605    5566    5567    5569    5572
    5566    5567    5569    5571    5566    5567    5569    5570
    5566    5597    5595    5592    5566    5597    5595    5596
    5566    5597    5595    5572    5566    5597    5598    5601
    5566    5597    5598    5600    5566    5597    5598    5599
    5566    5597    5602    5604    5566    5597    5602    5603
    5566    5597    5602    5605    5566    5563    5559    5605
    5567    5569    5572    5574    5567    5569    5572    5595
    5567    5569    5572    5573    5567    5566    5597    5595
    5567    5566    5597    5598    5567    5566    5597    5602
    5568    5567    5569    5572    5568    5567    5569    5571
    5568    5567    5569    5570    5568    5567    5566    5597
    5569    5572    5574    5576    5569    5572    5574    5584
    5569    5572    5574    5575    5569    5572    5595    5592
    5569    5572    5595    5597    5569    5572    5595    5596
    5569    5567    5566    5597    5570    5569    5572    5574
    5570    5569    5572    5595    5570    5569    5572    5573
    5571    5569    5572    5574    5571    5569    5572    5595
    5571    5569    5572    5573    5572    5574    5576    5579
    5572    5574    5576    5578    5572    5574    5576    5577
    5572    5574    5584    5582    5572    5574    5584    5585
    5572    5574    5584    5589    5572    5595    5592    5594
    5572    5595    5592    5593    5572    5595    5592    5589
    5572    5595    5597    5598    5572    5595    5597    5602
    5573    5572    5574    5576    5573    5572    5574    5584
    5573    5572    5574    5575    5573    5572    5595    5592
    5573    5572    5595    5597    5573    5572    5595    5596
    5574    5576    5579    5582    5574    5576    5579    5581
    5574    5576    5579    5580    5574    5584    5582    5608
    5574    5584    5582    5583    5574    5584    5582    5579
    5574    5584    5585    5588    5574    5584    5585    5587
    5574    5584    5585    5586    5574    5584    5589    5592
    5574    5584    5589    5591    5574    5584    5589    5590
    5574    5572    5595    5592    5574    5572    5595    5597
    5574    5572    5595    5596    5575    5574    5576    5579
    5575    5574    5576    5578    5575    5574    5576    5577
    5575    5574    5584    5582    5575    5574    5584    5585
    5575    5574    5584    5589    5575    5574    5572    5595
    5576    5579    5582    5608    5576    5579    5582    5584
    5576    5579    5582    5583    5576    5574    5584    5582
    5576    5574    5584    5585    5576    5574    5584    5589
    5576    5574    5572    5595    5577    5576    5579    5582
    5577    5576    5579    5581    5577    5576    5579    5580
    5577    5576    5574    5584    5578    5576    5579    5582
    5578    5576    5579    5581    5578    5576    5579    5580
    5578    5576    5574    5584    5579    5582    5608    5614
    5579    5582    5608    5610    5579    5582    5608    5609
    5579    5582    5584    5585    5579    5582    5584    5589
    5579    5576    5574    5584    5580    5579    5582    5608
    5580    5579    5582    5584    5580    5579    5582    5583
    5581    5579    5582    5608    5581    5579    5582    5584
    5581    5579    5582    5583    5582    5608    5614    5617
    5582    5608    5614    5616    5582    5608    5614    5615
    5582    5608    5610    5613    5582    5608    5610    5612
    5582    5608    5610    5611    5582    5584    5585    5588
    5582    5584    5585    5587    5582    5584    5585    5586
    5582    5584    5589    5592    5582    5584    5589    5591
    5582    5584    5589    5590    5583    5582    5608    5614
    5583    5582    5608    5610    5583    5582    5608    5609
    5583    5582    5584    5585    5583    5582    5584    5589
    5584    5582    5608    5614    5584    5582    5608    5610
    5584    5582    5608    5609    5584    5589    5592    5595
    5584    5589    5592    5594    5584    5589    5592    5593
    5584    5574    5572    5595    5585    5584    5582    5608
    5585    5584    5589    5592    5585    5584    5589    5591
    5585    5584    5589    5590    5586    5585    5584    5589
    5587    5585    5584    5589    5588    5585    5584    5589
    5589    5592    5595    5597    5589    5592    5595    5596
    5589    5584    5582    5608    5590    5589    5592    5595
    5590    5589    5592    5594    5590    5589    5592    5593
    5591    5589    5592    5595    5591    5589    5592    5594
    5591    5589    5592    5593    5592    5595    5597    5598
    5592    5595    5597    5602    5593    5592    5595    5597
    5593    5592    5595    5596    5594    5592    5595    5597
    5594    5592    5595    5596    5595    5597    5598    5601
    5595    5597    5598    5600    5595    5597    5598    5599
    5595    5597    5602    5604    5595    5597    5602    5603
    5595    5597    5602    5605    5596    5595    5597    5598
    5596    5595    5597    5602    5597    5602    5605    5607
    5597    5602    5605    5606    5598    5597    5602    5604
    5598    5597    5602    5603    5598    5597    5602    5605
    5599    5598    5597    5602    5600    5598    5597    5602
    5601    5598    5597    5602    5603    5602    5605    5607
    5603    5602    5605    5606    5604    5602    5605    5607
    5604    5602    5605    5606    5608    5614    5617    5620
    5608    5614    5617    5619    5608    5614    5617    5618
    5609    5608    5614    5617    5609    5608    5614    5616
    5609    5608    5614    5615    5609    5608    5610    5613
    5609    5608    5610    5612    5609    5608    5610    5611
    5610    5608    5614    5617    5610    5608    5614    5616
    5610    5608    5614    5615    5611    5610    5608    5614
    5612    5610    5608    5614    5613    5610    5608    5614
    5614    5617    5620    5623    5614    5617    5620    5622
    5614    5617    5620    5621    5615    5614    5617    5620
    5615    5614    5617    5619    5615    5614    5617    5618
    5616    5614    5617    5620    5616    5614    5617    5619
    5616    5614    5617    5618    5617    5620    5623    5629
    5617    5620    5623    5625    5617    5620    5623    5624
    5618    5617    5620    5623    5618    5617    5620    5622
    5618    5617    5620    5621    5619    5617    5620    5623
    5619    5617    5620    5622    5619    5617    5620    5621
    5620    5623    5629    5632    5620    5623    5629    5631
    5620    5623    5629    5630    5620    5623    5625    5628
    5620    5623    5625    5627    5620    5623    5625    5626
    5621    5620    5623    5629    5621    5620    5623    5625
    5621    5620    5623    5624    5622    5620    5623    5629
    5622    5620    5623    5625    5622    5620    5623    5624
    5624    5623    5629    5632    5624    5623    5629    5631
    5624    5623    5629    5630    5624    5623    5625    5628
    5624    5623    5625    5627    5624    5623    5625    5626
    5625    5623    5629    5632    5625    5623    5629    5631
    5625    5623    5629    5630    5626    5625    5623    5629
    5627    5625    5623    5629    5628    5625    5623    5629
    5633    5637    5640    5641    5633    5637    5640    5671
    5633    5679    5676    5671    5633    5679    5676    5678
    5633    5679    5676    5677    5634    5633    5637    5640
    5634    5633    5637    5639    5634    5633    5637    5638
    5634    5633    5679    5676    5634    5633    5679    5681
    5634    5633    5679    5680    5634    5633    5635    5636
    5635    5633    5637    5640    5635    5633    5637    5639
    5635    5633    5637    5638    5635    5633    5679    5676
    5635    5633    5679    5681    5635    5633    5679    5680
    5636    5635    5633    5637    5636    5635    5633    5679
    5637    5640    5641    5643    5637    5640    5641    5642
    5637    5640    5671    5669    5637    5640    5671    5672
    5637    5640    5671    5676    5637    5633    5679    5676
    5637    5633    5679    5681    5637    5633    5679    5680
    5638    5637    5640    5641    5638    5637    5640    5671
    5638    5637    5633    5679    5639    5637    5640    5641
    5639    5637    5640    5671    5639    5637    5633    5679
    5640    5641    5643    5646    5640    5641    5643    5645
    5640    5641    5643    5644    5640    5671    5669    5666
    5640    5671    5669    5670    5640    5671    5669    5646
    5640    5671    5672    5675    5640    5671    5672    5674
    5640    5671    5672    5673    5640    5671    5676    5678
    5640    5671    5676    5677    5640    5671    5676    5679
    5640    5637    5633    5679    5641    5643    5646    5648
    5641    5643    5646    5669    5641    5643    5646    5647
    5641    5640    5671    5669    5641    5640    5671    5672
    5641    5640    5671    5676    5642    5641    5643    5646
    5642    5641    5643    5645    5642    5641    5643    5644
    5642    5641    5640    5671    5643    5646    5648    5650
    5643    5646    5648    5658    5643    5646    5648    5649
    5643    5646    5669    5666    5643    5646    5669    5671
    5643    5646    5669    5670    5643    5641    5640    5671
    5644    5643    5646    5648    5644    5643    5646    5669
    5644    5643    5646    5647    5645    5643    5646    5648
    5645    5643    5646    5669    5645    5643    5646    5647
    5646    5648    5650    5653    5646    5648    5650    5652
    5646    5648    5650    5651    5646    5648    5658    5656
    5646    5648    5658    5659    5646    5648    5658    5663
    5646    5669    5666    5668    5646    5669    5666    5667
    5646    5669    5666    5663    5646    5669    5671    5672
    5646    5669    5671    5676    5647    5646    5648    5650
    5647    5646    5648    5658    5647    5646    5648    5649
    5647    5646    5669    5666    5647    5646    5669    5671
    5647    5646    5669    5670    5648    5650    5653    5656
    5648    5650    5653    5655    5648    5650    5653    5654
    5648    5658    5656    5682    5648    5658    5656    5657
    5648    5658    5656    5653    5648    5658    5659    5662
    5648    5658    5659    5661    5648    5658    5659    5660
    5648    5658    5663    5666    5648    5658    5663    5665
    5648    5658    5663    5664    5648    5646    5669    5666
    5648    5646    5669    5671    5648    5646    5669    5670
    5649    5648    5650    5653    5649    5648    5650    5652
    5649    5648    5650    5651    5649    5648    5658    5656
    5649    5648    5658    5659    5649    5648    5658    5663
    5649    5648    5646    5669    5650    5653    5656    5682
    5650    5653    5656    5658    5650    5653    5656    5657
    5650    5648    5658    5656    5650    5648    5658    5659
    5650    5648    5658    5663    5650    5648    5646    5669
    5651    5650    5653    5656    5651    5650    5653    5655
    5651    5650    5653    5654    5651    5650    5648    5658
    5652    5650    5653    5656    5652    5650    5653    5655
    5652    5650    5653    5654    5652    5650    5648    5658
    5653    5656    5682    5688    5653    5656    5682    5684
    5653    5656    5682    5683    5653    5656    5658    5659
    5653    5656    5658    5663    5653    5650    5648    5658
    5654    5653    5656    5682    5654    5653    5656    5658
    5654    5653    5656    5657    5655    5653    5656    5682
    5655    5653    5656    5658    5655    5653    5656    5657
    5656    5682    5688    5691    5656    5682    5688    5690
    5656    5682    5688    5689    5656    5682    5684    5687
    5656    5682    5684    5686    5656    5682    5684    5685
    5656    5658    5659    5662    5656    5658    5659    5661
    5656    5658    5659    5660    5656    5658    5663    5666
    5656    5658    5663    5665    5656    5658    5663    5664
    5657    5656    5682    5688    5657    5656    5682    5684
    5657    5656    5682    5683    5657    5656    5658    5659
    5657    5656    5658    5663    5658    5656    5682    5688
    5658    5656    5682    5684    5658    5656    5682    5683
    5658    5663    5666    5669    5658    5663    5666    5668
    5658    5663    5666    5667    5658    5648    5646    5669
    5659    5658    5656    5682    5659    5658    5663    5666
    5659    5658    5663    5665    5659    5658    5663    5664
    5660    5659    5658    5663    5661    5659    5658    5663
    5662    5659    5658    5663    5663    5666    5669    5671
    5663    5666    5669    5670    5663    5658    5656    5682
    5664    5663    5666    5669    5664    5663    5666    5668
    5664    5663    5666    5667    5665    5663    5666    5669
    5665    5663    5666    5668    5665    5663    5666    5667
    5666    5669    5671    5672    5666    5669    5671    5676
    5667    5666    5669    5671    5667    5666    5669    5670
    5668    5666    5669    5671    5668    5666    5669    5670
    5669    5671    5672    5675    5669    5671    5672    5674
    5669    5671    5672    5673    5669    5671    5676    5678
    5669    5671    5676    5677    5669    5671    5676    5679
    5670    5669    5671    5672    5670    5669    5671    5676
    5671    5676    5679    5681    5671    5676    5679    5680
    5672    5671    5676    5678    5672    5671    5676    5677
    5672    5671    5676    5679    5673    5672    5671    5676
    5674    5672    5671    5676    5675    5672    5671    5676
    5677    5676    5679    5681    5677    5676    5679    5680
    5678    5676    5679    5681    5678    5676    5679    5680
    5682    5688    5691    5694    5682    5688    5691    5693
    5682    5688    5691    5692    5683    5682    5688    5691
    5683    5682    5688    5690    5683    5682    5688    5689
    5683    5682    5684    5687    5683    5682    5684    5686
    5683    5682    5684    5685    5684    5682    5688    5691
    5684    5682    5688    5690    5684    5682    5688    5689
    5685    5684    5682    5688    5686    5684    5682    5688
    5687    5684    5682    5688    5688    5691    5694    5697
    5688    5691    5694    5696    5688    5691    5694    5695
    5689    5688    5691    5694    5689    5688    5691    5693
    5689    5688    5691    5692    5690    5688    5691    5694
    5690    5688    5691    5693    5690    5688    5691    5692
    5691    5694    5697    5703    5691    5694    5697    5699
    5691    5694    5697    5698    5692    5691    5694    5697
    5692    5691    5694    5696    5692    5691    5694    5695
    5693    5691    5694    5697    5693    5691    5694    5696
    5693    5691    5694    5695    5694    5697    5703    5706
    5694    5697    5703    5705    5694    5697    5703    5704
    5694    5697    5699    5702    5694    5697    5699    5701
    5694    5697    5699    5700    5695    5694    5697    5703
    5695    5694    5697    5699    5695    5694    5697    5698
    5696    5694    5697    5703    5696    5694    5697    5699
    5696    5694    5697    5698    5698    5697    5703    5706
    5698    5697    5703    5705    5698    5697    5703    5704
    5698    5697    5699    5702    5698    5697    5699    5701
    5698    5697    5699    5700    5699    5697    5703    5706
    5699    5697    5703    5705    5699    5697    5703    5704
    5700    5699    5697    5703    5701    5699    5697    5703
    5702    5699    5697    5703    5707    5711    5714    5715
    5707    5711    5714    5745    5707    5753    5750    5745
    5707    5753    5750    5752    5707    5753    5750    5751
    5708    5707    5711    5714    5708    5707    5711    5713
    5708    5707    5711    5712    5708    5707    5753    5750
    5708    5707    5753    5755    5708    5707    5753    5754
    5708    5707    5709    5710    5709    5707    5711    5714
    5709    5707    5711    5713    5709    5707    5711    5712
    5709    5707    5753    5750    5709    5707    5753    5755
    5709    5707    5753    5754    5710    5709    5707    5711
    5710    5709    5707    5753    5711    5714    5715    5717
    5711    5714    5715    5716    5711    5714    5745    5743
    5711    5714    5745    5746    5711    5714    5745    5750
    5711    5707    5753    5750    5711    5707    5753    5755
    5711    5707    5753    5754    5712    5711    5714    5715
    5712    5711    5714    5745    5712    5711    5707    5753
    5713    5711    5714    5715    5713    5711    5714    5745
    5713    5711    5707    5753    5714    5715    5717    5720
    5714    5715    5717    5719    5714    5715    5717    5718
    5714    5745    5743    5740    5714    5745    5743    5744
    5714    5745    5743    5720    5714    5745    5746    5749
    5714    5745    5746    5748    5714    5745    5746    5747
    5714    5745    5750    5752    5714    5745    5750    5751
    5714    5745    5750    5753    5714    5711    5707    5753
    5715    5717    5720    5722    5715    5717    5720    5743
    5715    5717    5720    5721    5715    5714    5745    5743
    5715    5714    5745    5746    5715    5714    5745    5750
    5716    5715    5717    5720    5716    5715    5717    5719
    5716    5715    5717    5718    5716    5715    5714    5745
    5717    5720    5722    5724    5717    5720    5722    5732
    5717    5720    5722    5723    5717    5720    5743    5740
    5717    5720    5743    5745    5717    5720    5743    5744
    5717    5715    5714    5745    5718    5717    5720    5722
    5718    5717    5720    5743    5718    5717    5720    5721
    5719    5717    5720    5722    5719    5717    5720    5743
    5719    5717    5720    5721    5720    5722    5724    5727
    5720    5722    5724    5726    5720    5722    5724    5725
    5720    5722    5732    5730    5720    5722    5732    5733
    5720    5722    5732    5737    5720    5743    5740    5742
    5720    5743    5740    5741    5720    5743    5740    5737
    5720    5743    5745    5746    5720    5743    5745    5750
    5721    5720    5722    5724    5721    5720    5722    5732
    5721    5720    5722    5723    5721    5720    5743    5740
    5721    5720    5743    5745    5721    5720    5743    5744
    5722    5724    5727    5730    5722    5724    5727    5729
    5722    5724    5727    5728    5722    5732    5730    5756
    5722    5732    5730    5731    5722    5732    5730    5727
    5722    5732    5733    5736    5722    5732    5733    5735
    5722    5732    5733    5734    5722    5732    5737    5740
    5722    5732    5737    5739    5722    5732    5737    5738
    5722    5720    5743    5740    5722    5720    5743    5745
    5722    5720    5743    5744    5723    5722    5724    5727
    5723    5722    5724    5726    5723    5722    5724    5725
    5723    5722    5732    5730    5723    5722    5732    5733
    5723    5722    5732    5737    5723    5722    5720    5743
    5724    5727    5730    5756    5724    5727    5730    5732
    5724    5727    5730    5731    5724    5722    5732    5730
    5724    5722    5732    5733    5724    5722    5732    5737
    5724    5722    5720    5743    5725    5724    5727    5730
    5725    5724    5727    5729    5725    5724    5727    5728
    5725    5724    5722    5732    5726    5724    5727    5730
    5726    5724    5727    5729    5726    5724    5727    5728
    5726    5724    5722    5732    5727    5730    5756    5762
    5727    5730    5756    5758    5727    5730    5756    5757
    5727    5730    5732    5733    5727    5730    5732    5737
    5727    5724    5722    5732    5728    5727    5730    5756
    5728    5727    5730    5732    5728    5727    5730    5731
    5729    5727    5730    5756    5729    5727    5730    5732
    5729    5727    5730    5731    5730    5756    5762    5765
    5730    5756    5762    5764    5730    5756    5762    5763
    5730    5756    5758    5761    5730    5756    5758    5760
    5730    5756    5758    5759    5730    5732    5733    5736
    5730    5732    5733    5735    5730    5732    5733    5734
    5730    5732    5737    5740    5730    5732    5737    5739
    5730    5732    5737    5738    5731    5730    5756    5762
    5731    5730    5756    5758    5731    5730    5756    5757
    5731    5730    5732    5733    5731    5730    5732    5737
    5732    5730    5756    5762    5732    5730    5756    5758
    5732    5730    5756    5757    5732    5737    5740    5743
    5732    5737    5740    5742    5732    5737    5740    5741
    5732    5722    5720    5743    5733    5732    5730    5756
    5733    5732    5737    5740    5733    5732    5737    5739
    5733    5732    5737    5738    5734    5733    5732    5737
    5735    5733    5732    5737    5736    5733    5732    5737
    5737    5740    5743    5745    5737    5740    5743    5744
    5737    5732    5730    5756    5738    5737    5740    5743
    5738    5737    5740    5742    5738    5737    5740    5741
    5739    5737    5740    5743    5739    5737    5740    5742
    5739    5737    5740    5741    5740    5743    5745    5746
    5740    5743    5745    5750    5741    5740    5743    5745
    5741    5740    5743    5744    5742    5740    5743    5745
    5742    5740    5743    5744    5743    5745    5746    5749
    5743    5745    5746    5748    5743    5745    5746    5747
    5743    5745    5750    5752    5743    5745    5750    5751
    5743    5745    5750    5753    5744    5743    5745    5746
    5744    5743    5745    5750    5745    5750    5753    5755
    5745    5750    5753    5754    5746    5745    5750    5752
    5746    5745    5750    5751    5746    5745    5750    5753
    5747    5746    5745    5750    5748    5746    5745    5750
    5749    5746    5745    5750    5751    5750    5753    5755
    5751    5750    5753    5754    5752    5750    5753    5755
    5752    5750    5753    5754    5756    5762    5765    5768
    5756    5762    5765    5767    5756    5762    5765    5766
    5757    5756    5762    5765    5757    5756    5762    5764
    5757    5756    5762    5763    5757    5756    5758    5761
    5757    5756    5758    5760    5757    5756    5758    5759
    5758    5756    5762    5765    5758    5756    5762    5764
    5758    5756    5762    5763    5759    5758    5756    5762
    5760    5758    5756    5762    5761    5758    5756    5762
    5762    5765    5768    5771    5762    5765    5768    5770
    5762    5765    5768    5769    5763    5762    5765    5768
    5763    5762    5765    5767    5763    5762    5765    5766
    5764    5762    5765    5768    5764    5762    5765    5767
    5764    5762    5765    5766    5765    5768    5771    5777
    5765    5768    5771    5773    5765    5768    5771    5772
    5766    5765    5768    5771    5766    5765    5768    5770
    5766    5765    5768    5769    5767    5765    5768    5771
    5767    5765    5768    5770    5767    5765    5768    5769
    5768    5771    5777    5780    5768    5771    5777    5779
    5768    5771    5777    5778    5768    5771    5773    5776
    5768    5771    5773    5775    5768    5771    5773    5774
    5769    5768    5771    5777    5769    5768    5771    5773
    5769    5768    5771    5772    5770    5768    5771    5777
    5770    5768    5771    5773    5770    5768    5771    5772
    5772    5771    5777    5780    5772    5771    5777    5779
    5772    5771    5777    5778    5772    5771    5773    5776
    5772    5771    5773    5775    5772    5771    5773    5774
    5773    5771    5777    5780    5773    5771    5777    5779
    5773    5771    5777    5778    5774    5773    5771    5777
    5775    5773    5771    5777    5776    5773    5771    5777
    5781    5785    5788    5789    5781    5785    5788    5819
    5781    5827    5824    5819    5781    5827    5824    5826
    5781    5827    5824    5825    5782    5781    5785    5788
    5782    5781    5785    5787    5782    5781    5785    5786
    5782    5781    5827    5824    5782    5781    5827    5829
    5782    5781    5827    5828    5782    5781    5783    5784
    5783    5781    5785    5788    5783    5781    5785    5787
    5783    5781    5785    5786    5783    5781    5827    5824
    5783    5781    5827    5829    5783    5781    5827    5828
    5784    5783    5781    5785    5784    5783    5781    5827
    5785    5788    5789    5791    5785    5788    5789    5790
    5785    5788    5819    5817    5785    5788    5819    5820
    5785    5788    5819    5824    5785    5781    5827    5824
    5785    5781    5827    5829    5785    5781    5827    5828
    5786    5785    5788    5789    5786    5785    5788    5819
    5786    5785    5781    5827    5787    5785    5788    5789
    5787    5785    5788    5819    5787    5785    5781    5827
    5788    5789    5791    5794    5788    5789    5791    5793
    5788    5789    5791    5792    5788    5819    5817    5814
    5788    5819    5817    5818    5788    5819    5817    5794
    5788    5819    5820    5823    5788    5819    5820    5822
    5788    5819    5820    5821    5788    5819    5824    5826
    5788    5819    5824    5825    5788    5819    5824    5827
    5788    5785    5781    5827    5789    5791    5794    5796
    5789    5791    5794    5817    5789    5791    5794    5795
    5789    5788    5819    5817    5789    5788    5819    5820
    5789    5788    5819    5824    5790    5789    5791    5794
    5790    5789    5791    5793    5790    5789    5791    5792
    5790    5789    5788    5819    5791    5794    5796    5798
    5791    5794    5796    5806    5791    5794    5796    5797
    5791    5794    5817    5814    5791    5794    5817    5819
    5791    5794    5817    5818    5791    5789    5788    5819
    5792    5791    5794    5796    5792    5791    5794    5817
    5792    5791    5794    5795    5793    5791    5794    5796
    5793    5791    5794    5817    5793    5791    5794    5795
    5794    5796    5798    5801    5794    5796    5798    5800
    5794    5796    5798    5799    5794    5796    5806    5804
    5794    5796    5806    5807    5794    5796    5806    5811
    5794    5817    5814    5816    5794    5817    5814    5815
    5794    5817    5814    5811    5794    5817    5819    5820
    5794    5817    5819    5824    5795    5794    5796    5798
    5795    5794    5796    5806    5795    5794    5796    5797
    5795    5794    5817    5814    5795    5794    5817    5819
    5795    5794    5817    5818    5796    5798    5801    5804
    5796    5798    5801    5803    5796    5798    5801    5802
    5796    5806    5804    5830    5796    5806    5804    5805
    5796    5806    5804    5801    5796    5806    5807    5810
    5796    5806    5807    5809    5796    5806    5807    5808
    5796    5806    5811    5814    5796    5806    5811    5813
    5796    5806    5811    5812    5796    5794    5817    5814
    5796    5794    5817    5819    5796    5794    5817    5818
    5797    5796    5798    5801    5797    5796    5798    5800
    5797    5796    5798    5799    5797    5796    5806    5804
    5797    5796    5806    5807    5797    5796    5806    5811
    5797    5796    5794    5817    5798    5801    5804    5830
    5798    5801    5804    5806    5798    5801    5804    5805
    5798    5796    5806    5804    5798    5796    5806    5807
    5798    5796    5806    5811    5798    5796    5794    5817
    5799    5798    5801    5804    5799    5798    5801    5803
    5799    5798    5801    5802    5799    5798    5796    5806
    5800    5798    5801    5804    5800    5798    5801    5803
    5800    5798    5801    5802    5800    5798    5796    5806
    5801    5804    5830    5836    5801    5804    5830    5832
    5801    5804    5830    5831    5801    5804    5806    5807
    5801    5804    5806    5811    5801    5798    5796    5806
    5802    5801    5804    5830    5802    5801    5804    5806
    5802    5801    5804    5805    5803    5801    5804    5830
    5803    5801    5804    5806    5803    5801    5804    5805
    5804    5830    5836    5839    5804    5830    5836    5838
    5804    5830    5836    5837    5804    5830    5832    5835
    5804    5830    5832    5834    5804    5830    5832    5833
    5804    5806    5807    5810    5804    5806    5807    5809
    5804    5806    5807    5808    5804    5806    5811    5814
    5804    5806    5811    5813    5804    5806    5811    5812
    5805    5804    5830    5836    5805    5804    5830    5832
    5805    5804    5830    5831    5805    5804    5806    5807
    5805    5804    5806    5811    5806    5804    5830    5836
    5806    5804    5830    5832    5806    5804    5830    5831
    5806    5811    5814    5817    5806    5811    5814    5816
    5806    5811    5814    5815    5806    5796    5794    5817
    5807    5806    5804    5830    5807    5806    5811    5814
    5807    5806    5811    5813    5807    5806    5811    5812
    5808    5807    5806    5811    5809    5807    5806    5811
    5810    5807    5806    5811    5811    5814    5817    5819
    5811    5814    5817    5818    5811    5806    5804    5830
    5812    5811    5814    5817    5812    5811    5814    5816
    5812    5811    5814    5815    5813    5811    5814    5817
    5813    5811    5814    5816    5813    5811    5814    5815
    5814    5817    5819    5820    5814    5817    5819    5824
    5815    5814    5817    5819    5815    5814    5817    5818
    5816    5814    5817    5819    5816    5814    5817    5818
    5817    5819    5820    5823    5817    5819    5820    5822
    5817    5819    5820    5821    5817    5819    5824    5826
    5817    5819    5824    5825    5817    5819    5824    5827
    5818    5817    5819    5820    5818    5817    5819    5824
    5819    5824    5827    5829    5819    5824    5827    5828
    5820    5819    5824    5826    5820    5819    5824    5825
    5820    5819    5824    5827    5821    5820    5819    5824
    5822    5820    5819    5824    5823    5820    5819    5824
    5825    5824    5827    5829    5825    5824    5827    5828
    5826    5824    5827    5829    5826    5824    5827    5828
    5830    5836    5839    5842    5830    5836    5839    5841
    5830    5836    5839    5840    5831    5830    5836    5839
    5831    5830    5836    5838    5831    5830    5836    5837
    5831    5830    5832    5835    5831    5830    5832    5834
    5831    5830    5832    5833    5832    5830    5836    5839
    5832    5830    5836    5838    5832    5830    5836    5837
    5833    5832    5830    5836    5834    5832    5830    5836
    5835    5832    5830    5836    5836    5839    5842    5845
    5836    5839    5842    5844    5836    5839    5842    5843
    5837    5836    5839    5842    5837    5836    5839    5841
    5837    5836    5839    5840    5838    5836    5839    5842
    5838    5836    5839    5841    5838    5836    5839    5840
    5839    5842    5845    5851    5839    5842    5845    5847
    5839    5842    5845    5846    5840    5839    5842    5845
    5840    5839    5842    5844    5840    5839    5842    5843
    5841    5839    5842    5845    5841    5839    5842    5844
    5841    5839    5842    5843    5842    5845    5851    5854
    5842    5845    5851    5853    5842    5845    5851    5852
    5842    5845    5847    5850    5842    5845    5847    5849
    5842    5845    5847    5848    5843    5842    5845    5851
    5843    5842    5845    5847    5843    5842    5845    5846
    5844    5842    5845    5851    5844    5842    5845    5847
    5844    5842    5845    5846    5846    5845    5851    5854
    5846    5845    5851    5853    5846    5845    5851    5852
    5846    5845    5847    5850    5846    5845    5847    5849
    5846    5845    5847    5848    5847    5845    5851    5854
    5847    5845    5851    5853    5847    5845    5851    5852
    5848    5847    5845    5851    5849    5847    5845    5851
    5850    5847    5845    5851    5855    5859    5864    5870
    5855    5859    5864    5866    5855    5859    5864    5865
    5855    5859    5861    5862    5855    5859    5861    5863
    5856    5855    5859    5864    5856    5855    5859    5860
    5856    5855    5859    5861    5857    5855    5859    5864
    5857    5855    5859    5860    5857    5855    5859    5861
    5858    5855    5859    5864    5858    5855    5859    5860
    5858    5855    5859    5861    5859    5864    5870    5867
    5860    5859    5864    5870    5860    5859    5864    5866
    5860    5859    5864    5865    5860    5859    5861    5862
    5860    5859    5861    5863    5861    5859    5864    5870
    5861    5859    5864    5866    5861    5859    5864    5865
    5862    5861    5859    5864    5863    5861    5859    5864
    5864    5870    5867    5869    5864    5870    5867    5868
    5864    5870    5867    5871    5865    5864    5870    5867
    5866    5864    5870    5867    5867    5871    5872    5875
    5867    5871    5872    5874    5867    5871    5872    5873
    5868    5867    5871    5872    5869    5867    5871    5872
    5870    5867    5871    5872    5871    5872    5875    5877
    5871    5872    5875    5883    5871    5872    5875    5876
    5872    5875    5877    5878    5872    5875    5883    5886
    5872    5875    5883    5885    5872    5875    5883    5884
    5873    5872    5875    5877    5873    5872    5875    5883
    5873    5872    5875    5876    5874    5872    5875    5877
    5874    5872    5875    5883    5874    5872    5875    5876
    5875    5877    5878    5879    5875    5877    5878    5880
    5875    5883    5886    5887    5876    5875    5877    5878
    5876    5875    5883    5886    5876    5875    5883    5885
    5876    5875    5883    5884    5877    5878    5880    5892
    5877    5878    5880    5882    5877    5878    5880    5881
    5877    5875    5883    5886    5877    5875    5883    5885
    5877    5875    5883    5884    5878    5880    5892    5895
    5878    5880    5892    5894    5878    5880    5892    5893
    5878    5877    5875    5883    5879    5878    5880    5892
    5879    5878    5880    5882    5879    5878    5880    5881
    5880    5892    5895    5898    5880    5892    5895    5897
    5880    5892    5895    5896    5881    5880    5892    5895
    5881    5880    5892    5894    5881    5880    5892    5893
    5882    5880    5892    5895    5882    5880    5892    5894
    5882    5880    5892    5893    5883    5886    5887    5888
    5883    5886    5887    5889    5884    5883    5886    5887
    5885    5883    5886    5887    5886    5887    5889    5905
    5886    5887    5889    5891    5886    5887    5889    5890
    5887    5889    5905    5908    5887    5889    5905    5907
    5887    5889    5905    5906    5888    5887    5889    5905
    5888    5887    5889    5891    5888    5887    5889    5890
    5889    5905    5908    5911    5889    5905    5908    5910
    5889    5905    5908    5909    5890    5889    5905    5908
    5890    5889    5905    5907    5890    5889    5905    5906
    5891    5889    5905    5908    5891    5889    5905    5907
    5891    5889    5905    5906    5892    5895    5898    5901
    5892    5895    5898    5900    5892    5895    5898    5899
    5893    5892    5895    5898    5893    5892    5895    5897
    5893    5892    5895    5896    5894    5892    5895    5898
    5894    5892    5895    5897    5894    5892    5895    5896
    5895    5898    5901    5903    5895    5898    5901    5902
    5895    5898    5901    5904    5896    5895    5898    5901
    5896    5895    5898    5900    5896    5895    5898    5899
    5897    5895    5898    5901    5897    5895    5898    5900
    5897    5895    5898    5899    5899    5898    5901    5903
    5899    5898    5901    5902    5899    5898    5901    5904
    5900    5898    5901    5903    5900    5898    5901    5902
    5900    5898    5901    5904    5905    5908    5911    5914
    5905    5908    5911    5913    5905    5908    5911    5912
    5906    5905    5908    5911    5906    5905    5908    5910
    5906    5905    5908    5909    5907    5905    5908    5911
    5907    5905    5908    5910    5907    5905    5908    5909
    5908    5911    5914    5916    5908    5911    5914    5915
    5908    5911    5914    5917    5909    5908    5911    5914
    5909    5908    5911    5913    5909    5908    5911    5912
    5910    5908    5911    5914    5910    5908    5911    5913
    5910    5908    5911    5912    5912    5911    5914    5916
    5912    5911    5914    5915    5912    5911    5914    5917
    5913    5911    5914    5916    5913    5911    5914    5915
    5913    5911    5914    5917    5918    5931    5934    5936
    5918    5931    5934    5935    5918    5931    5934    5941
    5919    5918    5923    5926    5919    5918    5923    5925
    5919    5918    5923    5924    5919    5918    5927    5930
    5919    5918    5927    5929    5919    5918    5927    5928
    5919    5918    5931    5933    5919    5918    5931    5932
    5919    5918    5931    5934    5920    5919    5918    5923
    5920    5919    5918    5927    5920    5919    5918    5931
    5921    5919    5918    5923    5921    5919    5918    5927
    5921    5919    5918    5931    5922    5919    5918    5923
    5922    5919    5918    5927    5922    5919    5918    5931
    5923    5918    5927    5930    5923    5918    5927    5929
    5923    5918    5927    5928    5923    5918    5931    5933
    5923    5918    5931    5932    5923    5918    5931    5934
    5924    5923    5918    5927    5924    5923    5918    5931
    5925    5923    5918    5927    5925    5923    5918    5931
    5926    5923    5918    5927    5926    5923    5918    5931
    5927    5918    5931    5933    5927    5918    5931    5932
    5927    5918    5931    5934    5928    5927    5918    5931
    5929    5927    5918    5931    5930    5927    5918    5931
    5931    5934    5941    5937    5932    5931    5934    5936
    5932    5931    5934    5935    5932    5931    5934    5941
    5933    5931    5934    5936    5933    5931    5934    5935
    5933    5931    5934    5941    5934    5941    5937    5939
    5934    5941    5937    5938    5934    5941    5937    5940
    5935    5934    5941    5937    5936    5934    5941    5937
    5937    5940    5942    5944    5937    5940    5942    5943
    5937    5940    5942    5947    5938    5937    5940    5942
    5939    5937    5940    5942    5940    5942    5947    5945
    5940    5942    5947    5948    5940    5942    5947    5949
    5941    5937    5940    5942    5942    5947    5945    5961
    5942    5947    5945    5946    5942    5947    5949    5951
    5942    5947    5949    5950    5942    5947    5949    5953
    5943    5942    5947    5945    5943    5942    5947    5948
    5943    5942    5947    5949    5944    5942    5947    5945
    5944    5942    5947    5948    5944    5942    5947    5949
    5945    5961    5963    5966    5945    5961    5963    5965
    5945    5961    5963    5964    5945    5947    5949    5951
    5945    5947    5949    5950    5945    5947    5949    5953
    5946    5945    5961    5962    5946    5945    5961    5963
    5946    5945    5947    5948    5946    5945    5947    5949
    5947    5945    5961    5962    5947    5945    5961    5963
    5947    5949    5951    5952    5947    5949    5953    5955
    5947    5949    5953    5954    5948    5947    5945    5961
    5948    5947    5949    5951    5948    5947    5949    5950
    5948    5947    5949    5953    5949    5947    5945    5961
    5949    5953    5955    5956    5949    5953    5955    5957
    5950    5949    5951    5952    5950    5949    5953    5955
    5950    5949    5953    5954    5951    5949    5953    5955
    5951    5949    5953    5954    5952    5951    5949    5953
    5953    5955    5957    5959    5953    5955    5957    5958
    5953    5955    5957    5960    5954    5953    5955    5956
    5954    5953    5955    5957    5956    5955    5957    5959
    5956    5955    5957    5958    5956    5955    5957    5960
    5961    5963    5966    5969    5961    5963    5966    5968
    5961    5963    5966    5967    5962    5961    5963    5966
    5962    5961    5963    5965    5962    5961    5963    5964
    5963    5966    5969    5972    5963    5966    5969    5971
    5963    5966    5969    5970    5964    5963    5966    5969
    5964    5963    5966    5968    5964    5963    5966    5967
    5965    5963    5966    5969    5965    5963    5966    5968
    5965    5963    5966    5967    5966    5969    5972    5975
    5966    5969    5972    5974    5966    5969    5972    5973
    5967    5966    5969    5972    5967    5966    5969    5971
    5967    5966    5969    5970    5968    5966    5969    5972
    5968    5966    5969    5971    5968    5966    5969    5970
    5969    5972    5975    5977    5969    5972    5975    5976
    5969    5972    5975    5978    5970    5969    5972    5975
    5970    5969    5972    5974    5970    5969    5972    5973
    5971    5969    5972    5975    5971    5969    5972    5974
    5971    5969    5972    5973    5973    5972    5975    5977
    5973    5972    5975    5976    5973    5972    5975    5978
    5974    5972    5975    5977    5974    5972    5975    5976
    5974    5972    5975    5978    5979    5983    5988    5994
    5979    5983    5988    5990    5979    5983    5988    5989
    5979    5983    5985    5986    5979    5983    5985    5987
    5980    5979    5983    5988    5980    5979    5983    5984
    5980    5979    5983    5985    5981    5979    5983    5988
    5981    5979    5983    5984    5981    5979    5983    5985
    5982    5979    5983    5988    5982    5979    5983    5984
    5982    5979    5983    5985    5983    5988    5994    5991
    5984    5983    5988    5994    5984    5983    5988    5990
    5984    5983    5988    5989    5984    5983    5985    5986
    5984    5983    5985    5987    5985    5983    5988    5994
    5985    5983    5988    5990    5985    5983    5988    5989
    5986    5985    5983    5988    5987    5985    5983    5988
    5988    5994    5991    5993    5988    5994    5991    5992
    5988    5994    5991    5995    5989    5988    5994    5991
    5990    5988    5994    5991    5991    5995    5996    5999
    5991    5995    5996    5998    5991    5995    5996    5997
    5992    5991    5995    5996    5993    5991    5995    5996
    5994    5991    5995    5996    5995    5996    5999    6001
    5995    5996    5999    6007    5995    5996    5999    6000
    5996    5999    6001    6002    5996    5999    6007    6010
    5996    5999    6007    6009    5996    5999    6007    6008
    5997    5996    5999    6001    5997    5996    5999    6007
    5997    5996    5999    6000    5998    5996    5999    6001
    5998    5996    5999    6007    5998    5996    5999    6000
    5999    6001    6002    6003    5999    6001    6002    6004
    5999    6007    6010    6011    6000    5999    6001    6002
    6000    5999    6007    6010    6000    5999    6007    6009
    6000    5999    6007    6008    6001    6002    6004    6016
    6001    6002    6004    6006    6001    6002    6004    6005
    6001    5999    6007    6010    6001    5999    6007    6009
    6001    5999    6007    6008    6002    6004    6016    6019
    6002    6004    6016    6018    6002    6004    6016    6017
    6002    6001    5999    6007    6003    6002    6004    6016
    6003    6002    6004    6006    6003    6002    6004    6005
    6004    6016    6019    6022    6004    6016    6019    6021
    6004    6016    6019    6020    6005    6004    6016    6019
    6005    6004    6016    6018    6005    6004    6016    6017
    6006    6004    6016    6019    6006    6004    6016    6018
    6006    6004    6016    6017    6007    6010    6011    6012
    6007    6010    6011    6013    6008    6007    6010    6011
    6009    6007    6010    6011    6010    6011    6013    6029
    6010    6011    6013    6015    6010    6011    6013    6014
    6011    6013    6029    6032    6011    6013    6029    6031
    6011    6013    6029    6030    6012    6011    6013    6029
    6012    6011    6013    6015    6012    6011    6013    6014
    6013    6029    6032    6035    6013    6029    6032    6034
    6013    6029    6032    6033    6014    6013    6029    6032
    6014    6013    6029    6031    6014    6013    6029    6030
    6015    6013    6029    6032    6015    6013    6029    6031
    6015    6013    6029    6030    6016    6019    6022    6025
    6016    6019    6022    6024    6016    6019    6022    6023
    6017    6016    6019    6022    6017    6016    6019    6021
    6017    6016    6019    6020    6018    6016    6019    6022
    6018    6016    6019    6021    6018    6016    6019    6020
    6019    6022    6025    6027    6019    6022    6025    6026
    6019    6022    6025    6028    6020    6019    6022    6025
    6020    6019    6022    6024    6020    6019    6022    6023
    6021    6019    6022    6025    6021    6019    6022    6024
    6021    6019    6022    6023    6023    6022    6025    6027
    6023    6022    6025    6026    6023    6022    6025    6028
    6024    6022    6025    6027    6024    6022    6025    6026
    6024    6022    6025    6028    6029    6032    6035    6038
    6029    6032    6035    6037    6029    6032    6035    6036
    6030    6029    6032    6035    6030    6029    6032    6034
    6030    6029    6032    6033    6031    6029    6032    6035
    6031    6029    6032    6034    6031    6029    6032    6033
    6032    6035    6038    6040    6032    6035    6038    6039
    6032    6035    6038    6041    6033    6032    6035    6038
    6033    6032    6035    6037    6033    6032    6035    6036
    6034    6032    6035    6038    6034    6032    6035    6037
    6034    6032    6035    6036    6036    6035    6038    6040
    6036    6035    6038    6039    6036    6035    6038    6041
    6037    6035    6038    6040    6037    6035    6038    6039
    6037    6035    6038    6041    6042    6046    6051    6057
    6042    6046    6051    6053    6042    6046    6051    6052
    6042    6046    6048    6049    6042    6046    6048    6050
    6043    6042    6046    6051    6043    6042    6046    6047
    6043    6042    6046    6048    6044    6042    6046    6051
    6044    6042    6046    6047    6044    6042    6046    6048
    6045    6042    6046    6051    6045    6042    6046    6047
    6045    6042    6046    6048    6046    6051    6057    6054
    6047    6046    6051    6057    6047    6046    6051    6053
    6047    6046    6051    6052    6047    6046    6048    6049
    6047    6046    6048    6050    6048    6046    6051    6057
    6048    6046    6051    6053    6048    6046    6051    6052
    6049    6048    6046    6051    6050    6048    6046    6051
    6051    6057    6054    6056    6051    6057    6054    6055
    6051    6057    6054    6058    6052    6051    6057    6054
    6053    6051    6057    6054    6054    6058    6059    6062
    6054    6058    6059    6061    6054    6058    6059    6060
    6055    6054    6058    6059    6056    6054    6058    6059
    6057    6054    6058    6059    6058    6059    6062    6064
    6058    6059    6062    6070    6058    6059    6062    6063
    6059    6062    6064    6065    6059    6062    6070    6073
    6059    6062    6070    6072    6059    6062    6070    6071
    6060    6059    6062    6064    6060    6059    6062    6070
    6060    6059    6062    6063    6061    6059    6062    6064
    6061    6059    6062    6070    6061    6059    6062    6063
    6062    6064    6065    6066    6062    6064    6065    6067
    6062    6070    6073    6074    6063    6062    6064    6065
    6063    6062    6070    6073    6063    6062    6070    6072
    6063    6062    6070    6071    6064    6065    6067    6079
    6064    6065    6067    6069    6064    6065    6067    6068
    6064    6062    6070    6073    6064    6062    6070    6072
    6064    6062    6070    6071    6065    6067    6079    6082
    6065    6067    6079    6081    6065    6067    6079    6080
    6065    6064    6062    6070    6066    6065    6067    6079
    6066    6065    6067    6069    6066    6065    6067    6068
    6067    6079    6082    6085    6067    6079    6082    6084
    6067    6079    6082    6083    6068    6067    6079    6082
    6068    6067    6079    6081    6068    6067    6079    6080
    6069    6067    6079    6082    6069    6067    6079    6081
    6069    6067    6079    6080    6070    6073    6074    6075
    6070    6073    6074    6076    6071    6070    6073    6074
    6072    6070    6073    6074    6073    6074    6076    6092
    6073    6074    6076    6078    6073    6074    6076    6077
    6074    6076    6092    6095    6074    6076    6092    6094
    6074    6076    6092    6093    6075    6074    6076    6092
    6075    6074    6076    6078    6075    6074    6076    6077
    6076    6092    6095    6098    6076    6092    6095    6097
    6076    6092    6095    6096    6077    6076    6092    6095
    6077    6076    6092    6094    6077    6076    6092    6093
    6078    6076    6092    6095    6078    6076    6092    6094
    6078    6076    6092    6093    6079    6082    6085    6088
    6079    6082    6085    6087    6079    6082    6085    6086
    6080    6079    6082    6085    6080    6079    6082    6084
    6080    6079    6082    6083    6081    6079    6082    6085
    6081    6079    6082    6084    6081    6079    6082    6083
    6082    6085    6088    6090    6082    6085    6088    6089
    6082    6085    6088    6091    6083    6082    6085    6088
    6083    6082    6085    6087    6083    6082    6085    6086
    6084    6082    6085    6088    6084    6082    6085    6087
    6084    6082    6085    6086    6086    6085    6088    6090
    6086    6085    6088    6089    6086    6085    6088    6091
    6087    6085    6088    6090    6087    6085    6088    6089
    6087    6085    6088    6091    6092    6095    6098    6101
    6092    6095    6098    6100    6092    6095    6098    6099
    6093    6092    6095    6098    6093    6092    6095    6097
    6093    6092    6095    6096    6094    6092    6095    6098
    6094    6092    6095    6097    6094    6092    6095    6096
    6095    6098    6101    6103    6095    6098    6101    6102
    6095    6098    6101    6104    6096    6095    6098    6101
    6096    6095    6098    6100    6096    6095    6098    6099
    6097    6095    6098    6101    6097    6095    6098    6100
    6097    6095    6098    6099    6099    6098    6101    6103
    6099    6098    6101    6102    6099    6098    6101    6104
    6100    6098    6101    6103    6100    6098    6101    6102
    6100    6098    6101    6104    6105    6106    6121    6127
    6105    6106    6121    6123    6105    6106    6121    6122
    6106    6121    6127    6124    6106    6105    6117    6120
    6106    6105    6117    6119    6106    6105    6117    6118
    6106    6105    6113    6116    6106    6105    6113    6115
    6106    6105    6113    6114    6106    6105    6109    6112
    6106    6105    6109    6111    6106    6105    6109    6110
    6107    6106    6121    6127    6107    6106    6121    6123
    6107    6106    6121    6122    6107    6106    6105    6117
    6107    6106    6105    6113    6107    6106    6105    6109
    6108    6106    6121    6127    6108    6106    6121    6123
    6108    6106    6121    6122    6108    6106    6105    6117
    6108    6106    6105    6113    6108    6106    6105    6109
    6109    6105    6106    6121    6109    6105    6117    6120
    6109    6105    6117    6119    6109    6105    6117    6118
    6109    6105    6113    6116    6109    6105    6113    6115
    6109    6105    6113    6114    6110    6109    6105    6117
    6110    6109    6105    6113    6111    6109    6105    6117
    6111    6109    6105    6113    6112    6109    6105    6117
    6112    6109    6105    6113    6113    6105    6106    6121
    6113    6105    6117    6120    6113    6105    6117    6119
    6113    6105    6117    6118    6114    6113    6105    6117
    6115    6113    6105    6117    6116    6113    6105    6117
    6117    6105    6106    6121    6121    6127    6124    6126
    6121    6127    6124    6125    6121    6127    6124    6128
    6122    6121    6127    6124    6123    6121    6127    6124
    6124    6128    6129    6132    6124    6128    6129    6131
    6124    6128    6129    6130    6125    6124    6128    6129
    6126    6124    6128    6129    6127    6124    6128    6129
    6128    6129    6132    6134    6128    6129    6132    6140
    6128    6129    6132    6133    6129    6132    6134    6135
    6129    6132    6140    6143    6129    6132    6140    6142
    6129    6132    6140    6141    6130    6129    6132    6134
    6130    6129    6132    6140    6130    6129    6132    6133
    6131    6129    6132    6134    6131    6129    6132    6140
    6131    6129    6132    6133    6132    6134    6135    6136
    6132    6134    6135    6137    6132    6140    6143    6144
    6133    6132    6134    6135    6133    6132    6140    6143
    6133    6132    6140    6142    6133    6132    6140    6141
    6134    6135    6137    6149    6134    6135    6137    6139
    6134    6135    6137    6138    6134    6132    6140    6143
    6134    6132    6140    6142    6134    6132    6140    6141
    6135    6137    6149    6152    6135    6137    6149    6151
    6135    6137    6149    6150    6135    6134    6132    6140
    6136    6135    6137    6149    6136    6135    6137    6139
    6136    6135    6137    6138    6137    6149    6152    6155
    6137    6149    6152    6154    6137    6149    6152    6153
    6138    6137    6149    6152    6138    6137    6149    6151
    6138    6137    6149    6150    6139    6137    6149    6152
    6139    6137    6149    6151    6139    6137    6149    6150
    6140    6143    6144    6145    6140    6143    6144    6146
    6141    6140    6143    6144    6142    6140    6143    6144
    6143    6144    6146    6162    6143    6144    6146    6148
    6143    6144    6146    6147    6144    6146    6162    6165
    6144    6146    6162    6164    6144    6146    6162    6163
    6145    6144    6146    6162    6145    6144    6146    6148
    6145    6144    6146    6147    6146    6162    6165    6168
    6146    6162    6165    6167    6146    6162    6165    6166
    6147    6146    6162    6165    6147    6146    6162    6164
    6147    6146    6162    6163    6148    6146    6162    6165
    6148    6146    6162    6164    6148    6146    6162    6163
    6149    6152    6155    6158    6149    6152    6155    6157
    6149    6152    6155    6156    6150    6149    6152    6155
    6150    6149    6152    6154    6150    6149    6152    6153
    6151    6149    6152    6155    6151    6149    6152    6154
    6151    6149    6152    6153    6152    6155    6158    6160
    6152    6155    6158    6159    6152    6155    6158    6161
    6153    6152    6155    6158    6153    6152    6155    6157
    6153    6152    6155    6156    6154    6152    6155    6158
    6154    6152    6155    6157    6154    6152    6155    6156
    6156    6155    6158    6160    6156    6155    6158    6159
    6156    6155    6158    6161    6157    6155    6158    6160
    6157    6155    6158    6159    6157    6155    6158    6161
    6162    6165    6168    6171    6162    6165    6168    6170
    6162    6165    6168    6169    6163    6162    6165    6168
    6163    6162    6165    6167    6163    6162    6165    6166
    6164    6162    6165    6168    6164    6162    6165    6167
    6164    6162    6165    6166    6165    6168    6171    6173
    6165    6168    6171    6172    6165    6168    6171    6174
    6166    6165    6168    6171    6166    6165    6168    6170
    6166    6165    6168    6169    6167    6165    6168    6171
    6167    6165    6168    6170    6167    6165    6168    6169
    6169    6168    6171    6173    6169    6168    6171    6172
    6169    6168    6171    6174    6170    6168    6171    6173
    6170    6168    6171    6172    6170    6168    6171    6174
    6175    6188    6191    6193    6175    6188    6191    6192
    6175    6188    6191    6198    6176    6175    6180    6183
    6176    6175    6180    6182    6176    6175    6180    6181
    6176    6175    6184    6187    6176    6175    6184    6186
    6176    6175    6184    6185    6176    6175    6188    6190
    6176    6175    6188    6189    6176    6175    6188    6191
    6177    6176    6175    6180    6177    6176    6175    6184
    6177    6176    6175    6188    6178    6176    6175    6180
    6178    6176    6175    6184    6178    6176    6175    6188
    6179    6176    6175    6180    6179    6176    6175    6184
    6179    6176    6175    6188    6180    6175    6184    6187
    6180    6175    6184    6186    6180    6175    6184    6185
    6180    6175    6188    6190    6180    6175    6188    6189
    6180    6175    6188    6191    6181    6180    6175    6184
    6181    6180    6175    6188    6182    6180    6175    6184
    6182    6180    6175    6188    6183    6180    6175    6184
    6183    6180    6175    6188    6184    6175    6188    6190
    6184    6175    6188    6189    6184    6175    6188    6191
    6185    6184    6175    6188    6186    6184    6175    6188
    6187    6184    6175    6188    6188    6191    6198    6194
    6189    6188    6191    6193    6189    6188    6191    6192
    6189    6188    6191    6198    6190    6188    6191    6193
    6190    6188    6191    6192    6190    6188    6191    6198
    6191    6198    6194    6196    6191    6198    6194    6195
    6191    6198    6194    6197    6192    6191    6198    6194
    6193    6191    6198    6194    6194    6197    6199    6201
    6194    6197    6199    6200    6194    6197    6199    6204
    6195    6194    6197    6199    6196    6194    6197    6199
    6197    6199    6204    6202    6197    6199    6204    6205
    6197    6199    6204    6206    6198    6194    6197    6199
    6199    6204    6202    6218    6199    6204    6202    6203
    6199    6204    6206    6208    6199    6204    6206    6207
    6199    6204    6206    6210    6200    6199    6204    6202
    6200    6199    6204    6205    6200    6199    6204    6206
    6201    6199    6204    6202    6201    6199    6204    6205
    6201    6199    6204    6206    6202    6218    6220    6223
    6202    6218    6220    6222    6202    6218    6220    6221
    6202    6204    6206    6208    6202    6204    6206    6207
    6202    6204    6206    6210    6203    6202    6218    6219
    6203    6202    6218    6220    6203    6202    6204    6205
    6203    6202    6204    6206    6204    6202    6218    6219
    6204    6202    6218    6220    6204    6206    6208    6209
    6204    6206    6210    6212    6204    6206    6210    6211
    6205    6204    6202    6218    6205    6204    6206    6208
    6205    6204    6206    6207    6205    6204    6206    6210
    6206    6204    6202    6218    6206    6210    6212    6213
    6206    6210    6212    6214    6207    6206    6208    6209
    6207    6206    6210    6212    6207    6206    6210    6211
    6208    6206    6210    6212    6208    6206    6210    6211
    6209    6208    6206    6210    6210    6212    6214    6216
    6210    6212    6214    6215    6210    6212    6214    6217
    6211    6210    6212    6213    6211    6210    6212    6214
    6213    6212    6214    6216    6213    6212    6214    6215
    6213    6212    6214    6217    6218    6220    6223    6226
    6218    6220    6223    6225    6218    6220    6223    6224
    6219    6218    6220    6223    6219    6218    6220    6222
    6219    6218    6220    6221    6220    6223    6226    6229
    6220    6223    6226    6228    6220    6223    6226    6227
    6221    6220    6223    6226    6221    6220    6223    6225
    6221    6220    6223    6224    6222    6220    6223    6226
    6222    6220    6223    6225    6222    6220    6223    6224
    6223    6226    6229    6232    6223    6226    6229    6231
    6223    6226    6229    6230    6224    6223    6226    6229
    6224    6223    6226    6228    6224    6223    6226    6227
    6225    6223    6226    6229    6225    6223    6226    6228
    6225    6223    6226    6227    6226    6229    6232    6234
    6226    6229    6232    6233    6226    6229    6232    6235
    6227    6226    6229    6232    6227    6226    6229    6231
    6227    6226    6229    6230    6228    6226    6229    6232
    6228    6226    6229    6231    6228    6226    6229    6230
    6230    6229    6232    6234    6230    6229    6232    6233
    6230    6229    6232    6235    6231    6229    6232    6234
    6231    6229    6232    6233    6231    6229    6232    6235
    6236    6237    6252    6258    6236    6237    6252    6254
    6236    6237    6252    6253    6237    6252    6258    6255
    6237    6236    6248    6251    6237    6236    6248    6250
    6237    6236    6248    6249    6237    6236    6244    6247
    6237    6236    6244    6246    6237    6236    6244    6245
    6237    6236    6240    6243    6237    6236    6240    6242
    6237    6236    6240    6241    6238    6237    6252    6258
    6238    6237    6252    6254    6238    6237    6252    6253
    6238    6237    6236    6248    6238    6237    6236    6244
    6238    6237    6236    6240    6239    6237    6252    6258
    6239    6237    6252    6254    6239    6237    6252    6253
    6239    6237    6236    6248    6239    6237    6236    6244
    6239    6237    6236    6240    6240    6236    6237    6252
    6240    6236    6248    6251    6240    6236    6248    6250
    6240    6236    6248    6249    6240    6236    6244    6247
    6240    6236    6244    6246    6240    6236    6244    6245
    6241    6240    6236    6248    6241    6240    6236    6244
    6242    6240    6236    6248    6242    6240    6236    6244
    6243    6240    6236    6248    6243    6240    6236    6244
    6244    6236    6237    6252    6244    6236    6248    6251
    6244    6236    6248    6250    6244    6236    6248    6249
    6245    6244    6236    6248    6246    6244    6236    6248
    6247    6244    6236    6248    6248    6236    6237    6252
    6252    6258    6255    6257    6252    6258    6255    6256
    6252    6258    6255    6259    6253    6252    6258    6255
    6254    6252    6258    6255    6255    6259    6260    6263
    6255    6259    6260    6262    6255    6259    6260    6261
    6256    6255    6259    6260    6257    6255    6259    6260
    6258    6255    6259    6260    6259    6260    6263    6265
    6259    6260    6263    6271    6259    6260    6263    6264
    6260    6263    6265    6266    6260    6263    6271    6274
    6260    6263    6271    6273    6260    6263    6271    6272
    6261    6260    6263    6265    6261    6260    6263    6271
    6261    6260    6263    6264    6262    6260    6263    6265
    6262    6260    6263    6271    6262    6260    6263    6264
    6263    6265    6266    6267    6263    6265    6266    6268
    6263    6271    6274    6275    6264    6263    6265    6266
    6264    6263    6271    6274    6264    6263    6271    6273
    6264    6263    6271    6272    6265    6266    6268    6280
    6265    6266    6268    6270    6265    6266    6268    6269
    6265    6263    6271    6274    6265    6263    6271    6273
    6265    6263    6271    6272    6266    6268    6280    6283
    6266    6268    6280    6282    6266    6268    6280    6281
    6266    6265    6263    6271    6267    6266    6268    6280
    6267    6266    6268    6270    6267    6266    6268    6269
    6268    6280    6283    6286    6268    6280    6283    6285
    6268    6280    6283    6284    6269    6268    6280    6283
    6269    6268    6280    6282    6269    6268    6280    6281
    6270    6268    6280    6283    6270    6268    6280    6282
    6270    6268    6280    6281    6271    6274    6275    6276
    6271    6274    6275    6277    6272    6271    6274    6275
    6273    6271    6274    6275    6274    6275    6277    6293
    6274    6275    6277    6279    6274    6275    6277    6278
    6275    6277    6293    6296    6275    6277    6293    6295
    6275    6277    6293    6294    6276    6275    6277    6293
    6276    6275    6277    6279    6276    6275    6277    6278
    6277    6293    6296    6299    6277    6293    6296    6298
    6277    6293    6296    6297    6278    6277    6293    6296
    6278    6277    6293    6295    6278    6277    6293    6294
    6279    6277    6293    6296    6279    6277    6293    6295
    6279    6277    6293    6294    6280    6283    6286    6289
    6280    6283    6286    6288    6280    6283    6286    6287
    6281    6280    6283    6286    6281    6280    6283    6285
    6281    6280    6283    6284    6282    6280    6283    6286
    6282    6280    6283    6285    6282    6280    6283    6284
    6283    6286    6289    6291    6283    6286    6289    6290
    6283    6286    6289    6292    6284    6283    6286    6289
    6284    6283    6286    6288    6284    6283    6286    6287
    6285    6283    6286    6289    6285    6283    6286    6288
    6285    6283    6286    6287    6287    6286    6289    6291
    6287    6286    6289    6290    6287    6286    6289    6292
    6288    6286    6289    6291    6288    6286    6289    6290
    6288    6286    6289    6292    6293    6296    6299    6302
    6293    6296    6299    6301    6293    6296    6299    6300
    6294    6293    6296    6299    6294    6293    6296    6298
    6294    6293    6296    6297    6295    6293    6296    6299
    6295    6293    6296    6298    6295    6293    6296    6297
    6296    6299    6302    6304    6296    6299    6302    6303
    6296    6299    6302    6305    6297    6296    6299    6302
    6297    6296    6299    6301    6297    6296    6299    6300
    6298    6296    6299    6302    6298    6296    6299    6301
    6298    6296    6299    6300    6300    6299    6302    6304
    6300    6299    6302    6303    6300    6299    6302    6305
    6301    6299    6302    6304    6301    6299    6302    6303
    6301    6299    6302    6305    6306    6319    6322    6324
    6306    6319    6322    6323    6306    6319    6322    6329
    6307    6306    6311    6314    6307    6306    6311    6313
    6307    6306    6311    6312    6307    6306    6315    6318
    6307    6306    6315    6317    6307    6306    6315    6316
    6307    6306    6319    6321    6307    6306    6319    6320
    6307    6306    6319    6322    6308    6307    6306    6311
    6308    6307    6306    6315    6308    6307    6306    6319
    6309    6307    6306    6311    6309    6307    6306    6315
    6309    6307    6306    6319    6310    6307    6306    6311
    6310    6307    6306    6315    6310    6307    6306    6319
    6311    6306    6315    6318    6311    6306    6315    6317
    6311    6306    6315    6316    6311    6306    6319    6321
    6311    6306    6319    6320    6311    6306    6319    6322
    6312    6311    6306    6315    6312    6311    6306    6319
    6313    6311    6306    6315    6313    6311    6306    6319
    6314    6311    6306    6315    6314    6311    6306    6319
    6315    6306    6319    6321    6315    6306    6319    6320
    6315    6306    6319    6322    6316    6315    6306    6319
    6317    6315    6306    6319    6318    6315    6306    6319
    6319    6322    6329    6325    6320    6319    6322    6324
    6320    6319    6322    6323    6320    6319    6322    6329
    6321    6319    6322    6324    6321    6319    6322    6323
    6321    6319    6322    6329    6322    6329    6325    6327
    6322    6329    6325    6326    6322    6329    6325    6328
    6323    6322    6329    6325    6324    6322    6329    6325
    6325    6328    6330    6332    6325    6328    6330    6331
    6325    6328    6330    6335    6326    6325    6328    6330
    6327    6325    6328    6330    6328    6330    6335    6333
    6328    6330    6335    6336    6328    6330    6335    6337
    6329    6325    6328    6330    6330    6335    6333    6349
    6330    6335    6333    6334    6330    6335    6337    6339
    6330    6335    6337    6338    6330    6335    6337    6341
    6331    6330    6335    6333    6331    6330    6335    6336
    6331    6330    6335    6337    6332    6330    6335    6333
    6332    6330    6335    6336    6332    6330    6335    6337
    6333    6349    6351    6354    6333    6349    6351    6353
    6333    6349    6351    6352    6333    6335    6337    6339
    6333    6335    6337    6338    6333    6335    6337    6341
    6334    6333    6349    6350    6334    6333    6349    6351
    6334    6333    6335    6336    6334    6333    6335    6337
    6335    6333    6349    6350    6335    6333    6349    6351
    6335    6337    6339    6340    6335    6337    6341    6343
    6335    6337    6341    6342    6336    6335    6333    6349
    6336    6335    6337    6339    6336    6335    6337    6338
    6336    6335    6337    6341    6337    6335    6333    6349
    6337    6341    6343    6344    6337    6341    6343    6345
    6338    6337    6339    6340    6338    6337    6341    6343
    6338    6337    6341    6342    6339    6337    6341    6343
    6339    6337    6341    6342    6340    6339    6337    6341
    6341    6343    6345    6347    6341    6343    6345    6346
    6341    6343    6345    6348    6342    6341    6343    6344
    6342    6341    6343    6345    6344    6343    6345    6347
    6344    6343    6345    6346    6344    6343    6345    6348
    6349    6351    6354    6357    6349    6351    6354    6356
    6349    6351    6354    6355    6350    6349    6351    6354
    6350    6349    6351    6353    6350    6349    6351    6352
    6351    6354    6357    6360    6351    6354    6357    6359
    6351    6354    6357    6358    6352    6351    6354    6357
    6352    6351    6354    6356    6352    6351    6354    6355
    6353    6351    6354    6357    6353    6351    6354    6356
    6353    6351    6354    6355    6354    6357    6360    6363
    6354    6357    6360    6362    6354    6357    6360    6361
    6355    6354    6357    6360    6355    6354    6357    6359
    6355    6354    6357    6358    6356    6354    6357    6360
    6356    6354    6357    6359    6356    6354    6357    6358
    6357    6360    6363    6365    6357    6360    6363    6364
    6357    6360    6363    6366    6358    6357    6360    6363
    6358    6357    6360    6362    6358    6357    6360    6361
    6359    6357    6360    6363    6359    6357    6360    6362
    6359    6357    6360    6361    6361    6360    6363    6365
    6361    6360    6363    6364    6361    6360    6363    6366
    6362    6360    6363    6365    6362    6360    6363    6364
    6362    6360    6363    6366    6367    6371    6374    6381
    6367    6371    6374    6376    6367    6371    6374    6375
    6368    6367    6371    6374    6368    6367    6371    6373
    6368    6367    6371    6372    6369    6367    6371    6374
    6369    6367    6371    6373    6369    6367    6371    6372
    6370    6367    6371    6374    6370    6367    6371    6373
    6370    6367    6371    6372    6371    6374    6381    6377
    6372    6371    6374    6381    6372    6371    6374    6376
    6372    6371    6374    6375    6373    6371    6374    6381
    6373    6371    6374    6376    6373    6371    6374    6375
    6374    6381    6377    6379    6374    6381    6377    6378
    6374    6381    6377    6380    6375    6374    6381    6377
    6376    6374    6381    6377    6377    6380    6382    6385
    6377    6380    6382    6384    6377    6380    6382    6383
    6378    6377    6380    6382    6379    6377    6380    6382
    6380    6382    6385    6387    6380    6382    6385    6393
    6380    6382    6385    6386    6381    6377    6380    6382
    6382    6385    6387    6388    6382    6385    6393    6396
    6382    6385    6393    6395    6382    6385    6393    6394
    6383    6382    6385    6387    6383    6382    6385    6393
    6383    6382    6385    6386    6384    6382    6385    6387
    6384    6382    6385    6393    6384    6382    6385    6386
    6385    6387    6388    6389    6385    6387    6388    6390
    6385    6393    6396    6397    6386    6385    6387    6388
    6386    6385    6393    6396    6386    6385    6393    6395
    6386    6385    6393    6394    6387    6388    6390    6402
    6387    6388    6390    6392    6387    6388    6390    6391
    6387    6385    6393    6396    6387    6385    6393    6395
    6387    6385    6393    6394    6388    6390    6402    6405
    6388    6390    6402    6404    6388    6390    6402    6403
    6388    6387    6385    6393    6389    6388    6390    6402
    6389    6388    6390    6392    6389    6388    6390    6391
    6390    6402    6405    6408    6390    6402    6405    6407
    6390    6402    6405    6406    6391    6390    6402    6405
    6391    6390    6402    6404    6391    6390    6402    6403
    6392    6390    6402    6405    6392    6390    6402    6404
    6392    6390    6402    6403    6393    6396    6397    6398
    6393    6396    6397    6399    6394    6393    6396    6397
    6395    6393    6396    6397    6396    6397    6399    6415
    6396    6397    6399    6401    6396    6397    6399    6400
    6397    6399    6415    6418    6397    6399    6415    6417
    6397    6399    6415    6416    6398    6397    6399    6415
    6398    6397    6399    6401    6398    6397    6399    6400
    6399    6415    6418    6421    6399    6415    6418    6420
    6399    6415    6418    6419    6400    6399    6415    6418
    6400    6399    6415    6417    6400    6399    6415    6416
    6401    6399    6415    6418    6401    6399    6415    6417
    6401    6399    6415    6416    6402    6405    6408    6411
    6402    6405    6408    6410    6402    6405    6408    6409
    6403    6402    6405    6408    6403    6402    6405    6407
    6403    6402    6405    6406    6404    6402    6405    6408
    6404    6402    6405    6407    6404    6402    6405    6406
    6405    6408    6411    6413    6405    6408    6411    6412
    6405    6408    6411    6414    6406    6405    6408    6411
    6406    6405    6408    6410    6406    6405    6408    6409
    6407    6405    6408    6411    6407    6405    6408    6410
    6407    6405    6408    6409    6409    6408    6411    6413
    6409    6408    6411    6412    6409    6408    6411    6414
    6410    6408    6411    6413    6410    6408    6411    6412
    6410    6408    6411    6414    6415    6418    6421    6424
    6415    6418    6421    6423    6415    6418    6421    6422
    6416    6415    6418    6421    6416    6415    6418    6420
    6416    6415    6418    6419    6417    6415    6418    6421
    6417    6415    6418    6420    6417    6415    6418    6419
    6418    6421    6424    6426    6418    6421    6424    6425
    6418    6421    6424    6427    6419    6418    6421    6424
    6419    6418    6421    6423    6419    6418    6421    6422
    6420    6418    6421    6424    6420    6418    6421    6423
    6420    6418    6421    6422    6422    6421    6424    6426
    6422    6421    6424    6425    6422    6421    6424    6427
    6423    6421    6424    6426    6423    6421    6424    6425
    6423    6421    6424    6427    6428    6432    6437    6443
    6428    6432    6437    6439    6428    6432    6437    6438
    6428    6432    6434    6435    6428    6432    6434    6436
    6429    6428    6432    6437    6429    6428    6432    6433
    6429    6428    6432    6434    6430    6428    6432    6437
    6430    6428    6432    6433    6430    6428    6432    6434
    6431    6428    6432    6437    6431    6428    6432    6433
    6431    6428    6432    6434    6432    6437    6443    6440
    6433    6432    6437    6443    6433    6432    6437    6439
    6433    6432    6437    6438    6433    6432    6434    6435
    6433    6432    6434    6436    6434    6432    6437    6443
    6434    6432    6437    6439    6434    6432    6437    6438
    6435    6434    6432    6437    6436    6434    6432    6437
    6437    6443    6440    6442    6437    6443    6440    6441
    6437    6443    6440    6444    6438    6437    6443    6440
    6439    6437    6443    6440    6440    6444    6445    6448
    6440    6444    6445    6447    6440    6444    6445    6446
    6441    6440    6444    6445    6442    6440    6444    6445
    6443    6440    6444    6445    6444    6445    6448    6450
    6444    6445    6448    6456    6444    6445    6448    6449
    6445    6448    6450    6451    6445    6448    6456    6459
    6445    6448    6456    6458    6445    6448    6456    6457
    6446    6445    6448    6450    6446    6445    6448    6456
    6446    6445    6448    6449    6447    6445    6448    6450
    6447    6445    6448    6456    6447    6445    6448    6449
    6448    6450    6451    6452    6448    6450    6451    6453
    6448    6456    6459    6460    6449    6448    6450    6451
    6449    6448    6456    6459    6449    6448    6456    6458
    6449    6448    6456    6457    6450    6451    6453    6465
    6450    6451    6453    6455    6450    6451    6453    6454
    6450    6448    6456    6459    6450    6448    6456    6458
    6450    6448    6456    6457    6451    6453    6465    6468
    6451    6453    6465    6467    6451    6453    6465    6466
    6451    6450    6448    6456    6452    6451    6453    6465
    6452    6451    6453    6455    6452    6451    6453    6454
    6453    6465    6468    6471    6453    6465    6468    6470
    6453    6465    6468    6469    6454    6453    6465    6468
    6454    6453    6465    6467    6454    6453    6465    6466
    6455    6453    6465    6468    6455    6453    6465    6467
    6455    6453    6465    6466    6456    6459    6460    6461
    6456    6459    6460    6462    6457    6456    6459    6460
    6458    6456    6459    6460    6459    6460    6462    6478
    6459    6460    6462    6464    6459    6460    6462    6463
    6460    6462    6478    6481    6460    6462    6478    6480
    6460    6462    6478    6479    6461    6460    6462    6478
    6461    6460    6462    6464    6461    6460    6462    6463
    6462    6478    6481    6484    6462    6478    6481    6483
    6462    6478    6481    6482    6463    6462    6478    6481
    6463    6462    6478    6480    6463    6462    6478    6479
    6464    6462    6478    6481    6464    6462    6478    6480
    6464    6462    6478    6479    6465    6468    6471    6474
    6465    6468    6471    6473    6465    6468    6471    6472
    6466    6465    6468    6471    6466    6465    6468    6470
    6466    6465    6468    6469    6467    6465    6468    6471
    6467    6465    6468    6470    6467    6465    6468    6469
    6468    6471    6474    6476    6468    6471    6474    6475
    6468    6471    6474    6477    6469    6468    6471    6474
    6469    6468    6471    6473    6469    6468    6471    6472
    6470    6468    6471    6474    6470    6468    6471    6473
    6470    6468    6471    6472    6472    6471    6474    6476
    6472    6471    6474    6475    6472    6471    6474    6477
    6473    6471    6474    6476    6473    6471    6474    6475
    6473    6471    6474    6477    6478    6481    6484    6487
    6478    6481    6484    6486    6478    6481    6484    6485
    6479    6478    6481    6484    6479    6478    6481    6483
    6479    6478    6481    6482    6480    6478    6481    6484
    6480    6478    6481    6483    6480    6478    6481    6482
    6481    6484    6487    6489    6481    6484    6487    6488
    6481    6484    6487    6490    6482    6481    6484    6487
    6482    6481    6484    6486    6482    6481    6484    6485
    6483    6481    6484    6487    6483    6481    6484    6486
    6483    6481    6484    6485    6485    6484    6487    6489
    6485    6484    6487    6488    6485    6484    6487    6490
    6486    6484    6487    6489    6486    6484    6487    6488
    6486    6484    6487    6490    6491    6492    6507    6513
    6491    6492    6507    6509    6491    6492    6507    6508
    6492    6507    6513    6510    6492    6491    6503    6506
    6492    6491    6503    6505    6492    6491    6503    6504
    6492    6491    6499    6502    6492    6491    6499    6501
    6492    6491    6499    6500    6492    6491    6495    6498
    6492    6491    6495    6497    6492    6491    6495    6496
    6493    6492    6507    6513    6493    6492    6507    6509
    6493    6492    6507    6508    6493    6492    6491    6503
    6493    6492    6491    6499    6493    6492    6491    6495
    6494    6492    6507    6513    6494    6492    6507    6509
    6494    6492    6507    6508    6494    6492    6491    6503
    6494    6492    6491    6499    6494    6492    6491    6495
    6495    6491    6492    6507    6495    6491    6503    6506
    6495    6491    6503    6505    6495    6491    6503    6504
    6495    6491    6499    6502    6495    6491    6499    6501
    6495    6491    6499    6500    6496    6495    6491    6503
    6496    6495    6491    6499    6497    6495    6491    6503
    6497    6495    6491    6499    6498    6495    6491    6503
    6498    6495    6491    6499    6499    6491    6492    6507
    6499    6491    6503    6506    6499    6491    6503    6505
    6499    6491    6503    6504    6500    6499    6491    6503
    6501    6499    6491    6503    6502    6499    6491    6503
    6503    6491    6492    6507    6507    6513    6510    6512
    6507    6513    6510    6511    6507    6513    6510    6514
    6508    6507    6513    6510    6509    6507    6513    6510
    6510    6514    6515    6518    6510    6514    6515    6517
    6510    6514    6515    6516    6511    6510    6514    6515
    6512    6510    6514    6515    6513    6510    6514    6515
    6514    6515    6518    6520    6514    6515    6518    6526
    6514    6515    6518    6519    6515    6518    6520    6521
    6515    6518    6526    6529    6515    6518    6526    6528
    6515    6518    6526    6527    6516    6515    6518    6520
    6516    6515    6518    6526    6516    6515    6518    6519
    6517    6515    6518    6520    6517    6515    6518    6526
    6517    6515    6518    6519    6518    6520    6521    6522
    6518    6520    6521    6523    6518    6526    6529    6530
    6519    6518    6520    6521    6519    6518    6526    6529
    6519    6518    6526    6528    6519    6518    6526    6527
    6520    6521    6523    6535    6520    6521    6523    6525
    6520    6521    6523    6524    6520    6518    6526    6529
    6520    6518    6526    6528    6520    6518    6526    6527
    6521    6523    6535    6538    6521    6523    6535    6537
    6521    6523    6535    6536    6521    6520    6518    6526
    6522    6521    6523    6535    6522    6521    6523    6525
    6522    6521    6523    6524    6523    6535    6538    6541
    6523    6535    6538    6540    6523    6535    6538    6539
    6524    6523    6535    6538    6524    6523    6535    6537
    6524    6523    6535    6536    6525    6523    6535    6538
    6525    6523    6535    6537    6525    6523    6535    6536
    6526    6529    6530    6531    6526    6529    6530    6532
    6527    6526    6529    6530    6528    6526    6529    6530
    6529    6530    6532    6548    6529    6530    6532    6534
    6529    6530    6532    6533    6530    6532    6548    6551
    6530    6532    6548    6550    6530    6532    6548    6549
    6531    6530    6532    6548    6531    6530    6532    6534
    6531    6530    6532    6533    6532    6548    6551    6554
    6532    6548    6551    6553    6532    6548    6551    6552
    6533    6532    6548    6551    6533    6532    6548    6550
    6533    6532    6548    6549    6534    6532    6548    6551
    6534    6532    6548    6550    6534    6532    6548    6549
    6535    6538    6541    6544    6535    6538    6541    6543
    6535    6538    6541    6542    6536    6535    6538    6541
    6536    6535    6538    6540    6536    6535    6538    6539
    6537    6535    6538    6541    6537    6535    6538    6540
    6537    6535    6538    6539    6538    6541    6544    6546
    6538    6541    6544    6545    6538    6541    6544    6547
    6539    6538    6541    6544    6539    6538    6541    6543
    6539    6538    6541    6542    6540    6538    6541    6544
    6540    6538    6541    6543    6540    6538    6541    6542
    6542    6541    6544    6546    6542    6541    6544    6545
    6542    6541    6544    6547    6543    6541    6544    6546
    6543    6541    6544    6545    6543    6541    6544    6547
    6548    6551    6554    6557    6548    6551    6554    6556
    6548    6551    6554    6555    6549    6548    6551    6554
    6549    6548    6551    6553    6549    6548    6551    6552
    6550    6548    6551    6554    6550    6548    6551    6553
    6550    6548    6551    6552    6551    6554    6557    6559
    6551    6554    6557    6558    6551    6554    6557    6560
    6552    6551    6554    6557    6552    6551    6554    6556
    6552    6551    6554    6555    6553    6551    6554    6557
    6553    6551    6554    6556    6553    6551    6554    6555
    6555    6554    6557    6559    6555    6554    6557    6558
    6555    6554    6557    6560    6556    6554    6557    6559
    6556    6554    6557    6558    6556    6554    6557    6560
    6561    6565    6568    6575    6561    6565    6568    6570
    6561    6565    6568    6569    6562    6561    6565    6568
    6562    6561    6565    6567    6562    6561    6565    6566
    6563    6561    6565    6568    6563    6561    6565    6567
    6563    6561    6565    6566    6564    6561    6565    6568
    6564    6561    6565    6567    6564    6561    6565    6566
    6565    6568    6575    6571    6566    6565    6568    6575
    6566    6565    6568    6570    6566    6565    6568    6569
    6567    6565    6568    6575    6567    6565    6568    6570
    6567    6565    6568    6569    6568    6575    6571    6573
    6568    6575    6571    6572    6568    6575    6571    6574
    6569    6568    6575    6571    6570    6568    6575    6571
    6571    6574    6576    6579    6571    6574    6576    6578
    6571    6574    6576    6577    6572    6571    6574    6576
    6573    6571    6574    6576    6574    6576    6579    6581
    6574    6576    6579    6587    6574    6576    6579    6580
    6575    6571    6574    6576    6576    6579    6581    6582
    6576    6579    6587    6590    6576    6579    6587    6589
    6576    6579    6587    6588    6577    6576    6579    6581
    6577    6576    6579    6587    6577    6576    6579    6580
    6578    6576    6579    6581    6578    6576    6579    6587
    6578    6576    6579    6580    6579    6581    6582    6583
    6579    6581    6582    6584    6579    6587    6590    6591
    6580    6579    6581    6582    6580    6579    6587    6590
    6580    6579    6587    6589    6580    6579    6587    6588
    6581    6582    6584    6596    6581    6582    6584    6586
    6581    6582    6584    6585    6581    6579    6587    6590
    6581    6579    6587    6589    6581    6579    6587    6588
    6582    6584    6596    6599    6582    6584    6596    6598
    6582    6584    6596    6597    6582    6581    6579    6587
    6583    6582    6584    6596    6583    6582    6584    6586
    6583    6582    6584    6585    6584    6596    6599    6602
    6584    6596    6599    6601    6584    6596    6599    6600
    6585    6584    6596    6599    6585    6584    6596    6598
    6585    6584    6596    6597    6586    6584    6596    6599
    6586    6584    6596    6598    6586    6584    6596    6597
    6587    6590    6591    6592    6587    6590    6591    6593
    6588    6587    6590    6591    6589    6587    6590    6591
    6590    6591    6593    6609    6590    6591    6593    6595
    6590    6591    6593    6594    6591    6593    6609    6612
    6591    6593    6609    6611    6591    6593    6609    6610
    6592    6591    6593    6609    6592    6591    6593    6595
    6592    6591    6593    6594    6593    6609    6612    6615
    6593    6609    6612    6614    6593    6609    6612    6613
    6594    6593    6609    6612    6594    6593    6609    6611
    6594    6593    6609    6610    6595    6593    6609    6612
    6595    6593    6609    6611    6595    6593    6609    6610
    6596    6599    6602    6605    6596    6599    6602    6604
    6596    6599    6602    6603    6597    6596    6599    6602
    6597    6596    6599    6601    6597    6596    6599    6600
    6598    6596    6599    6602    6598    6596    6599    6601
    6598    6596    6599    6600    6599    6602    6605    6607
    6599    6602    6605    6606    6599    6602    6605    6608
    6600    6599    6602    6605    6600    6599    6602    6604
    6600    6599    6602    6603    6601    6599    6602    6605
    6601    6599    6602    6604    6601    6599    6602    6603
    6603    6602    6605    6607    6603    6602    6605    6606
    6603    6602    6605    6608    6604    6602    6605    6607
    6604    6602    6605    6606    6604    6602    6605    6608
    6609    6612    6615    6618    6609    6612    6615    6617
    6609    6612    6615    6616    6610    6609    6612    6615
    6610    6609    6612    6614    6610    6609    6612    6613
    6611    6609    6612    6615    6611    6609    6612    6614
    6611    6609    6612    6613    6612    6615    6618    6620
    6612    6615    6618    6619    6612    6615    6618    6621
    6613    6612    6615    6618    6613    6612    6615    6617
    6613    6612    6615    6616    6614    6612    6615    6618
    6614    6612    6615    6617    6614    6612    6615    6616
    6616    6615    6618    6620    6616    6615    6618    6619
    6616    6615    6618    6621    6617    6615    6618    6620
    6617    6615    6618    6619    6617    6615    6618    6621
    6622    6623    6638    6644    6622    6623    6638    6640
    6622    6623    6638    6639    6623    6638    6644    6641
    6623    6622    6634    6637    6623    6622    6634    6636
    6623    6622    6634    6635    6623    6622    6630    6633
    6623    6622    6630    6632    6623    6622    6630    6631
    6623    6622    6626    6629    6623    6622    6626    6628
    6623    6622    6626    6627    6624    6623    6638    6644
    6624    6623    6638    6640    6624    6623    6638    6639
    6624    6623    6622    6634    6624    6623    6622    6630
    6624    6623    6622    6626    6625    6623    6638    6644
    6625    6623    6638    6640    6625    6623    6638    6639
    6625    6623    6622    6634    6625    6623    6622    6630
    6625    6623    6622    6626    6626    6622    6623    6638
    6626    6622    6634    6637    6626    6622    6634    6636
    6626    6622    6634    6635    6626    6622    6630    6633
    6626    6622    6630    6632    6626    6622    6630    6631
    6627    6626    6622    6634    6627    6626    6622    6630
    6628    6626    6622    6634    6628    6626    6622    6630
    6629    6626    6622    6634    6629    6626    6622    6630
    6630    6622    6623    6638    6630    6622    6634    6637
    6630    6622    6634    6636    6630    6622    6634    6635
    6631    6630    6622    6634    6632    6630    6622    6634
    6633    6630    6622    6634    6634    6622    6623    6638
    6638    6644    6641    6643    6638    6644    6641    6642
    6638    6644    6641    6645    6639    6638    6644    6641
    6640    6638    6644    6641    6641    6645    6646    6649
    6641    6645    6646    6648    6641    6645    6646    6647
    6642    6641    6645    6646    6643    6641    6645    6646
    6644    6641    6645    6646    6645    6646    6649    6651
    6645    6646    6649    6657    6645    6646    6649    6650
    6646    6649    6651    6652    6646    6649    6657    6660
    6646    6649    6657    6659    6646    6649    6657    6658
    6647    6646    6649    6651    6647    6646    6649    6657
    6647    6646    6649    6650    6648    6646    6649    6651
    6648    6646    6649    6657    6648    6646    6649    6650
    6649    6651    6652    6653    6649    6651    6652    6654
    6649    6657    6660    6661    6650    6649    6651    6652
    6650    6649    6657    6660    6650    6649    6657    6659
    6650    6649    6657    6658    6651    6652    6654    6666
    6651    6652    6654    6656    6651    6652    6654    6655
    6651    6649    6657    6660    6651    6649    6657    6659
    6651    6649    6657    6658    6652    6654    6666    6669
    6652    6654    6666    6668    6652    6654    6666    6667
    6652    6651    6649    6657    6653    6652    6654    6666
    6653    6652    6654    6656    6653    6652    6654    6655
    6654    6666    6669    6672    6654    6666    6669    6671
    6654    6666    6669    6670    6655    6654    6666    6669
    6655    6654    6666    6668    6655    6654    6666    6667
    6656    6654    6666    6669    6656    6654    6666    6668
    6656    6654    6666    6667    6657    6660    6661    6662
    6657    6660    6661    6663    6658    6657    6660    6661
    6659    6657    6660    6661    6660    6661    6663    6679
    6660    6661    6663    6665    6660    6661    6663    6664
    6661    6663    6679    6682    6661    6663    6679    6681
    6661    6663    6679    6680    6662    6661    6663    6679
    6662    6661    6663    6665    6662    6661    6663    6664
    6663    6679    6682    6685    6663    6679    6682    6684
    6663    6679    6682    6683    6664    6663    6679    6682
    6664    6663    6679    6681    6664    6663    6679    6680
    6665    6663    6679    6682    6665    6663    6679    6681
    6665    6663    6679    6680    6666    6669    6672    6675
    6666    6669    6672    6674    6666    6669    6672    6673
    6667    6666    6669    6672    6667    6666    6669    6671
    6667    6666    6669    6670    6668    6666    6669    6672
    6668    6666    6669    6671    6668    6666    6669    6670
    6669    6672    6675    6677    6669    6672    6675    6676
    6669    6672    6675    6678    6670    6669    6672    6675
    6670    6669    6672    6674    6670    6669    6672    6673
    6671    6669    6672    6675    6671    6669    6672    6674
    6671    6669    6672    6673    6673    6672    6675    6677
    6673    6672    6675    6676    6673    6672    6675    6678
    6674    6672    6675    6677    6674    6672    6675    6676
    6674    6672    6675    6678    6679    6682    6685    6688
    6679    6682    6685    6687    6679    6682    6685    6686
    6680    6679    6682    6685    6680    6679    6682    6684
    6680    6679    6682    6683    6681    6679    6682    6685
    6681    6679    6682    6684    6681    6679    6682    6683
    6682    6685    6688    6690    6682    6685    6688    6689
    6682    6685    6688    6691    6683    6682    6685    6688
    6683    6682    6685    6687    6683    6682    6685    6686
    6684    6682    6685    6688    6684    6682    6685    6687
    6684    6682    6685    6686    6686    6685    6688    6690
    6686    6685    6688    6689    6686    6685    6688    6691
    6687    6685    6688    6690    6687    6685    6688    6689
    6687    6685    6688    6691    6692    6705    6708    6710
    6692    6705    6708    6709    6692    6705    6708    6715
    6693    6692    6697    6700    6693    6692    6697    6699
    6693    6692    6697    6698    6693    6692    6701    6704
    6693    6692    6701    6703    6693    6692    6701    6702
    6693    6692    6705    6707    6693    6692    6705    6706
    6693    6692    6705    6708    6694    6693    6692    6697
    6694    6693    6692    6701    6694    6693    6692    6705
    6695    6693    6692    6697    6695    6693    6692    6701
    6695    6693    6692    6705    6696    6693    6692    6697
    6696    6693    6692    6701    6696    6693    6692    6705
    6697    6692    6701    6704    6697    6692    6701    6703
    6697    6692    6701    6702    6697    6692    6705    6707
    6697    6692    6705    6706    6697    6692    6705    6708
    6698    6697    6692    6701    6698    6697    6692    6705
    6699    6697    6692    6701    6699    6697    6692    6705
    6700    6697    6692    6701    6700    6697    6692    6705
    6701    6692    6705    6707    6701    6692    6705    6706
    6701    6692    6705    6708    6702    6701    6692    6705
    6703    6701    6692    6705    6704    6701    6692    6705
    6705    6708    6715    6711    6706    6705    6708    6710
    6706    6705    6708    6709    6706    6705    6708    6715
    6707    6705    6708    6710    6707    6705    6708    6709
    6707    6705    6708    6715    6708    6715    6711    6713
    6708    6715    6711    6712    6708    6715    6711    6714
    6709    6708    6715    6711    6710    6708    6715    6711
    6711    6714    6716    6718    6711    6714    6716    6717
    6711    6714    6716    6721    6712    6711    6714    6716
    6713    6711    6714    6716    6714    6716    6721    6719
    6714    6716    6721    6722    6714    6716    6721    6723
    6715    6711    6714    6716    6716    6721    6719    6735
    6716    6721    6719    6720    6716    6721    6723    6725
    6716    6721    6723    6724    6716    6721    6723    6727
    6717    6716    6721    6719    6717    6716    6721    6722
    6717    6716    6721    6723    6718    6716    6721    6719
    6718    6716    6721    6722    6718    6716    6721    6723
    6719    6735    6737    6740    6719    6735    6737    6739
    6719    6735    6737    6738    6719    6721    6723    6725
    6719    6721    6723    6724    6719    6721    6723    6727
    6720    6719    6735    6736    6720    6719    6735    6737
    6720    6719    6721    6722    6720    6719    6721    6723
    6721    6719    6735    6736    6721    6719    6735    6737
    6721    6723    6725    6726    6721    6723    6727    6729
    6721    6723    6727    6728    6722    6721    6719    6735
    6722    6721    6723    6725    6722    6721    6723    6724
    6722    6721    6723    6727    6723    6721    6719    6735
    6723    6727    6729    6730    6723    6727    6729    6731
    6724    6723    6725    6726    6724    6723    6727    6729
    6724    6723    6727    6728    6725    6723    6727    6729
    6725    6723    6727    6728    6726    6725    6723    6727
    6727    6729    6731    6733    6727    6729    6731    6732
    6727    6729    6731    6734    6728    6727    6729    6730
    6728    6727    6729    6731    6730    6729    6731    6733
    6730    6729    6731    6732    6730    6729    6731    6734
    6735    6737    6740    6743    6735    6737    6740    6742
    6735    6737    6740    6741    6736    6735    6737    6740
    6736    6735    6737    6739    6736    6735    6737    6738
    6737    6740    6743    6746    6737    6740    6743    6745
    6737    6740    6743    6744    6738    6737    6740    6743
    6738    6737    6740    6742    6738    6737    6740    6741
    6739    6737    6740    6743    6739    6737    6740    6742
    6739    6737    6740    6741    6740    6743    6746    6749
    6740    6743    6746    6748    6740    6743    6746    6747
    6741    6740    6743    6746    6741    6740    6743    6745
    6741    6740    6743    6744    6742    6740    6743    6746
    6742    6740    6743    6745    6742    6740    6743    6744
    6743    6746    6749    6751    6743    6746    6749    6750
    6743    6746    6749    6752    6744    6743    6746    6749
    6744    6743    6746    6748    6744    6743    6746    6747
    6745    6743    6746    6749    6745    6743    6746    6748
    6745    6743    6746    6747    6747    6746    6749    6751
    6747    6746    6749    6750    6747    6746    6749    6752
    6748    6746    6749    6751    6748    6746    6749    6750
    6748    6746    6749    6752    6753    6754    6769    6775
    6753    6754    6769    6771    6753    6754    6769    6770
    6754    6769    6775    6772    6754    6753    6765    6768
    6754    6753    6765    6767    6754    6753    6765    6766
    6754    6753    6761    6764    6754    6753    6761    6763
    6754    6753    6761    6762    6754    6753    6757    6760
    6754    6753    6757    6759    6754    6753    6757    6758
    6755    6754    6769    6775    6755    6754    6769    6771
    6755    6754    6769    6770    6755    6754    6753    6765
    6755    6754    6753    6761    6755    6754    6753    6757
    6756    6754    6769    6775    6756    6754    6769    6771
    6756    6754    6769    6770    6756    6754    6753    6765
    6756    6754    6753    6761    6756    6754    6753    6757
    6757    6753    6754    6769    6757    6753    6765    6768
    6757    6753    6765    6767    6757    6753    6765    6766
    6757    6753    6761    6764    6757    6753    6761    6763
    6757    6753    6761    6762    6758    6757    6753    6765
    6758    6757    6753    6761    6759    6757    6753    6765
    6759    6757    6753    6761    6760    6757    6753    6765
    6760    6757    6753    6761    6761    6753    6754    6769
    6761    6753    6765    6768    6761    6753    6765    6767
    6761    6753    6765    6766    6762    6761    6753    6765
    6763    6761    6753    6765    6764    6761    6753    6765
    6765    6753    6754    6769    6769    6775    6772    6774
    6769    6775    6772    6773    6769    6775    6772    6776
    6770    6769    6775    6772    6771    6769    6775    6772
    6772    6776    6777    6780    6772    6776    6777    6779
    6772    6776    6777    6778    6773    6772    6776    6777
    6774    6772    6776    6777    6775    6772    6776    6777
    6776    6777    6780    6782    6776    6777    6780    6788
    6776    6777    6780    6781    6777    6780    6782    6783
    6777    6780    6788    6791    6777    6780    6788    6790
    6777    6780    6788    6789    6778    6777    6780    6782
    6778    6777    6780    6788    6778    6777    6780    6781
    6779    6777    6780    6782    6779    6777    6780    6788
    6779    6777    6780    6781    6780    6782    6783    6784
    6780    6782    6783    6785    6780    6788    6791    6792
    6781    6780    6782    6783    6781    6780    6788    6791
    6781    6780    6788    6790    6781    6780    6788    6789
    6782    6783    6785    6797    6782    6783    6785    6787
    6782    6783    6785    6786    6782    6780    6788    6791
    6782    6780    6788    6790    6782    6780    6788    6789
    6783    6785    6797    6800    6783    6785    6797    6799
    6783    6785    6797    6798    6783    6782    6780    6788
    6784    6783    6785    6797    6784    6783    6785    6787
    6784    6783    6785    6786    6785    6797    6800    6803
    6785    6797    6800    6802    6785    6797    6800    6801
    6786    6785    6797    6800    6786    6785    6797    6799
    6786    6785    6797    6798    6787    6785    6797    6800
    6787    6785    6797    6799    6787    6785    6797    6798
    6788    6791    6792    6793    6788    6791    6792    6794
    6789    6788    6791    6792    6790    6788    6791    6792
    6791    6792    6794    6810    6791    6792    6794    6796
    6791    6792    6794    6795    6792    6794    6810    6813
    6792    6794    6810    6812    6792    6794    6810    6811
    6793    6792    6794    6810    6793    6792    6794    6796
    6793    6792    6794    6795    6794    6810    6813    6816
    6794    6810    6813    6815    6794    6810    6813    6814
    6795    6794    6810    6813    6795    6794    6810    6812
    6795    6794    6810    6811    6796    6794    6810    6813
    6796    6794    6810    6812    6796    6794    6810    6811
    6797    6800    6803    6806    6797    6800    6803    6805
    6797    6800    6803    6804    6798    6797    6800    6803
    6798    6797    6800    6802    6798    6797    6800    6801
    6799    6797    6800    6803    6799    6797    6800    6802
    6799    6797    6800    6801    6800    6803    6806    6808
    6800    6803    6806    6807    6800    6803    6806    6809
    6801    6800    6803    6806    6801    6800    6803    6805
    6801    6800    6803    6804    6802    6800    6803    6806
    6802    6800    6803    6805    6802    6800    6803    6804
    6804    6803    6806    6808    6804    6803    6806    6807
    6804    6803    6806    6809    6805    6803    6806    6808
    6805    6803    6806    6807    6805    6803    6806    6809
    6810    6813    6816    6819    6810    6813    6816    6818
    6810    6813    6816    6817    6811    6810    6813    6816
    6811    6810    6813    6815    6811    6810    6813    6814
    6812    6810    6813    6816    6812    6810    6813    6815
    6812    6810    6813    6814    6813    6816    6819    6821
    6813    6816    6819    6820    6813    6816    6819    6822
    6814    6813    6816    6819    6814    6813    6816    6818
    6814    6813    6816    6817    6815    6813    6816    6819
    6815    6813    6816    6818    6815    6813    6816    6817
    6817    6816    6819    6821    6817    6816    6819    6820
    6817    6816    6819    6822    6818    6816    6819    6821
    6818    6816    6819    6820    6818    6816    6819    6822
    6823    6827    6830    6837    6823    6827    6830    6832
    6823    6827    6830    6831    6824    6823    6827    6830
    6824    6823    6827    6829    6824    6823    6827    6828
    6825    6823    6827    6830    6825    6823    6827    6829
    6825    6823    6827    6828    6826    6823    6827    6830
    6826    6823    6827    6829    6826    6823    6827    6828
    6827    6830    6837    6833    6828    6827    6830    6837
    6828    6827    6830    6832    6828    6827    6830    6831
    6829    6827    6830    6837    6829    6827    6830    6832
    6829    6827    6830    6831    6830    6837    6833    6835
    6830    6837    6833    6834    6830    6837    6833    6836
    6831    6830    6837    6833    6832    6830    6837    6833
    6833    6836    6838    6841    6833    6836    6838    6840
    6833    6836    6838    6839    6834    6833    6836    6838
    6835    6833    6836    6838    6836    6838    6841    6843
    6836    6838    6841    6849    6836    6838    6841    6842
    6837    6833    6836    6838    6838    6841    6843    6844
    6838    6841    6849    6852    6838    6841    6849    6851
    6838    6841    6849    6850    6839    6838    6841    6843
    6839    6838    6841    6849    6839    6838    6841    6842
    6840    6838    6841    6843    6840    6838    6841    6849
    6840    6838    6841    6842    6841    6843    6844    6845
    6841    6843    6844    6846    6841    6849    6852    6853
    6842    6841    6843    6844    6842    6841    6849    6852
    6842    6841    6849    6851    6842    6841    6849    6850
    6843    6844    6846    6858    6843    6844    6846    6848
    6843    6844    6846    6847    6843    6841    6849    6852
    6843    6841    6849    6851    6843    6841    6849    6850
    6844    6846    6858    6861    6844    6846    6858    6860
    6844    6846    6858    6859    6844    6843    6841    6849
    6845    6844    6846    6858    6845    6844    6846    6848
    6845    6844    6846    6847    6846    6858    6861    6864
    6846    6858    6861    6863    6846    6858    6861    6862
    6847    6846    6858    6861    6847    6846    6858    6860
    6847    6846    6858    6859    6848    6846    6858    6861
    6848    6846    6858    6860    6848    6846    6858    6859
    6849    6852    6853    6854    6849    6852    6853    6855
    6850    6849    6852    6853    6851    6849    6852    6853
    6852    6853    6855    6871    6852    6853    6855    6857
    6852    6853    6855    6856    6853    6855    6871    6874
    6853    6855    6871    6873    6853    6855    6871    6872
    6854    6853    6855    6871    6854    6853    6855    6857
    6854    6853    6855    6856    6855    6871    6874    6877
    6855    6871    6874    6876    6855    6871    6874    6875
    6856    6855    6871    6874    6856    6855    6871    6873
    6856    6855    6871    6872    6857    6855    6871    6874
    6857    6855    6871    6873    6857    6855    6871    6872
    6858    6861    6864    6867    6858    6861    6864    6866
    6858    6861    6864    6865    6859    6858    6861    6864
    6859    6858    6861    6863    6859    6858    6861    6862
    6860    6858    6861    6864    6860    6858    6861    6863
    6860    6858    6861    6862    6861    6864    6867    6869
    6861    6864    6867    6868    6861    6864    6867    6870
    6862    6861    6864    6867    6862    6861    6864    6866
    6862    6861    6864    6865    6863    6861    6864    6867
    6863    6861    6864    6866    6863    6861    6864    6865
    6865    6864    6867    6869    6865    6864    6867    6868
    6865    6864    6867    6870    6866    6864    6867    6869
    6866    6864    6867    6868    6866    6864    6867    6870
    6871    6874    6877    6880    6871    6874    6877    6879
    6871    6874    6877    6878    6872    6871    6874    6877
    6872    6871    6874    6876    6872    6871    6874    6875
    6873    6871    6874    6877    6873    6871    6874    6876
    6873    6871    6874    6875    6874    6877    6880    6882
    6874    6877    6880    6881    6874    6877    6880    6883
    6875    6874    6877    6880    6875    6874    6877    6879
    6875    6874    6877    6878    6876    6874    6877    6880
    6876    6874    6877    6879    6876    6874    6877    6878
    6878    6877    6880    6882    6878    6877    6880    6881
    6878    6877    6880    6883    6879    6877    6880    6882
    6879    6877    6880    6881    6879    6877    6880    6883
    6884    6888    6891    6898    6884    6888    6891    6893
    6884    6888    6891    6892    6885    6884    6888    6891
    6885    6884    6888    6890    6885    6884    6888    6889
    6886    6884    6888    6891    6886    6884    6888    6890
    6886    6884    6888    6889    6887    6884    6888    6891
    6887    6884    6888    6890    6887    6884    6888    6889
    6888    6891    6898    6894    6889    6888    6891    6898
    6889    6888    6891    6893    6889    6888    6891    6892
    6890    6888    6891    6898    6890    6888    6891    6893
    6890    6888    6891    6892    6891    6898    6894    6896
    6891    6898    6894    6895    6891    6898    6894    6897
    6892    6891    6898    6894    6893    6891    6898    6894
    6894    6897    6899    6902    6894    6897    6899    6901
    6894    6897    6899    6900    6895    6894    6897    6899
    6896    6894    6897    6899    6897    6899    6902    6904
    6897    6899    6902    6910    6897    6899    6902    6903
    6898    6894    6897    6899    6899    6902    6904    6905
    6899    6902    6910    6913    6899    6902    6910    6912
    6899    6902    6910    6911    6900    6899    6902    6904
    6900    6899    6902    6910    6900    6899    6902    6903
    6901    6899    6902    6904    6901    6899    6902    6910
    6901    6899    6902    6903    6902    6904    6905    6906
    6902    6904    6905    6907    6902    6910    6913    6914
    6903    6902    6904    6905    6903    6902    6910    6913
    6903    6902    6910    6912    6903    6902    6910    6911
    6904    6905    6907    6919    6904    6905    6907    6909
    6904    6905    6907    6908    6904    6902    6910    6913
    6904    6902    6910    6912    6904    6902    6910    6911
    6905    6907    6919    6922    6905    6907    6919    6921
    6905    6907    6919    6920    6905    6904    6902    6910
    6906    6905    6907    6919    6906    6905    6907    6909
    6906    6905    6907    6908    6907    6919    6922    6925
    6907    6919    6922    6924    6907    6919    6922    6923
    6908    6907    6919    6922    6908    6907    6919    6921
    6908    6907    6919    6920    6909    6907    6919    6922
    6909    6907    6919    6921    6909    6907    6919    6920
    6910    6913    6914    6915    6910    6913    6914    6916
    6911    6910    6913    6914    6912    6910    6913    6914
    6913    6914    6916    6932    6913    6914    6916    6918
    6913    6914    6916    6917    6914    6916    6932    6935
    6914    6916    6932    6934    6914    6916    6932    6933
    6915    6914    6916    6932    6915    6914    6916    6918
    6915    6914    6916    6917    6916    6932    6935    6938
    6916    6932    6935    6937    6916    6932    6935    6936
    6917    6916    6932    6935    6917    6916    6932    6934
    6917    6916    6932    6933    6918    6916    6932    6935
    6918    6916    6932    6934    6918    6916    6932    6933
    6919    6922    6925    6928    6919    6922    6925    6927
    6919    6922    6925    6926    6920    6919    6922    6925
    6920    6919    6922    6924    6920    6919    6922    6923
    6921    6919    6922    6925    6921    6919    6922    6924
    6921    6919    6922    6923    6922    6925    6928    6930
    6922    6925    6928    6929    6922    6925    6928    6931
    6923    6922    6925    6928    6923    6922    6925    6927
    6923    6922    6925    6926    6924    6922    6925    6928
    6924    6922    6925    6927    6924    6922    6925    6926
    6926    6925    6928    6930    6926    6925    6928    6929
    6926    6925    6928    6931    6927    6925    6928    6930
    6927    6925    6928    6929    6927    6925    6928    6931
    6932    6935    6938    6941    6932    6935    6938    6940
    6932    6935    6938    6939    6933    6932    6935    6938
    6933    6932    6935    6937    6933    6932    6935    6936
    6934    6932    6935    6938    6934    6932    6935    6937
    6934    6932    6935    6936    6935    6938    6941    6943
    6935    6938    6941    6942    6935    6938    6941    6944
    6936    6935    6938    6941    6936    6935    6938    6940
    6936    6935    6938    6939    6937    6935    6938    6941
    6937    6935    6938    6940    6937    6935    6938    6939
    6939    6938    6941    6943    6939    6938    6941    6942
    6939    6938    6941    6944    6940    6938    6941    6943
    6940    6938    6941    6942    6940    6938    6941    6944
    6945    6949    6952    6959    6945    6949    6952    6954
    6945    6949    6952    6953    6946    6945    6949    6952
    6946    6945    6949    6951    6946    6945    6949    6950
    6947    6945    6949    6952    6947    6945    6949    6951
    6947    6945    6949    6950    6948    6945    6949    6952
    6948    6945    6949    6951    6948    6945    6949    6950
    6949    6952    6959    6955    6950    6949    6952    6959
    6950    6949    6952    6954    6950    6949    6952    6953
    6951    6949    6952    6959    6951    6949    6952    6954
    6951    6949    6952    6953    6952    6959    6955    6957
    6952    6959    6955    6956    6952    6959    6955    6958
    6953    6952    6959    6955    6954    6952    6959    6955
    6955    6958    6960    6963    6955    6958    6960    6962
    6955    6958    6960    6961    6956    6955    6958    6960
    6957    6955    6958    6960    6958    6960    6963    6965
    6958    6960    6963    6971    6958    6960    6963    6964
    6959    6955    6958    6960    6960    6963    6965    6966
    6960    6963    6971    6974    6960    6963    6971    6973
    6960    6963    6971    6972    6961    6960    6963    6965
    6961    6960    6963    6971    6961    6960    6963    6964
    6962    6960    6963    6965    6962    6960    6963    6971
    6962    6960    6963    6964    6963    6965    6966    6967
    6963    6965    6966    6968    6963    6971    6974    6975
    6964    6963    6965    6966    6964    6963    6971    6974
    6964    6963    6971    6973    6964    6963    6971    6972
    6965    6966    6968    6980    6965    6966    6968    6970
    6965    6966    6968    6969    6965    6963    6971    6974
    6965    6963    6971    6973    6965    6963    6971    6972
    6966    6968    6980    6983    6966    6968    6980    6982
    6966    6968    6980    6981    6966    6965    6963    6971
    6967    6966    6968    6980    6967    6966    6968    6970
    6967    6966    6968    6969    6968    6980    6983    6986
    6968    6980    6983    6985    6968    6980    6983    6984
    6969    6968    6980    6983    6969    6968    6980    6982
    6969    6968    6980    6981    6970    6968    6980    6983
    6970    6968    6980    6982    6970    6968    6980    6981
    6971    6974    6975    6976    6971    6974    6975    6977
    6972    6971    6974    6975    6973    6971    6974    6975
    6974    6975    6977    6993    6974    6975    6977    6979
    6974    6975    6977    6978    6975    6977    6993    6996
    6975    6977    6993    6995    6975    6977    6993    6994
    6976    6975    6977    6993    6976    6975    6977    6979
    6976    6975    6977    6978    6977    6993    6996    6999
    6977    6993    6996    6998    6977    6993    6996    6997
    6978    6977    6993    6996    6978    6977    6993    6995
    6978    6977    6993    6994    6979    6977    6993    6996
    6979    6977    6993    6995    6979    6977    6993    6994
    6980    6983    6986    6989    6980    6983    6986    6988
    6980    6983    6986    6987    6981    6980    6983    6986
    6981    6980    6983    6985    6981    6980    6983    6984
    6982    6980    6983    6986    6982    6980    6983    6985
    6982    6980    6983    6984    6983    6986    6989    6991
    6983    6986    6989    6990    6983    6986    6989    6992
    6984    6983    6986    6989    6984    6983    6986    6988
    6984    6983    6986    6987    6985    6983    6986    6989
    6985    6983    6986    6988    6985    6983    6986    6987
    6987    6986    6989    6991    6987    6986    6989    6990
    6987    6986    6989    6992    6988    6986    6989    6991
    6988    6986    6989    6990    6988    6986    6989    6992
    6993    6996    6999    7002    6993    6996    6999    7001
    6993    6996    6999    7000    6994    6993    6996    6999
    6994    6993    6996    6998    6994    6993    6996    6997
    6995    6993    6996    6999    6995    6993    6996    6998
    6995    6993    6996    6997    6996    6999    7002    7004
    6996    6999    7002    7003    6996    6999    7002    7005
    6997    6996    6999    7002    6997    6996    6999    7001
    6997    6996    6999    7000    6998    6996    6999    7002
    6998    6996    6999    7001    6998    6996    6999    7000
    7000    6999    7002    7004    7000    6999    7002    7003
    7000    6999    7002    7005    7001    6999    7002    7004
    7001    6999    7002    7003    7001    6999    7002    7005
    7006    7010    7013    7020    7006    7010    7013    7015
    7006    7010    7013    7014    7007    7006    7010    7013
    7007    7006    7010    7012    7007    7006    7010    7011
    7008    7006    7010    7013    7008    7006    7010    7012
    7008    7006    7010    7011    7009    7006    7010    7013
    7009    7006    7010    7012    7009    7006    7010    7011
    7010    7013    7020    7016    7011    7010    7013    7020
    7011    7010    7013    7015    7011    7010    7013    7014
    7012    7010    7013    7020    7012    7010    7013    7015
    7012    7010    7013    7014    7013    7020    7016    7018
    7013    7020    7016    7017    7013    7020    7016    7019
    7014    7013    7020    7016    7015    7013    7020    7016
    7016    7019    7021    7024    7016    7019    7021    7023
    7016    7019    7021    7022    7017    7016    7019    7021
    7018    7016    7019    7021    7019    7021    7024    7026
    7019    7021    7024    7032    7019    7021    7024    7025
    7020    7016    7019    7021    7021    7024    7026    7027
    7021    7024    7032    7035    7021    7024    7032    7034
    7021    7024    7032    7033    7022    7021    7024    7026
    7022    7021    7024    7032    7022    7021    7024    7025
    7023    7021    7024    7026    7023    7021    7024    7032
    7023    7021    7024    7025    7024    7026    7027    7028
    7024    7026    7027    7029    7024    7032    7035    7036
    7025    7024    7026    7027    7025    7024    7032    7035
    7025    7024    7032    7034    7025    7024    7032    7033
    7026    7027    7029    7041    7026    7027    7029    7031
    7026    7027    7029    7030    7026    7024    7032    7035
    7026    7024    7032    7034    7026    7024    7032    7033
    7027    7029    7041    7044    7027    7029    7041    7043
    7027    7029    7041    7042    7027    7026    7024    7032
    7028    7027    7029    7041    7028    7027    7029    7031
    7028    7027    7029    7030    7029    7041    7044    7047
    7029    7041    7044    7046    7029    7041    7044    7045
    7030    7029    7041    7044    7030    7029    7041    7043
    7030    7029    7041    7042    7031    7029    7041    7044
    7031    7029    7041    7043    7031    7029    7041    7042
    7032    7035    7036    7037    7032    7035    7036    7038
    7033    7032    7035    7036    7034    7032    7035    7036
    7035    7036    7038    7054    7035    7036    7038    7040
    7035    7036    7038    7039    7036    7038    7054    7057
    7036    7038    7054    7056    7036    7038    7054    7055
    7037    7036    7038    7054    7037    7036    7038    7040
    7037    7036    7038    7039    7038    7054    7057    7060
    7038    7054    7057    7059    7038    7054    7057    7058
    7039    7038    7054    7057    7039    7038    7054    7056
    7039    7038    7054    7055    7040    7038    7054    7057
    7040    7038    7054    7056    7040    7038    7054    7055
    7041    7044    7047    7050    7041    7044    7047    7049
    7041    7044    7047    7048    7042    7041    7044    7047
    7042    7041    7044    7046    7042    7041    7044    7045
    7043    7041    7044    7047    7043    7041    7044    7046
    7043    7041    7044    7045    7044    7047    7050    7052
    7044    7047    7050    7051    7044    7047    7050    7053
    7045    7044    7047    7050    7045    7044    7047    7049
    7045    7044    7047    7048    7046    7044    7047    7050
    7046    7044    7047    7049    7046    7044    7047    7048
    7048    7047    7050    7052    7048    7047    7050    7051
    7048    7047    7050    7053    7049    7047    7050    7052
    7049    7047    7050    7051    7049    7047    7050    7053
    7054    7057    7060    7063    7054    7057    7060    7062
    7054    7057    7060    7061    7055    7054    7057    7060
    7055    7054    7057    7059    7055    7054    7057    7058
    7056    7054    7057    7060    7056    7054    7057    7059
    7056    7054    7057    7058    7057    7060    7063    7065
    7057    7060    7063    7064    7057    7060    7063    7066
    7058    7057    7060    7063    7058    7057    7060    7062
    7058    7057    7060    7061    7059    7057    7060    7063
    7059    7057    7060    7062    7059    7057    7060    7061
    7061    7060    7063    7065    7061    7060    7063    7064
    7061    7060    7063    7066    7062    7060    7063    7065
    7062    7060    7063    7064    7062    7060    7063    7066
    7067    7080    7083    7085    7067    7080    7083    7084
    7067    7080    7083    7090    7068    7067    7072    7075
    7068    7067    7072    7074    7068    7067    7072    7073
    7068    7067    7076    7079    7068    7067    7076    7078
    7068    7067    7076    7077    7068    7067    7080    7082
    7068    7067    7080    7081    7068    7067    7080    7083
    7069    7068    7067    7072    7069    7068    7067    7076
    7069    7068    7067    7080    7070    7068    7067    7072
    7070    7068    7067    7076    7070    7068    7067    7080
    7071    7068    7067    7072    7071    7068    7067    7076
    7071    7068    7067    7080    7072    7067    7076    7079
    7072    7067    7076    7078    7072    7067    7076    7077
    7072    7067    7080    7082    7072    7067    7080    7081
    7072    7067    7080    7083    7073    7072    7067    7076
    7073    7072    7067    7080    7074    7072    7067    7076
    7074    7072    7067    7080    7075    7072    7067    7076
    7075    7072    7067    7080    7076    7067    7080    7082
    7076    7067    7080    7081    7076    7067    7080    7083
    7077    7076    7067    7080    7078    7076    7067    7080
    7079    7076    7067    7080    7080    7083    7090    7086
    7081    7080    7083    7085    7081    7080    7083    7084
    7081    7080    7083    7090    7082    7080    7083    7085
    7082    7080    7083    7084    7082    7080    7083    7090
    7083    7090    7086    7088    7083    7090    7086    7087
    7083    7090    7086    7089    7084    7083    7090    7086
    7085    7083    7090    7086    7086    7089    7091    7093
    7086    7089    7091    7092    7086    7089    7091    7096
    7087    7086    7089    7091    7088    7086    7089    7091
    7089    7091    7096    7094    7089    7091    7096    7097
    7089    7091    7096    7098    7090    7086    7089    7091
    7091    7096    7094    7110    7091    7096    7094    7095
    7091    7096    7098    7100    7091    7096    7098    7099
    7091    7096    7098    7102    7092    7091    7096    7094
    7092    7091    7096    7097    7092    7091    7096    7098
    7093    7091    7096    7094    7093    7091    7096    7097
    7093    7091    7096    7098    7094    7110    7112    7115
    7094    7110    7112    7114    7094    7110    7112    7113
    7094    7096    7098    7100    7094    7096    7098    7099
    7094    7096    7098    7102    7095    7094    7110    7111
    7095    7094    7110    7112    7095    7094    7096    7097
    7095    7094    7096    7098    7096    7094    7110    7111
    7096    7094    7110    7112    7096    7098    7100    7101
    7096    7098    7102    7104    7096    7098    7102    7103
    7097    7096    7094    7110    7097    7096    7098    7100
    7097    7096    7098    7099    7097    7096    7098    7102
    7098    7096    7094    7110    7098    7102    7104    7105
    7098    7102    7104    7106    7099    7098    7100    7101
    7099    7098    7102    7104    7099    7098    7102    7103
    7100    7098    7102    7104    7100    7098    7102    7103
    7101    7100    7098    7102    7102    7104    7106    7108
    7102    7104    7106    7107    7102    7104    7106    7109
    7103    7102    7104    7105    7103    7102    7104    7106
    7105    7104    7106    7108    7105    7104    7106    7107
    7105    7104    7106    7109    7110    7112    7115    7118
    7110    7112    7115    7117    7110    7112    7115    7116
    7111    7110    7112    7115    7111    7110    7112    7114
    7111    7110    7112    7113    7112    7115    7118    7121
    7112    7115    7118    7120    7112    7115    7118    7119
    7113    7112    7115    7118    7113    7112    7115    7117
    7113    7112    7115    7116    7114    7112    7115    7118
    7114    7112    7115    7117    7114    7112    7115    7116
    7115    7118    7121    7124    7115    7118    7121    7123
    7115    7118    7121    7122    7116    7115    7118    7121
    7116    7115    7118    7120    7116    7115    7118    7119
    7117    7115    7118    7121    7117    7115    7118    7120
    7117    7115    7118    7119    7118    7121    7124    7126
    7118    7121    7124    7125    7118    7121    7124    7127
    7119    7118    7121    7124    7119    7118    7121    7123
    7119    7118    7121    7122    7120    7118    7121    7124
    7120    7118    7121    7123    7120    7118    7121    7122
    7122    7121    7124    7126    7122    7121    7124    7125
    7122    7121    7124    7127    7123    7121    7124    7126
    7123    7121    7124    7125    7123    7121    7124    7127
    7128    7129    7144    7150    7128    7129    7144    7146
    7128    7129    7144    7145    7129    7144    7150    7147
    7129    7128    7140    7143    7129    7128    7140    7142
    7129    7128    7140    7141    7129    7128    7136    7139
    7129    7128    7136    7138    7129    7128    7136    7137
    7129    7128    7132    7135    7129    7128    7132    7134
    7129    7128    7132    7133    7130    7129    7144    7150
    7130    7129    7144    7146    7130    7129    7144    7145
    7130    7129    7128    7140    7130    7129    7128    7136
    7130    7129    7128    7132    7131    7129    7144    7150
    7131    7129    7144    7146    7131    7129    7144    7145
    7131    7129    7128    7140    7131    7129    7128    7136
    7131    7129    7128    7132    7132    7128    7129    7144
    7132    7128    7140    7143    7132    7128    7140    7142
    7132    7128    7140    7141    7132    7128    7136    7139
    7132    7128    7136    7138    7132    7128    7136    7137
    7133    7132    7128    7140    7133    7132    7128    7136
    7134    7132    7128    7140    7134    7132    7128    7136
    7135    7132    7128    7140    7135    7132    7128    7136
    7136    7128    7129    7144    7136    7128    7140    7143
    7136    7128    7140    7142    7136    7128    7140    7141
    7137    7136    7128    7140    7138    7136    7128    7140
    7139    7136    7128    7140    7140    7128    7129    7144
    7144    7150    7147    7149    7144    7150    7147    7148
    7144    7150    7147    7151    7145    7144    7150    7147
    7146    7144    7150    7147    7147    7151    7152    7155
    7147    7151    7152    7154    7147    7151    7152    7153
    7148    7147    7151    7152    7149    7147    7151    7152
    7150    7147    7151    7152    7151    7152    7155    7157
    7151    7152    7155    7163    7151    7152    7155    7156
    7152    7155    7157    7158    7152    7155    7163    7166
    7152    7155    7163    7165    7152    7155    7163    7164
    7153    7152    7155    7157    7153    7152    7155    7163
    7153    7152    7155    7156    7154    7152    7155    7157
    7154    7152    7155    7163    7154    7152    7155    7156
    7155    7157    7158    7159    7155    7157    7158    7160
    7155    7163    7166    7167    7156    7155    7157    7158
    7156    7155    7163    7166    7156    7155    7163    7165
    7156    7155    7163    7164    7157    7158    7160    7172
    7157    7158    7160    7162    7157    7158    7160    7161
    7157    7155    7163    7166    7157    7155    7163    7165
    7157    7155    7163    7164    7158    7160    7172    7175
    7158    7160    7172    7174    7158    7160    7172    7173
    7158    7157    7155    7163    7159    7158    7160    7172
    7159    7158    7160    7162    7159    7158    7160    7161
    7160    7172    7175    7178    7160    7172    7175    7177
    7160    7172    7175    7176    7161    7160    7172    7175
    7161    7160    7172    7174    7161    7160    7172    7173
    7162    7160    7172    7175    7162    7160    7172    7174
    7162    7160    7172    7173    7163    7166    7167    7168
    7163    7166    7167    7169    7164    7163    7166    7167
    7165    7163    7166    7167    7166    7167    7169    7185
    7166    7167    7169    7171    7166    7167    7169    7170
    7167    7169    7185    7188    7167    7169    7185    7187
    7167    7169    7185    7186    7168    7167    7169    7185
    7168    7167    7169    7171    7168    7167    7169    7170
    7169    7185    7188    7191    7169    7185    7188    7190
    7169    7185    7188    7189    7170    7169    7185    7188
    7170    7169    7185    7187    7170    7169    7185    7186
    7171    7169    7185    7188    7171    7169    7185    7187
    7171    7169    7185    7186    7172    7175    7178    7181
    7172    7175    7178    7180    7172    7175    7178    7179
    7173    7172    7175    7178    7173    7172    7175    7177
    7173    7172    7175    7176    7174    7172    7175    7178
    7174    7172    7175    7177    7174    7172    7175    7176
    7175    7178    7181    7183    7175    7178    7181    7182
    7175    7178    7181    7184    7176    7175    7178    7181
    7176    7175    7178    7180    7176    7175    7178    7179
    7177    7175    7178    7181    7177    7175    7178    7180
    7177    7175    7178    7179    7179    7178    7181    7183
    7179    7178    7181    7182    7179    7178    7181    7184
    7180    7178    7181    7183    7180    7178    7181    7182
    7180    7178    7181    7184    7185    7188    7191    7194
    7185    7188    7191    7193    7185    7188    7191    7192
    7186    7185    7188    7191    7186    7185    7188    7190
    7186    7185    7188    7189    7187    7185    7188    7191
    7187    7185    7188    7190    7187    7185    7188    7189
    7188    7191    7194    7196    7188    7191    7194    7195
    7188    7191    7194    7197    7189    7188    7191    7194
    7189    7188    7191    7193    7189    7188    7191    7192
    7190    7188    7191    7194    7190    7188    7191    7193
    7190    7188    7191    7192    7192    7191    7194    7196
    7192    7191    7194    7195    7192    7191    7194    7197
    7193    7191    7194    7196    7193    7191    7194    7195
    7193    7191    7194    7197    7198    7202    7205    7212
    7198    7202    7205    7207    7198    7202    7205    7206
    7199    7198    7202    7205    7199    7198    7202    7204
    7199    7198    7202    7203    7200    7198    7202    7205
    7200    7198    7202    7204    7200    7198    7202    7203
    7201    7198    7202    7205    7201    7198    7202    7204
    7201    7198    7202    7203    7202    7205    7212    7208
    7203    7202    7205    7212    7203    7202    7205    7207
    7203    7202    7205    7206    7204    7202    7205    7212
    7204    7202    7205    7207    7204    7202    7205    7206
    7205    7212    7208    7210    7205    7212    7208    7209
    7205    7212    7208    7211    7206    7205    7212    7208
    7207    7205    7212    7208    7208    7211    7213    7216
    7208    7211    7213    7215    7208    7211    7213    7214
    7209    7208    7211    7213    7210    7208    7211    7213
    7211    7213    7216    7218    7211    7213    7216    7224
    7211    7213    7216    7217    7212    7208    7211    7213
    7213    7216    7218    7219    7213    7216    7224    7227
    7213    7216    7224    7226    7213    7216    7224    7225
    7214    7213    7216    7218    7214    7213    7216    7224
    7214    7213    7216    7217    7215    7213    7216    7218
    7215    7213    7216    7224    7215    7213    7216    7217
    7216    7218    7219    7220    7216    7218    7219    7221
    7216    7224    7227    7228    7217    7216    7218    7219
    7217    7216    7224    7227    7217    7216    7224    7226
    7217    7216    7224    7225    7218    7219    7221    7233
    7218    7219    7221    7223    7218    7219    7221    7222
    7218    7216    7224    7227    7218    7216    7224    7226
    7218    7216    7224    7225    7219    7221    7233    7236
    7219    7221    7233    7235    7219    7221    7233    7234
    7219    7218    7216    7224    7220    7219    7221    7233
    7220    7219    7221    7223    7220    7219    7221    7222
    7221    7233    7236    7239    7221    7233    7236    7238
    7221    7233    7236    7237    7222    7221    7233    7236
    7222    7221    7233    7235    7222    7221    7233    7234
    7223    7221    7233    7236    7223    7221    7233    7235
    7223    7221    7233    7234    7224    7227    7228    7229
    7224    7227    7228    7230    7225    7224    7227    7228
    7226    7224    7227    7228    7227    7228    7230    7246
    7227    7228    7230    7232    7227    7228    7230    7231
    7228    7230    7246    7249    7228    7230    7246    7248
    7228    7230    7246    7247    7229    7228    7230    7246
    7229    7228    7230    7232    7229    7228    7230    7231
    7230    7246    7249    7252    7230    7246    7249    7251
    7230    7246    7249    7250    7231    7230    7246    7249
    7231    7230    7246    7248    7231    7230    7246    7247
    7232    7230    7246    7249    7232    7230    7246    7248
    7232    7230    7246    7247    7233    7236    7239    7242
    7233    7236    7239    7241    7233    7236    7239    7240
    7234    7233    7236    7239    7234    7233    7236    7238
    7234    7233    7236    7237    7235    7233    7236    7239
    7235    7233    7236    7238    7235    7233    7236    7237
    7236    7239    7242    7244    7236    7239    7242    7243
    7236    7239    7242    7245    7237    7236    7239    7242
    7237    7236    7239    7241    7237    7236    7239    7240
    7238    7236    7239    7242    7238    7236    7239    7241
    7238    7236    7239    7240    7240    7239    7242    7244
    7240    7239    7242    7243    7240    7239    7242    7245
    7241    7239    7242    7244    7241    7239    7242    7243
    7241    7239    7242    7245    7246    7249    7252    7255
    7246    7249    7252    7254    7246    7249    7252    7253
    7247    7246    7249    7252    7247    7246    7249    7251
    7247    7246    7249    7250    7248    7246    7249    7252
    7248    7246    7249    7251    7248    7246    7249    7250
    7249    7252    7255    7257    7249    7252    7255    7256
    7249    7252    7255    7258    7250    7249    7252    7255
    7250    7249    7252    7254    7250    7249    7252    7253
    7251    7249    7252    7255    7251    7249    7252    7254
    7251    7249    7252    7253    7253    7252    7255    7257
    7253    7252    7255    7256    7253    7252    7255    7258
    7254    7252    7255    7257    7254    7252    7255    7256
    7254    7252    7255    7258    7259    7260    7275    7281
    7259    7260    7275    7277    7259    7260    7275    7276
    7260    7275    7281    7278    7260    7259    7271    7274
    7260    7259    7271    7273    7260    7259    7271    7272
    7260    7259    7267    7270    7260    7259    7267    7269
    7260    7259    7267    7268    7260    7259    7263    7266
    7260    7259    7263    7265    7260    7259    7263    7264
    7261    7260    7275    7281    7261    7260    7275    7277
    7261    7260    7275    7276    7261    7260    7259    7271
    7261    7260    7259    7267    7261    7260    7259    7263
    7262    7260    7275    7281    7262    7260    7275    7277
    7262    7260    7275    7276    7262    7260    7259    7271
    7262    7260    7259    7267    7262    7260    7259    7263
    7263    7259    7260    7275    7263    7259    7271    7274
    7263    7259    7271    7273    7263    7259    7271    7272
    7263    7259    7267    7270    7263    7259    7267    7269
    7263    7259    7267    7268    7264    7263    7259    7271
    7264    7263    7259    7267    7265    7263    7259    7271
    7265    7263    7259    7267    7266    7263    7259    7271
    7266    7263    7259    7267    7267    7259    7260    7275
    7267    7259    7271    7274    7267    7259    7271    7273
    7267    7259    7271    7272    7268    7267    7259    7271
    7269    7267    7259    7271    7270    7267    7259    7271
    7271    7259    7260    7275    7275    7281    7278    7280
    7275    7281    7278    7279    7275    7281    7278    7282
    7276    7275    7281    7278    7277    7275    7281    7278
    7278    7282    7283    7286    7278    7282    7283    7285
    7278    7282    7283    7284    7279    7278    7282    7283
    7280    7278    7282    7283    7281    7278    7282    7283
    7282    7283    7286    7288    7282    7283    7286    7294
    7282    7283    7286    7287    7283    7286    7288    7289
    7283    7286    7294    7297    7283    7286    7294    7296
    7283    7286    7294    7295    7284    7283    7286    7288
    7284    7283    7286    7294    7284    7283    7286    7287
    7285    7283    7286    7288    7285    7283    7286    7294
    7285    7283    7286    7287    7286    7288    7289    7290
    7286    7288    7289    7291    7286    7294    7297    7298
    7287    7286    7288    7289    7287    7286    7294    7297
    7287    7286    7294    7296    7287    7286    7294    7295
    7288    7289    7291    7303    7288    7289    7291    7293
    7288    7289    7291    7292    7288    7286    7294    7297
    7288    7286    7294    7296    7288    7286    7294    7295
    7289    7291    7303    7306    7289    7291    7303    7305
    7289    7291    7303    7304    7289    7288    7286    7294
    7290    7289    7291    7303    7290    7289    7291    7293
    7290    7289    7291    7292    7291    7303    7306    7309
    7291    7303    7306    7308    7291    7303    7306    7307
    7292    7291    7303    7306    7292    7291    7303    7305
    7292    7291    7303    7304    7293    7291    7303    7306
    7293    7291    7303    7305    7293    7291    7303    7304
    7294    7297    7298    7299    7294    7297    7298    7300
    7295    7294    7297    7298    7296    7294    7297    7298
    7297    7298    7300    7316    7297    7298    7300    7302
    7297    7298    7300    7301    7298    7300    7316    7319
    7298    7300    7316    7318    7298    7300    7316    7317
    7299    7298    7300    7316    7299    7298    7300    7302
    7299    7298    7300    7301    7300    7316    7319    7322
    7300    7316    7319    7321    7300    7316    7319    7320
    7301    7300    7316    7319    7301    7300    7316    7318
    7301    7300    7316    7317    7302    7300    7316    7319
    7302    7300    7316    7318    7302    7300    7316    7317
    7303    7306    7309    7312    7303    7306    7309    7311
    7303    7306    7309    7310    7304    7303    7306    7309
    7304    7303    7306    7308    7304    7303    7306    7307
    7305    7303    7306    7309    7305    7303    7306    7308
    7305    7303    7306    7307    7306    7309    7312    7314
    7306    7309    7312    7313    7306    7309    7312    7315
    7307    7306    7309    7312    7307    7306    7309    7311
    7307    7306    7309    7310    7308    7306    7309    7312
    7308    7306    7309    7311    7308    7306    7309    7310
    7310    7309    7312    7314    7310    7309    7312    7313
    7310    7309    7312    7315    7311    7309    7312    7314
    7311    7309    7312    7313    7311    7309    7312    7315
    7316    7319    7322    7325    7316    7319    7322    7324
    7316    7319    7322    7323    7317    7316    7319    7322
    7317    7316    7319    7321    7317    7316    7319    7320
    7318    7316    7319    7322    7318    7316    7319    7321
    7318    7316    7319    7320    7319    7322    7325    7327
    7319    7322    7325    7326    7319    7322    7325    7328
    7320    7319    7322    7325    7320    7319    7322    7324
    7320    7319    7322    7323    7321    7319    7322    7325
    7321    7319    7322    7324    7321    7319    7322    7323
    7323    7322    7325    7327    7323    7322    7325    7326
    7323    7322    7325    7328    7324    7322    7325    7327
    7324    7322    7325    7326    7324    7322    7325    7328
    7329    7333    7336    7343    7329    7333    7336    7338
    7329    7333    7336    7337    7330    7329    7333    7336
    7330    7329    7333    7335    7330    7329    7333    7334
    7331    7329    7333    7336    7331    7329    7333    7335
    7331    7329    7333    7334    7332    7329    7333    7336
    7332    7329    7333    7335    7332    7329    7333    7334
    7333    7336    7343    7339    7334    7333    7336    7343
    7334    7333    7336    7338    7334    7333    7336    7337
    7335    7333    7336    7343    7335    7333    7336    7338
    7335    7333    7336    7337    7336    7343    7339    7341
    7336    7343    7339    7340    7336    7343    7339    7342
    7337    7336    7343    7339    7338    7336    7343    7339
    7339    7342    7344    7347    7339    7342    7344    7346
    7339    7342    7344    7345    7340    7339    7342    7344
    7341    7339    7342    7344    7342    7344    7347    7349
    7342    7344    7347    7355    7342    7344    7347    7348
    7343    7339    7342    7344    7344    7347    7349    7350
    7344    7347    7355    7358    7344    7347    7355    7357
    7344    7347    7355    7356    7345    7344    7347    7349
    7345    7344    7347    7355    7345    7344    7347    7348
    7346    7344    7347    7349    7346    7344    7347    7355
    7346    7344    7347    7348    7347    7349    7350    7351
    7347    7349    7350    7352    7347    7355    7358    7359
    7348    7347    7349    7350    7348    7347    7355    7358
    7348    7347    7355    7357    7348    7347    7355    7356
    7349    7350    7352    7364    7349    7350    7352    7354
    7349    7350    7352    7353    7349    7347    7355    7358
    7349    7347    7355    7357    7349    7347    7355    7356
    7350    7352    7364    7367    7350    7352    7364    7366
    7350    7352    7364    7365    7350    7349    7347    7355
    7351    7350    7352    7364    7351    7350    7352    7354
    7351    7350    7352    7353    7352    7364    7367    7370
    7352    7364    7367    7369    7352    7364    7367    7368
    7353    7352    7364    7367    7353    7352    7364    7366
    7353    7352    7364    7365    7354    7352    7364    7367
    7354    7352    7364    7366    7354    7352    7364    7365
    7355    7358    7359    7360    7355    7358    7359    7361
    7356    7355    7358    7359    7357    7355    7358    7359
    7358    7359    7361    7377    7358    7359    7361    7363
    7358    7359    7361    7362    7359    7361    7377    7380
    7359    7361    7377    7379    7359    7361    7377    7378
    7360    7359    7361    7377    7360    7359    7361    7363
    7360    7359    7361    7362    7361    7377    7380    7383
    7361    7377    7380    7382    7361    7377    7380    7381
    7362    7361    7377    7380    7362    7361    7377    7379
    7362    7361    7377    7378    7363    7361    7377    7380
    7363    7361    7377    7379    7363    7361    7377    7378
    7364    7367    7370    7373    7364    7367    7370    7372
    7364    7367    7370    7371    7365    7364    7367    7370
    7365    7364    7367    7369    7365    7364    7367    7368
    7366    7364    7367    7370    7366    7364    7367    7369
    7366    7364    7367    7368    7367    7370    7373    7375
    7367    7370    7373    7374    7367    7370    7373    7376
    7368    7367    7370    7373    7368    7367    7370    7372
    7368    7367    7370    7371    7369    7367    7370    7373
    7369    7367    7370    7372    7369    7367    7370    7371
    7371    7370    7373    7375    7371    7370    7373    7374
    7371    7370    7373    7376    7372    7370    7373    7375
    7372    7370    7373    7374    7372    7370    7373    7376
    7377    7380    7383    7386    7377    7380    7383    7385
    7377    7380    7383    7384    7378    7377    7380    7383
    7378    7377    7380    7382    7378    7377    7380    7381
    7379    7377    7380    7383    7379    7377    7380    7382
    7379    7377    7380    7381    7380    7383    7386    7388
    7380    7383    7386    7387    7380    7383    7386    7389
    7381    7380    7383    7386    7381    7380    7383    7385
    7381    7380    7383    7384    7382    7380    7383    7386
    7382    7380    7383    7385    7382    7380    7383    7384
    7384    7383    7386    7388    7384    7383    7386    7387
    7384    7383    7386    7389    7385    7383    7386    7388
    7385    7383    7386    7387    7385    7383    7386    7389
    7390    7394    7397    7404    7390    7394    7397    7399
    7390    7394    7397    7398    7391    7390    7394    7397
    7391    7390    7394    7396    7391    7390    7394    7395
    7392    7390    7394    7397    7392    7390    7394    7396
    7392    7390    7394    7395    7393    7390    7394    7397
    7393    7390    7394    7396    7393    7390    7394    7395
    7394    7397    7404    7400    7395    7394    7397    7404
    7395    7394    7397    7399    7395    7394    7397    7398
    7396    7394    7397    7404    7396    7394    7397    7399
    7396    7394    7397    7398    7397    7404    7400    7402
    7397    7404    7400    7401    7397    7404    7400    7403
    7398    7397    7404    7400    7399    7397    7404    7400
    7400    7403    7405    7408    7400    7403    7405    7407
    7400    7403    7405    7406    7401    7400    7403    7405
    7402    7400    7403    7405    7403    7405    7408    7410
    7403    7405    7408    7416    7403    7405    7408    7409
    7404    7400    7403    7405    7405    7408    7410    7411
    7405    7408    7416    7419    7405    7408    7416    7418
    7405    7408    7416    7417    7406    7405    7408    7410
    7406    7405    7408    7416    7406    7405    7408    7409
    7407    7405    7408    7410    7407    7405    7408    7416
    7407    7405    7408    7409    7408    7410    7411    7412
    7408    7410    7411    7413    7408    7416    7419    7420
    7409    7408    7410    7411    7409    7408    7416    7419
    7409    7408    7416    7418    7409    7408    7416    7417
    7410    7411    7413    7425    7410    7411    7413    7415
    7410    7411    7413    7414    7410    7408    7416    7419
    7410    7408    7416    7418    7410    7408    7416    7417
    7411    7413    7425    7428    7411    7413    7425    7427
    7411    7413    7425    7426    7411    7410    7408    7416
    7412    7411    7413    7425    7412    7411    7413    7415
    7412    7411    7413    7414    7413    7425    7428    7431
    7413    7425    7428    7430    7413    7425    7428    7429
    7414    7413    7425    7428    7414    7413    7425    7427
    7414    7413    7425    7426    7415    7413    7425    7428
    7415    7413    7425    7427    7415    7413    7425    7426
    7416    7419    7420    7421    7416    7419    7420    7422
    7417    7416    7419    7420    7418    7416    7419    7420
    7419    7420    7422    7438    7419    7420    7422    7424
    7419    7420    7422    7423    7420    7422    7438    7441
    7420    7422    7438    7440    7420    7422    7438    7439
    7421    7420    7422    7438    7421    7420    7422    7424
    7421    7420    7422    7423    7422    7438    7441    7444
    7422    7438    7441    7443    7422    7438    7441    7442
    7423    7422    7438    7441    7423    7422    7438    7440
    7423    7422    7438    7439    7424    7422    7438    7441
    7424    7422    7438    7440    7424    7422    7438    7439
    7425    7428    7431    7434    7425    7428    7431    7433
    7425    7428    7431    7432    7426    7425    7428    7431
    7426    7425    7428    7430    7426    7425    7428    7429
    7427    7425    7428    7431    7427    7425    7428    7430
    7427    7425    7428    7429    7428    7431    7434    7436
    7428    7431    7434    7435    7428    7431    7434    7437
    7429    7428    7431    7434    7429    7428    7431    7433
    7429    7428    7431    7432    7430    7428    7431    7434
    7430    7428    7431    7433    7430    7428    7431    7432
    7432    7431    7434    7436    7432    7431    7434    7435
    7432    7431    7434    7437    7433    7431    7434    7436
    7433    7431    7434    7435    7433    7431    7434    7437
    7438    7441    7444    7447    7438    7441    7444    7446
    7438    7441    7444    7445    7439    7438    7441    7444
    7439    7438    7441    7443    7439    7438    7441    7442
    7440    7438    7441    7444    7440    7438    7441    7443
    7440    7438    7441    7442    7441    7444    7447    7449
    7441    7444    7447    7448    7441    7444    7447    7450
    7442    7441    7444    7447    7442    7441    7444    7446
    7442    7441    7444    7445    7443    7441    7444    7447
    7443    7441    7444    7446    7443    7441    7444    7445
    7445    7444    7447    7449    7445    7444    7447    7448
    7445    7444    7447    7450    7446    7444    7447    7449
    7446    7444    7447    7448    7446    7444    7447    7450
    7451    7464    7467    7469    7451    7464    7467    7468
    7451    7464    7467    7474    7452    7451    7456    7459
    7452    7451    7456    7458    7452    7451    7456    7457
    7452    7451    7460    7463    7452    7451    7460    7462
    7452    7451    7460    7461    7452    7451    7464    7466
    7452    7451    7464    7465    7452    7451    7464    7467
    7453    7452    7451    7456    7453    7452    7451    7460
    7453    7452    7451    7464    7454    7452    7451    7456
    7454    7452    7451    7460    7454    7452    7451    7464
    7455    7452    7451    7456    7455    7452    7451    7460
    7455    7452    7451    7464    7456    7451    7460    7463
    7456    7451    7460    7462    7456    7451    7460    7461
    7456    7451    7464    7466    7456    7451    7464    7465
    7456    7451    7464    7467    7457    7456    7451    7460
    7457    7456    7451    7464    7458    7456    7451    7460
    7458    7456    7451    7464    7459    7456    7451    7460
    7459    7456    7451    7464    7460    7451    7464    7466
    7460    7451    7464    7465    7460    7451    7464    7467
    7461    7460    7451    7464    7462    7460    7451    7464
    7463    7460    7451    7464    7464    7467    7474    7470
    7465    7464    7467    7469    7465    7464    7467    7468
    7465    7464    7467    7474    7466    7464    7467    7469
    7466    7464    7467    7468    7466    7464    7467    7474
    7467    7474    7470    7472    7467    7474    7470    7471
    7467    7474    7470    7473    7468    7467    7474    7470
    7469    7467    7474    7470    7470    7473    7475    7477
    7470    7473    7475    7476    7470    7473    7475    7480
    7471    7470    7473    7475    7472    7470    7473    7475
    7473    7475    7480    7478    7473    7475    7480    7481
    7473    7475    7480    7482    7474    7470    7473    7475
    7475    7480    7478    7494    7475    7480    7478    7479
    7475    7480    7482    7484    7475    7480    7482    7483
    7475    7480    7482    7486    7476    7475    7480    7478
    7476    7475    7480    7481    7476    7475    7480    7482
    7477    7475    7480    7478    7477    7475    7480    7481
    7477    7475    7480    7482    7478    7494    7496    7499
    7478    7494    7496    7498    7478    7494    7496    7497
    7478    7480    7482    7484    7478    7480    7482    7483
    7478    7480    7482    7486    7479    7478    7494    7495
    7479    7478    7494    7496    7479    7478    7480    7481
    7479    7478    7480    7482    7480    7478    7494    7495
    7480    7478    7494    7496    7480    7482    7484    7485
    7480    7482    7486    7488    7480    7482    7486    7487
    7481    7480    7478    7494    7481    7480    7482    7484
    7481    7480    7482    7483    7481    7480    7482    7486
    7482    7480    7478    7494    7482    7486    7488    7489
    7482    7486    7488    7490    7483    7482    7484    7485
    7483    7482    7486    7488    7483    7482    7486    7487
    7484    7482    7486    7488    7484    7482    7486    7487
    7485    7484    7482    7486    7486    7488    7490    7492
    7486    7488    7490    7491    7486    7488    7490    7493
    7487    7486    7488    7489    7487    7486    7488    7490
    7489    7488    7490    7492    7489    7488    7490    7491
    7489    7488    7490    7493    7494    7496    7499    7502
    7494    7496    7499    7501    7494    7496    7499    7500
    7495    7494    7496    7499    7495    7494    7496    7498
    7495    7494    7496    7497    7496    7499    7502    7505
    7496    7499    7502    7504    7496    7499    7502    7503
    7497    7496    7499    7502    7497    7496    7499    7501
    7497    7496    7499    7500    7498    7496    7499    7502
    7498    7496    7499    7501    7498    7496    7499    7500
    7499    7502    7505    7508    7499    7502    7505    7507
    7499    7502    7505    7506    7500    7499    7502    7505
    7500    7499    7502    7504    7500    7499    7502    7503
    7501    7499    7502    7505    7501    7499    7502    7504
    7501    7499    7502    7503    7502    7505    7508    7510
    7502    7505    7508    7509    7502    7505    7508    7511
    7503    7502    7505    7508    7503    7502    7505    7507
    7503    7502    7505    7506    7504    7502    7505    7508
    7504    7502    7505    7507    7504    7502    7505    7506
    7506    7505    7508    7510    7506    7505    7508    7509
    7506    7505    7508    7511    7507    7505    7508    7510
    7507    7505    7508    7509    7507    7505    7508    7511
    7512    7513    7528    7534    7512    7513    7528    7530
    7512    7513    7528    7529    7513    7528    7534    7531
    7513    7512    7524    7527    7513    7512    7524    7526
    7513    7512    7524    7525    7513    7512    7520    7523
    7513    7512    7520    7522    7513    7512    7520    7521
    7513    7512    7516    7519    7513    7512    7516    7518
    7513    7512    7516    7517    7514    7513    7528    7534
    7514    7513    7528    7530    7514    7513    7528    7529
    7514    7513    7512    7524    7514    7513    7512    7520
    7514    7513    7512    7516    7515    7513    7528    7534
    7515    7513    7528    7530    7515    7513    7528    7529
    7515    7513    7512    7524    7515    7513    7512    7520
    7515    7513    7512    7516    7516    7512    7513    7528
    7516    7512    7524    7527    7516    7512    7524    7526
    7516    7512    7524    7525    7516    7512    7520    7523
    7516    7512    7520    7522    7516    7512    7520    7521
    7517    7516    7512    7524    7517    7516    7512    7520
    7518    7516    7512    7524    7518    7516    7512    7520
    7519    7516    7512    7524    7519    7516    7512    7520
    7520    7512    7513    7528    7520    7512    7524    7527
    7520    7512    7524    7526    7520    7512    7524    7525
    7521    7520    7512    7524    7522    7520    7512    7524
    7523    7520    7512    7524    7524    7512    7513    7528
    7528    7534    7531    7533    7528    7534    7531    7532
    7528    7534    7531    7535    7529    7528    7534    7531
    7530    7528    7534    7531    7531    7535    7536    7539
    7531    7535    7536    7538    7531    7535    7536    7537
    7532    7531    7535    7536    7533    7531    7535    7536
    7534    7531    7535    7536    7535    7536    7539    7541
    7535    7536    7539    7547    7535    7536    7539    7540
    7536    7539    7541    7542    7536    7539    7547    7550
    7536    7539    7547    7549    7536    7539    7547    7548
    7537    7536    7539    7541    7537    7536    7539    7547
    7537    7536    7539    7540    7538    7536    7539    7541
    7538    7536    7539    7547    7538    7536    7539    7540
    7539    7541    7542    7543    7539    7541    7542    7544
    7539    7547    7550    7551    7540    7539    7541    7542
    7540    7539    7547    7550    7540    7539    7547    7549
    7540    7539    7547    7548    7541    7542    7544    7556
    7541    7542    7544    7546    7541    7542    7544    7545
    7541    7539    7547    7550    7541    7539    7547    7549
    7541    7539    7547    7548    7542    7544    7556    7559
    7542    7544    7556    7558    7542    7544    7556    7557
    7542    7541    7539    7547    7543    7542    7544    7556
    7543    7542    7544    7546    7543    7542    7544    7545
    7544    7556    7559    7562    7544    7556    7559    7561
    7544    7556    7559    7560    7545    7544    7556    7559
    7545    7544    7556    7558    7545    7544    7556    7557
    7546    7544    7556    7559    7546    7544    7556    7558
    7546    7544    7556    7557    7547    7550    7551    7552
    7547    7550    7551    7553    7548    7547    7550    7551
    7549    7547    7550    7551    7550    7551    7553    7569
    7550    7551    7553    7555    7550    7551    7553    7554
    7551    7553    7569    7572    7551    7553    7569    7571
    7551    7553    7569    7570    7552    7551    7553    7569
    7552    7551    7553    7555    7552    7551    7553    7554
    7553    7569    7572    7575    7553    7569    7572    7574
    7553    7569    7572    7573    7554    7553    7569    7572
    7554    7553    7569    7571    7554    7553    7569    7570
    7555    7553    7569    7572    7555    7553    7569    7571
    7555    7553    7569    7570    7556    7559    7562    7565
    7556    7559    7562    7564    7556    7559    7562    7563
    7557    7556    7559    7562    7557    7556    7559    7561
    7557    7556    7559    7560    7558    7556    7559    7562
    7558    7556    7559    7561    7558    7556    7559    7560
    7559    7562    7565    7567    7559    7562    7565    7566
    7559    7562    7565    7568    7560    7559    7562    7565
    7560    7559    7562    7564    7560    7559    7562    7563
    7561    7559    7562    7565    7561    7559    7562    7564
    7561    7559    7562    7563    7563    7562    7565    7567
    7563    7562    7565    7566    7563    7562    7565    7568
    7564    7562    7565    7567    7564    7562    7565    7566
    7564    7562    7565    7568    7569    7572    7575    7578
    7569    7572    7575    7577    7569    7572    7575    7576
    7570    7569    7572    7575    7570    7569    7572    7574
    7570    7569    7572    7573    7571    7569    7572    7575
    7571    7569    7572    7574    7571    7569    7572    7573
    7572    7575    7578    7580    7572    7575    7578    7579
    7572    7575    7578    7581    7573    7572    7575    7578
    7573    7572    7575    7577    7573    7572    7575    7576
    7574    7572    7575    7578    7574    7572    7575    7577
    7574    7572    7575    7576    7576    7575    7578    7580
    7576    7575    7578    7579    7576    7575    7578    7581
    7577    7575    7578    7580    7577    7575    7578    7579
    7577    7575    7578    7581    7582    7586    7589    7596
    7582    7586    7589    7591    7582    7586    7589    7590
    7583    7582    7586    7589    7583    7582    7586    7588
    7583    7582    7586    7587    7584    7582    7586    7589
    7584    7582    7586    7588    7584    7582    7586    7587
    7585    7582    7586    7589    7585    7582    7586    7588
    7585    7582    7586    7587    7586    7589    7596    7592
    7587    7586    7589    7596    7587    7586    7589    7591
    7587    7586    7589    7590    7588    7586    7589    7596
    7588    7586    7589    7591    7588    7586    7589    7590
    7589    7596    7592    7594    7589    7596    7592    7593
    7589    7596    7592    7595    7590    7589    7596    7592
    7591    7589    7596    7592    7592    7595    7597    7600
    7592    7595    7597    7599    7592    7595    7597    7598
    7593    7592    7595    7597    7594    7592    7595    7597
    7595    7597    7600    7602    7595    7597    7600    7608
    7595    7597    7600    7601    7596    7592    7595    7597
    7597    7600    7602    7603    7597    7600    7608    7611
    7597    7600    7608    7610    7597    7600    7608    7609
    7598    7597    7600    7602    7598    7597    7600    7608
    7598    7597    7600    7601    7599    7597    7600    7602
    7599    7597    7600    7608    7599    7597    7600    7601
    7600    7602    7603    7604    7600    7602    7603    7605
    7600    7608    7611    7612    7601    7600    7602    7603
    7601    7600    7608    7611    7601    7600    7608    7610
    7601    7600    7608    7609    7602    7603    7605    7617
    7602    7603    7605    7607    7602    7603    7605    7606
    7602    7600    7608    7611    7602    7600    7608    7610
    7602    7600    7608    7609    7603    7605    7617    7620
    7603    7605    7617    7619    7603    7605    7617    7618
    7603    7602    7600    7608    7604    7603    7605    7617
    7604    7603    7605    7607    7604    7603    7605    7606
    7605    7617    7620    7623    7605    7617    7620    7622
    7605    7617    7620    7621    7606    7605    7617    7620
    7606    7605    7617    7619    7606    7605    7617    7618
    7607    7605    7617    7620    7607    7605    7617    7619
    7607    7605    7617    7618    7608    7611    7612    7613
    7608    7611    7612    7614    7609    7608    7611    7612
    7610    7608    7611    7612    7611    7612    7614    7630
    7611    7612    7614    7616    7611    7612    7614    7615
    7612    7614    7630    7633    7612    7614    7630    7632
    7612    7614    7630    7631    7613    7612    7614    7630
    7613    7612    7614    7616    7613    7612    7614    7615
    7614    7630    7633    7636    7614    7630    7633    7635
    7614    7630    7633    7634    7615    7614    7630    7633
    7615    7614    7630    7632    7615    7614    7630    7631
    7616    7614    7630    7633    7616    7614    7630    7632
    7616    7614    7630    7631    7617    7620    7623    7626
    7617    7620    7623    7625    7617    7620    7623    7624
    7618    7617    7620    7623    7618    7617    7620    7622
    7618    7617    7620    7621    7619    7617    7620    7623
    7619    7617    7620    7622    7619    7617    7620    7621
    7620    7623    7626    7628    7620    7623    7626    7627
    7620    7623    7626    7629    7621    7620    7623    7626
    7621    7620    7623    7625    7621    7620    7623    7624
    7622    7620    7623    7626    7622    7620    7623    7625
    7622    7620    7623    7624    7624    7623    7626    7628
    7624    7623    7626    7627    7624    7623    7626    7629
    7625    7623    7626    7628    7625    7623    7626    7627
    7625    7623    7626    7629    7630    7633    7636    7639
    7630    7633    7636    7638    7630    7633    7636    7637
    7631    7630    7633    7636    7631    7630    7633    7635
    7631    7630    7633    7634    7632    7630    7633    7636
    7632    7630    7633    7635    7632    7630    7633    7634
    7633    7636    7639    7641    7633    7636    7639    7640
    7633    7636    7639    7642    7634    7633    7636    7639
    7634    7633    7636    7638    7634    7633    7636    7637
    7635    7633    7636    7639    7635    7633    7636    7638
    7635    7633    7636    7637    7637    7636    7639    7641
    7637    7636    7639    7640    7637    7636    7639    7642
    7638    7636    7639    7641    7638    7636    7639    7640
    7638    7636    7639    7642    7643    7644    7659    7665
    7643    7644    7659    7661    7643    7644    7659    7660
    7644    7659    7665    7662    7644    7643    7655    7658
    7644    7643    7655    7657    7644    7643    7655    7656
    7644    7643    7651    7654    7644    7643    7651    7653
    7644    7643    7651    7652    7644    7643    7647    7650
    7644    7643    7647    7649    7644    7643    7647    7648
    7645    7644    7659    7665    7645    7644    7659    7661
    7645    7644    7659    7660    7645    7644    7643    7655
    7645    7644    7643    7651    7645    7644    7643    7647
    7646    7644    7659    7665    7646    7644    7659    7661
    7646    7644    7659    7660    7646    7644    7643    7655
    7646    7644    7643    7651    7646    7644    7643    7647
    7647    7643    7644    7659    7647    7643    7655    7658
    7647    7643    7655    7657    7647    7643    7655    7656
    7647    7643    7651    7654    7647    7643    7651    7653
    7647    7643    7651    7652    7648    7647    7643    7655
    7648    7647    7643    7651    7649    7647    7643    7655
    7649    7647    7643    7651    7650    7647    7643    7655
    7650    7647    7643    7651    7651    7643    7644    7659
    7651    7643    7655    7658    7651    7643    7655    7657
    7651    7643    7655    7656    7652    7651    7643    7655
    7653    7651    7643    7655    7654    7651    7643    7655
    7655    7643    7644    7659    7659    7665    7662    7664
    7659    7665    7662    7663    7659    7665    7662    7666
    7660    7659    7665    7662    7661    7659    7665    7662
    7662    7666    7667    7670    7662    7666    7667    7669
    7662    7666    7667    7668    7663    7662    7666    7667
    7664    7662    7666    7667    7665    7662    7666    7667
    7666    7667    7670    7672    7666    7667    7670    7678
    7666    7667    7670    7671    7667    7670    7672    7673
    7667    7670    7678    7681    7667    7670    7678    7680
    7667    7670    7678    7679    7668    7667    7670    7672
    7668    7667    7670    7678    7668    7667    7670    7671
    7669    7667    7670    7672    7669    7667    7670    7678
    7669    7667    7670    7671    7670    7672    7673    7674
    7670    7672    7673    7675    7670    7678    7681    7682
    7671    7670    7672    7673    7671    7670    7678    7681
    7671    7670    7678    7680    7671    7670    7678    7679
    7672    7673    7675    7687    7672    7673    7675    7677
    7672    7673    7675    7676    7672    7670    7678    7681
    7672    7670    7678    7680    7672    7670    7678    7679
    7673    7675    7687    7690    7673    7675    7687    7689
    7673    7675    7687    7688    7673    7672    7670    7678
    7674    7673    7675    7687    7674    7673    7675    7677
    7674    7673    7675    7676    7675    7687    7690    7693
    7675    7687    7690    7692    7675    7687    7690    7691
    7676    7675    7687    7690    7676    7675    7687    7689
    7676    7675    7687    7688    7677    7675    7687    7690
    7677    7675    7687    7689    7677    7675    7687    7688
    7678    7681    7682    7683    7678    7681    7682    7684
    7679    7678    7681    7682    7680    7678    7681    7682
    7681    7682    7684    7700    7681    7682    7684    7686
    7681    7682    7684    7685    7682    7684    7700    7703
    7682    7684    7700    7702    7682    7684    7700    7701
    7683    7682    7684    7700    7683    7682    7684    7686
    7683    7682    7684    7685    7684    7700    7703    7706
    7684    7700    7703    7705    7684    7700    7703    7704
    7685    7684    7700    7703    7685    7684    7700    7702
    7685    7684    7700    7701    7686    7684    7700    7703
    7686    7684    7700    7702    7686    7684    7700    7701
    7687    7690    7693    7696    7687    7690    7693    7695
    7687    7690    7693    7694    7688    7687    7690    7693
    7688    7687    7690    7692    7688    7687    7690    7691
    7689    7687    7690    7693    7689    7687    7690    7692
    7689    7687    7690    7691    7690    7693    7696    7698
    7690    7693    7696    7697    7690    7693    7696    7699
    7691    7690    7693    7696    7691    7690    7693    7695
    7691    7690    7693    7694    7692    7690    7693    7696
    7692    7690    7693    7695    7692    7690    7693    7694
    7694    7693    7696    7698    7694    7693    7696    7697
    7694    7693    7696    7699    7695    7693    7696    7698
    7695    7693    7696    7697    7695    7693    7696    7699
    7700    7703    7706    7709    7700    7703    7706    7708
    7700    7703    7706    7707    7701    7700    7703    7706
    7701    7700    7703    7705    7701    7700    7703    7704
    7702    7700    7703    7706    7702    7700    7703    7705
    7702    7700    7703    7704    7703    7706    7709    7711
    7703    7706    7709    7710    7703    7706    7709    7712
    7704    7703    7706    7709    7704    7703    7706    7708
    7704    7703    7706    7707    7705    7703    7706    7709
    7705    7703    7706    7708    7705    7703    7706    7707
    7707    7706    7709    7711    7707    7706    7709    7710
    7707    7706    7709    7712    7708    7706    7709    7711
    7708    7706    7709    7710    7708    7706    7709    7712
    7713    7726    7729    7731    7713    7726    7729    7730
    7713    7726    7729    7736    7714    7713    7718    7721
    7714    7713    7718    7720    7714    7713    7718    7719
    7714    7713    7722    7725    7714    7713    7722    7724
    7714    7713    7722    7723    7714    7713    7726    7728
    7714    7713    7726    7727    7714    7713    7726    7729
    7715    7714    7713    7718    7715    7714    7713    7722
    7715    7714    7713    7726    7716    7714    7713    7718
    7716    7714    7713    7722    7716    7714    7713    7726
    7717    7714    7713    7718    7717    7714    7713    7722
    7717    7714    7713    7726    7718    7713    7722    7725
    7718    7713    7722    7724    7718    7713    7722    7723
    7718    7713    7726    7728    7718    7713    7726    7727
    7718    7713    7726    7729    7719    7718    7713    7722
    7719    7718    7713    7726    7720    7718    7713    7722
    7720    7718    7713    7726    7721    7718    7713    7722
    7721    7718    7713    7726    7722    7713    7726    7728
    7722    7713    7726    7727    7722    7713    7726    7729
    7723    7722    7713    7726    7724    7722    7713    7726
    7725    7722    7713    7726    7726    7729    7736    7732
    7727    7726    7729    7731    7727    7726    7729    7730
    7727    7726    7729    7736    7728    7726    7729    7731
    7728    7726    7729    7730    7728    7726    7729    7736
    7729    7736    7732    7734    7729    7736    7732    7733
    7729    7736    7732    7735    7730    7729    7736    7732
    7731    7729    7736    7732    7732    7735    7737    7739
    7732    7735    7737    7738    7732    7735    7737    7742
    7733    7732    7735    7737    7734    7732    7735    7737
    7735    7737    7742    7740    7735    7737    7742    7743
    7735    7737    7742    7744    7736    7732    7735    7737
    7737    7742    7740    7756    7737    7742    7740    7741
    7737    7742    7744    7746    7737    7742    7744    7745
    7737    7742    7744    7748    7738    7737    7742    7740
    7738    7737    7742    7743    7738    7737    7742    7744
    7739    7737    7742    7740    7739    7737    7742    7743
    7739    7737    7742    7744    7740    7756    7758    7761
    7740    7756    7758    7760    7740    7756    7758    7759
    7740    7742    7744    7746    7740    7742    7744    7745
    7740    7742    7744    7748    7741    7740    7756    7757
    7741    7740    7756    7758    7741    7740    7742    7743
    7741    7740    7742    7744    7742    7740    7756    7757
    7742    7740    7756    7758    7742    7744    7746    7747
    7742    7744    7748    7750    7742    7744    7748    7749
    7743    7742    7740    7756    7743    7742    7744    7746
    7743    7742    7744    7745    7743    7742    7744    7748
    7744    7742    7740    7756    7744    7748    7750    7751
    7744    7748    7750    7752    7745    7744    7746    7747
    7745    7744    7748    7750    7745    7744    7748    7749
    7746    7744    7748    7750    7746    7744    7748    7749
    7747    7746    7744    7748    7748    7750    7752    7754
    7748    7750    7752    7753    7748    7750    7752    7755
    7749    7748    7750    7751    7749    7748    7750    7752
    7751    7750    7752    7754    7751    7750    7752    7753
    7751    7750    7752    7755    7756    7758    7761    7764
    7756    7758    7761    7763    7756    7758    7761    7762
    7757    7756    7758    7761    7757    7756    7758    7760
    7757    7756    7758    7759    7758    7761    7764    7767
    7758    7761    7764    7766    7758    7761    7764    7765
    7759    7758    7761    7764    7759    7758    7761    7763
    7759    7758    7761    7762    7760    7758    7761    7764
    7760    7758    7761    7763    7760    7758    7761    7762
    7761    7764    7767    7770    7761    7764    7767    7769
    7761    7764    7767    7768    7762    7761    7764    7767
    7762    7761    7764    7766    7762    7761    7764    7765
    7763    7761    7764    7767    7763    7761    7764    7766
    7763    7761    7764    7765    7764    7767    7770    7772
    7764    7767    7770    7771    7764    7767    7770    7773
    7765    7764    7767    7770    7765    7764    7767    7769
    7765    7764    7767    7768    7766    7764    7767    7770
    7766    7764    7767    7769    7766    7764    7767    7768
    7768    7767    7770    7772    7768    7767    7770    7771
    7768    7767    7770    7773    7769    7767    7770    7772
    7769    7767    7770    7771    7769    7767    7770    7773
    7774    7775    7790    7796    7774    7775    7790    7792
    7774    7775    7790    7791    7775    7790    7796    7793
    7775    7774    7786    7789    7775    7774    7786    7788
    7775    7774    7786    7787    7775    7774    7782    7785
    7775    7774    7782    7784    7775    7774    7782    7783
    7775    7774    7778    7781    7775    7774    7778    7780
    7775    7774    7778    7779    7776    7775    7790    7796
    7776    7775    7790    7792    7776    7775    7790    7791
    7776    7775    7774    7786    7776    7775    7774    7782
    7776    7775    7774    7778    7777    7775    7790    7796
    7777    7775    7790    7792    7777    7775    7790    7791
    7777    7775    7774    7786    7777    7775    7774    7782
    7777    7775    7774    7778    7778    7774    7775    7790
    7778    7774    7786    7789    7778    7774    7786    7788
    7778    7774    7786    7787    7778    7774    7782    7785
    7778    7774    7782    7784    7778    7774    7782    7783
    7779    7778    7774    7786    7779    7778    7774    7782
    7780    7778    7774    7786    7780    7778    7774    7782
    7781    7778    7774    7786    7781    7778    7774    7782
    7782    7774    7775    7790    7782    7774    7786    7789
    7782    7774    7786    7788    7782    7774    7786    7787
    7783    7782    7774    7786    7784    7782    7774    7786
    7785    7782    7774    7786    7786    7774    7775    7790
    7790    7796    7793    7795    7790    7796    7793    7794
    7790    7796    7793    7797    7791    7790    7796    7793
    7792    7790    7796    7793    7793    7797    7798    7801
    7793    7797    7798    7800    7793    7797    7798    7799
    7794    7793    7797    7798    7795    7793    7797    7798
    7796    7793    7797    7798    7797    7798    7801    7803
    7797    7798    7801    7809    7797    7798    7801    7802
    7798    7801    7803    7804    7798    7801    7809    7812
    7798    7801    7809    7811    7798    7801    7809    7810
    7799    7798    7801    7803    7799    7798    7801    7809
    7799    7798    7801    7802    7800    7798    7801    7803
    7800    7798    7801    7809    7800    7798    7801    7802
    7801    7803    7804    7805    7801    7803    7804    7806
    7801    7809    7812    7813    7802    7801    7803    7804
    7802    7801    7809    7812    7802    7801    7809    7811
    7802    7801    7809    7810    7803    7804    7806    7818
    7803    7804    7806    7808    7803    7804    7806    7807
    7803    7801    7809    7812    7803    7801    7809    7811
    7803    7801    7809    7810    7804    7806    7818    7821
    7804    7806    7818    7820    7804    7806    7818    7819
    7804    7803    7801    7809    7805    7804    7806    7818
    7805    7804    7806    7808    7805    7804    7806    7807
    7806    7818    7821    7824    7806    7818    7821    7823
    7806    7818    7821    7822    7807    7806    7818    7821
    7807    7806    7818    7820    7807    7806    7818    7819
    7808    7806    7818    7821    7808    7806    7818    7820
    7808    7806    7818    7819    7809    7812    7813    7814
    7809    7812    7813    7815    7810    7809    7812    7813
    7811    7809    7812    7813    7812    7813    7815    7831
    7812    7813    7815    7817    7812    7813    7815    7816
    7813    7815    7831    7834    7813    7815    7831    7833
    7813    7815    7831    7832    7814    7813    7815    7831
    7814    7813    7815    7817    7814    7813    7815    7816
    7815    7831    7834    7837    7815    7831    7834    7836
    7815    7831    7834    7835    7816    7815    7831    7834
    7816    7815    7831    7833    7816    7815    7831    7832
    7817    7815    7831    7834    7817    7815    7831    7833
    7817    7815    7831    7832    7818    7821    7824    7827
    7818    7821    7824    7826    7818    7821    7824    7825
    7819    7818    7821    7824    7819    7818    7821    7823
    7819    7818    7821    7822    7820    7818    7821    7824
    7820    7818    7821    7823    7820    7818    7821    7822
    7821    7824    7827    7829    7821    7824    7827    7828
    7821    7824    7827    7830    7822    7821    7824    7827
    7822    7821    7824    7826    7822    7821    7824    7825
    7823    7821    7824    7827    7823    7821    7824    7826
    7823    7821    7824    7825    7825    7824    7827    7829
    7825    7824    7827    7828    7825    7824    7827    7830
    7826    7824    7827    7829    7826    7824    7827    7828
    7826    7824    7827    7830    7831    7834    7837    7840
    7831    7834    7837    7839    7831    7834    7837    7838
    7832    7831    7834    7837    7832    7831    7834    7836
    7832    7831    7834    7835    7833    7831    7834    7837
    7833    7831    7834    7836    7833    7831    7834    7835
    7834    7837    7840    7842    7834    7837    7840    7841
    7834    7837    7840    7843    7835    7834    7837    7840
    7835    7834    7837    7839    7835    7834    7837    7838
    7836    7834    7837    7840    7836    7834    7837    7839
    7836    7834    7837    7838    7838    7837    7840    7842
    7838    7837    7840    7841    7838    7837    7840    7843
    7839    7837    7840    7842    7839    7837    7840    7841
    7839    7837    7840    7843    7844    7848    7853    7859
    7844    7848    7853    7855    7844    7848    7853    7854
    7844    7848    7850    7851    7844    7848    7850    7852
    7845    7844    7848    7853    7845    7844    7848    7849
    7845    7844    7848    7850    7846    7844    7848    7853
    7846    7844    7848    7849    7846    7844    7848    7850
    7847    7844    7848    7853    7847    7844    7848    7849
    7847    7844    7848    7850    7848    7853    7859    7856
    7849    7848    7853    7859    7849    7848    7853    7855
    7849    7848    7853    7854    7849    7848    7850    7851
    7849    7848    7850    7852    7850    7848    7853    7859
    7850    7848    7853    7855    7850    7848    7853    7854
    7851    7850    7848    7853    7852    7850    7848    7853
    7853    7859    7856    7858    7853    7859    7856    7857
    7853    7859    7856    7860    7854    7853    7859    7856
    7855    7853    7859    7856    7856    7860    7861    7864
    7856    7860    7861    7863    7856    7860    7861    7862
    7857    7856    7860    7861    7858    7856    7860    7861
    7859    7856    7860    7861    7860    7861    7864    7866
    7860    7861    7864    7872    7860    7861    7864    7865
    7861    7864    7866    7867    7861    7864    7872    7875
    7861    7864    7872    7874    7861    7864    7872    7873
    7862    7861    7864    7866    7862    7861    7864    7872
    7862    7861    7864    7865    7863    7861    7864    7866
    7863    7861    7864    7872    7863    7861    7864    7865
    7864    7866    7867    7868    7864    7866    7867    7869
    7864    7872    7875    7876    7865    7864    7866    7867
    7865    7864    7872    7875    7865    7864    7872    7874
    7865    7864    7872    7873    7866    7867    7869    7881
    7866    7867    7869    7871    7866    7867    7869    7870
    7866    7864    7872    7875    7866    7864    7872    7874
    7866    7864    7872    7873    7867    7869    7881    7884
    7867    7869    7881    7883    7867    7869    7881    7882
    7867    7866    7864    7872    7868    7867    7869    7881
    7868    7867    7869    7871    7868    7867    7869    7870
    7869    7881    7884    7887    7869    7881    7884    7886
    7869    7881    7884    7885    7870    7869    7881    7884
    7870    7869    7881    7883    7870    7869    7881    7882
    7871    7869    7881    7884    7871    7869    7881    7883
    7871    7869    7881    7882    7872    7875    7876    7877
    7872    7875    7876    7878    7873    7872    7875    7876
    7874    7872    7875    7876    7875    7876    7878    7894
    7875    7876    7878    7880    7875    7876    7878    7879
    7876    7878    7894    7897    7876    7878    7894    7896
    7876    7878    7894    7895    7877    7876    7878    7894
    7877    7876    7878    7880    7877    7876    7878    7879
    7878    7894    7897    7900    7878    7894    7897    7899
    7878    7894    7897    7898    7879    7878    7894    7897
    7879    7878    7894    7896    7879    7878    7894    7895
    7880    7878    7894    7897    7880    7878    7894    7896
    7880    7878    7894    7895    7881    7884    7887    7890
    7881    7884    7887    7889    7881    7884    7887    7888
    7882    7881    7884    7887    7882    7881    7884    7886
    7882    7881    7884    7885    7883    7881    7884    7887
    7883    7881    7884    7886    7883    7881    7884    7885
    7884    7887    7890    7892    7884    7887    7890    7891
    7884    7887    7890    7893    7885    7884    7887    7890
    7885    7884    7887    7889    7885    7884    7887    7888
    7886    7884    7887    7890    7886    7884    7887    7889
    7886    7884    7887    7888    7888    7887    7890    7892
    7888    7887    7890    7891    7888    7887    7890    7893
    7889    7887    7890    7892    7889    7887    7890    7891
    7889    7887    7890    7893    7894    7897    7900    7903
    7894    7897    7900    7902    7894    7897    7900    7901
    7895    7894    7897    7900    7895    7894    7897    7899
    7895    7894    7897    7898    7896    7894    7897    7900
    7896    7894    7897    7899    7896    7894    7897    7898
    7897    7900    7903    7905    7897    7900    7903    7904
    7897    7900    7903    7906    7898    7897    7900    7903
    7898    7897    7900    7902    7898    7897    7900    7901
    7899    7897    7900    7903    7899    7897    7900    7902
    7899    7897    7900    7901    7901    7900    7903    7905
    7901    7900    7903    7904    7901    7900    7903    7906
    7902    7900    7903    7905    7902    7900    7903    7904
    7902    7900    7903    7906

     190 !NIMPHI: impropers
       5       1       7       6       7       5       9       8
      17      19      14      18      17      14      19      18
      19      17      20      21      19      17      21      20
      22       9      24      23      24      22      26      25
      32      26      34      33      34      32      38      35
      46      38      48      47      48      46      50      49
      56      50      58      57      58      56      60      59
      77      60      79      78      79      77      81      80
      99      81     101     100     101      99     103     102
     121     103     123     122     123     121     125     124
     131     125     133     132     133     131     135     134
     141     135     143     142     143     141     145     144
     163     145     165     164     165     163     167     166
     185     167     187     186     187     185     189     188
     204     189     206     205     206     204     208     207
     214     208     216     215     216     214     218     217
     226     223     228     227     229     218     231     230
     231     229     233     232     240     233     242     241
     242     240     244     243    1829    1845    1831    1830
    1845    1847    1829    1846    1893    1892    1895    1894
    1902    1901    1904    1903    1939    1937    1941    1940
    1956    1955    1958    1957    1965    1964    1967    1966
    2023    2039    2025    2024    2039    2041    2023    2040
    2087    2086    2089    2088    2096    2095    2098    2097
    2148    2147    2150    2149    2157    2156    2159    2158
    2194    2192    2196    2195    2211    2210    2213    2212
    2220    2219    2222    2221    2272    2271    2274    2273
    2281    2280    2283    2282    2318    2316    2320    2319
    2335    2334    2337    2336    2344    2343    2346    2345
    2405    2404    2407    2406    2414    2413    2416    2415
    2466    2465    2468    2467    2475    2474    2477    2476
    2536    2535    2538    2537    2545    2544    2547    2546
    2582    2580    2584    2583    2599    2598    2601    2600
    2608    2607    2610    2609    2666    2682    2668    2667
    2682    2684    2666    2683    2730    2729    2732    2731
    2739    2738    2741    2740    2776    2774    2778    2777
    2793    2792    2795    2794    2802    2801    2804    2803
    2860    2876    2862    2861    2876    2878    2860    2877
    2924    2923    2926    2925    2933    2932    2935    2934
    2991    3007    2993    2992    3007    3009    2991    3008
    3046    3045    3048    3047    3055    3054    3057    3056
    3116    3115    3118    3117    3125    3124    3127    3126
    3186    3185    3188    3187    3195    3194    3197    3196
    3247    3246    3249    3248    3256    3255    3258    3257
    3317    3316    3319    3318    3326    3325    3328    3327
    3378    3377    3380    3379    3387    3386    3389    3388
    3439    3438    3441    3440    3448    3447    3450    3449
    3500    3499    3502    3501    3509    3508    3511    3510
    3567    3583    3569    3568    3583    3585    3567    3584
    3628    3644    3630    3629    3644    3646    3628    3645
    3683    3682    3685    3684    3692    3691    3694    3693
    3744    3743    3746    3745    3753    3752    3755    3754
    3811    3827    3813    3812    3827    3829    3811    3828
    3851    3849    3853    3852    3868    3867    3870    3869
    3877    3876    3879    3878    3929    3928    3931    3930
    3938    3937    3940    3939    3999    3998    4001    4000
    4008    4007    4010    4009    4060    4059    4062    4061
    4069    4068    4071    4070    4130    4129    4132    4131
    4139    4138    4141    4140    4200    4199    4202    4201
    4209    4208    4211    4210    4267    4283    4269    4268
    4283    4285    4267    4284    5861    5859    5863    5862
    5878    5877    5880    5879    5887    5886    5889    5888
    5945    5961    5947    5946    5961    5963    5945    5962
    5985    5983    5987    5986    6002    6001    6004    6003
    6011    6010    6013    6012    6048    6046    6050    6049
    6065    6064    6067    6066    6074    6073    6076    6075
    6135    6134    6137    6136    6144    6143    6146    6145
    6202    6218    6204    6203    6218    6220    6202    6219
    6266    6265    6268    6267    6275    6274    6277    6276
    6333    6349    6335    6334    6349    6351    6333    6350
    6388    6387    6390    6389    6397    6396    6399    6398
    6434    6432    6436    6435    6451    6450    6453    6452
    6460    6459    6462    6461    6521    6520    6523    6522
    6530    6529    6532    6531    6582    6581    6584    6583
    6591    6590    6593    6592    6652    6651    6654    6653
    6661    6660    6663    6662    6719    6735    6721    6720
    6735    6737    6719    6736    6783    6782    6785    6784
    6792    6791    6794    6793    6844    6843    6846    6845
    6853    6852    6855    6854    6905    6904    6907    6906
    6914    6913    6916    6915    6966    6965    6968    6967
    6975    6974    6977    6976    7027    7026    7029    7028
    7036    7035    7038    7037    7094    7110    7096    7095
    7110    7112    7094    7111    7158    7157    7160    7159
    7167    7166    7169    7168    7219    7218    7221    7220
    7228    7227    7230    7229    7289    7288    7291    7290
    7298    7297    7300    7299    7350    7349    7352    7351
    7359    7358    7361    7360    7411    7410    7413    7412
    7420    7419    7422    7421    7478    7494    7480    7479
    7494    7496    7478    7495    7542    7541    7544    7543
    7551    7550    7553    7552    7603    7602    7605    7604
    7612    7611    7614    7613    7673    7672    7675    7674
    7682    7681    7684    7683    7740    7756    7742    7741
    7756    7758    7740    7757    7804    7803    7806    7805
    7813    7812    7815    7814    7850    7848    7852    7851
    7867    7866    7869    7868    7876    7875    7878    7877

       0 !NDON: donors


       0 !NACC: acceptors


       0 !NNB

       0       0       0       0       0       0       0       0
       0       0       0       0       0       0       0       0
       0       0       0       0       0       0       0       0
       0       0       0       0       0       0       0       0
       0       0       0       0       0       0       0       0
       0       0       0       0       0       0       0       0
       0       0       0       0       0       0       0       0
       0       0       0       0       0       0       0       0
       0       0       0       0       0       0       0       0
       0       0       0       0       0       0       0       0
       0       0       0       0       0       0       0       0
       0       0       0       0       0       0       0       0
       0       0       0       0       0       0       0       0
       0       0       0       0       0       0       0       0
       0       0       0       0       0       0       0       0
       0       0       0       0       0       0       0       0
       0       0       0       0       0       0       0       0
       0       0       0       0       0       0       0       0
       0       0       0       0       0       0       0       0
       0       0       0       0       0       0       0       0
       0       0       0       0       0       0       0       0
       0       0       0       0       0       0       0       0
       0       0       0       0       0       0       0       0
       0       0       0       0       0       0       0       0
       0       0       0       0       0       0       0       0
       0       0       0       0       0       0       0       0
       0       0       0       0       0       0       0       0
       0       0       0       0       0       0       0       0
       0       0       0       0       0       0       0       0
       0       0       0       0       0       0       0       0
       0       0       0       0       0       0       0       0
       0       0       0       0       0       0       0       0
       0       0       0       0       0       0       0       0
       0       0       0       0       0       0       0       0
       0       0       0       0       0       0       0       0
       0       0       0       0       0       0       0       0
       0       0       0       0       0       0       0       0
       0       0       0       0       0       0       0       0
       0       0       0       0       0       0       0       0
       0       0       0       0       0       0       0       0
       0       0       0       0       0       0       0       0
       0       0       0       0       0       0       0       0
       0       0       0       0       0       0       0       0
       0       0       0       0       0       0       0       0
       0       0       0       0       0       0       0       0
       0       0       0       0       0       0       0       0
       0       0       0       0       0       0       0       0
       0       0       0       0       0       0       0       0
       0       0       0       0       0       0       0       0
       0       0       0       0       0       0       0       0
       0       0       0       0       0       0       0       0
       0       0       0       0       0       0       0       0
       0       0       0       0       0       0       0       0
       0       0       0       0       0       0       0       0
       0       0       0       0       0       0       0       0
       0       0       0       0       0       0       0       0
       0       0       0       0       0       0       0       0
       0       0       0       0       0       0       0       0
       0       0       0       0       0       0       0       0
       0       0       0       0       0       0       0       0
       0       0       0       0       0       0       0       0
       0       0       0       0       0       0       0       0
       0       0       0       0       0       0       0       0
       0       0       0       0       0       0       0       0
       0       0       0       0       0       0       0       0
       0       0       0       0       0       0       0       0
       0       0       0       0       0       0       0       0
       0       0       0       0       0       0       0       0
       0       0       0       0       0       0       0       0
       0       0       0       0       0       0       0       0
       0       0       0       0       0       0       0       0
       0       0       0       0       0       0       0       0
       0       0       0       0       0       0       0       0
       0       0       0       0       0       0       0       0
       0       0       0       0       0       0       0       0
       0       0       0       0       0       0       0       0
       0       0       0       0       0       0       0       0
       0       0       0       0       0       0       0       0
       0       0       0       0       0       0       0       0
       0       0       0       0       0       0       0       0
       0       0       0       0       0       0       0       0
       0       0       0       0       0       0       0       0
       0       0       0       0       0       0       0       0
       0       0       0       0       0       0       0       0
       0       0       0       0       0       0       0       0
       0       0       0       0       0       0       0       0
       0       0       0       0       0       0       0       0
       0       0       0       0       0       0       0       0
       0       0       0       0       0       0       0       0
       0       0       0       0       0       0       0       0
       0       0       0       0       0       0       0       0
       0       0       0       0       0       0       0       0
       0       0       0       0       0       0       0       0
       0       0       0       0       0       0       0       0
       0       0       0       0       0       0       0       0
       0       0       0       0       0       0       0       0
       0       0       0       0       0       0       0       0
       0       0       0       0       0       0       0       0
       0       0       0       0       0       0       0       0
       0       0       0       0       0       0       0       0
       0       0       0       0       0       0       0       0
       0       0       0       0       0       0       0       0
       0       0       0       0       0       0       0       0
       0       0       0       0       0       0       0       0
       0       0       0       0       0       0       0       0
       0       0       0       0       0       0       0       0
       0       0       0       0       0       0       0       0
       0       0       0       0       0       0       0       0
       0       0       0       0       0       0       0       0
       0       0       0       0       0       0       0       0
       0       0       0       0       0       0       0       0
       0       0       0       0       0       0       0       0
       0       0       0       0       0       0       0       0
       0       0       0       0       0       0       0       0
       0       0       0       0       0       0       0       0
       0       0       0       0       0       0       0       0
       0       0       0       0       0       0       0       0
       0       0       0       0       0       0       0       0
       0       0       0       0       0       0       0       0
       0       0       0       0       0       0       0       0
       0       0       0       0       0       0       0       0
       0       0       0       0       0       0       0       0
       0       0       0       0       0       0       0       0
       0       0       0       0       0       0       0       0
       0       0       0       0       0       0       0       0
       0       0       0       0       0       0       0       0
       0       0       0       0       0       0       0       0
       0       0       0       0       0       0       0       0
       0       0       0       0       0       0       0       0
       0       0       0       0       0       0       0       0
       0       0       0       0       0       0       0       0
       0       0       0       0       0       0       0       0
       0       0       0       0       0       0       0       0
       0       0       0       0       0       0       0       0
       0       0       0       0       0       0       0       0
       0       0       0       0       0       0       0       0
       0       0       0       0       0       0       0       0
       0       0       0       0       0       0       0       0
       0       0       0       0       0       0       0       0
       0       0       0       0       0       0       0       0
       0       0       0       0       0       0       0       0
       0       0       0       0       0       0       0       0
       0       0       0       0       0       0       0       0
       0       0       0       0       0       0       0       0
       0       0       0       0       0       0       0       0
       0       0       0       0       0       0       0       0
       0       0       0       0       0       0       0       0
       0       0       0       0       0       0       0       0
       0       0       0       0       0       0       0       0
       0       0       0       0       0       0       0       0
       0       0       0       0       0       0       0       0
       0       0       0       0       0       0       0       0
       0       0       0       0       0       0       0       0
       0       0       0       0       0       0       0       0
       0       0       0       0       0       0       0       0
       0       0       0       0       0       0       0       0
       0       0       0       0       0       0       0       0
       0       0       0       0       0       0       0       0
       0       0       0       0       0       0       0       0
       0       0       0       0       0       0       0       0
       0       0       0       0       0       0       0       0
       0       0       0       0       0       0       0       0
       0       0       0       0       0       0       0       0
       0       0       0       0       0       0       0       0
       0       0       0       0       0       0       0       0
       0       0       0       0       0       0       0       0
       0       0       0       0       0       0       0       0
       0       0       0       0       0       0       0       0
       0       0       0       0       0       0       0       0
       0       0       0       0       0       0       0       0
       0       0       0       0       0       0       0       0
       0       0       0       0       0       0       0       0
       0       0       0       0       0       0       0       0
       0       0       0       0       0       0       0       0
       0       0       0       0       0       0       0       0
       0       0       0       0       0       0       0       0
       0       0       0       0       0       0       0       0
       0       0       0       0       0       0       0       0
       0       0       0       0       0       0       0       0
       0       0       0       0       0       0       0       0
       0       0       0       0       0       0       0       0
       0       0       0       0       0       0       0       0
       0       0       0       0       0       0       0       0
       0       0       0       0       0       0       0       0
       0       0       0       0       0       0       0       0
       0       0       0       0       0       0       0       0
       0       0       0       0       0       0       0       0
       0       0       0       0       0       0       0       0
       0       0       0       0       0       0       0       0
       0       0       0       0       0       0       0       0
       0       0       0       0       0       0       0       0
       0       0       0       0       0       0       0       0
       0       0       0       0       0       0       0       0
       0       0       0       0       0       0       0       0
       0       0       0       0       0       0       0       0
       0       0       0       0       0       0       0       0
       0       0       0       0       0       0       0       0
       0       0       0       0       0       0       0       0
       0       0       0       0       0       0       0       0
       0       0       0       0       0       0       0       0
       0       0       0       0       0       0       0       0
       0       0       0       0       0       0       0       0
       0       0       0       0       0       0       0       0
       0       0       0       0       0       0       0       0
       0       0       0       0       0       0       0       0
       0       0       0       0       0       0       0       0
       0       0       0       0       0       0       0       0
       0       0       0       0       0       0       0       0
       0       0       0       0       0       0       0       0
       0       0       0       0       0       0       0       0
       0       0       0       0       0       0       0       0
       0       0       0       0       0       0       0       0
       0       0       0       0       0       0       0       0
       0       0       0       0       0       0       0       0
       0       0       0       0       0       0       0       0
       0       0       0       0       0       0       0       0
       0       0       0       0       0       0       0       0
       0       0       0       0       0       0       0       0
       0       0       0       0       0       0       0       0
       0       0       0       0       0       0       0       0
       0       0       0       0       0       0       0       0
       0       0       0       0       0       0       0       0
       0       0       0       0       0       0       0       0
       0       0       0       0       0       0       0       0
       0       0       0       0       0       0       0       0
       0       0       0       0       0       0       0       0
       0       0       0       0       0       0       0       0
       0       0       0       0       0       0       0       0
       0       0       0       0       0       0       0       0
       0       0       0       0       0       0       0       0
       0       0       0       0       0       0       0       0
       0       0       0       0       0       0       0       0
       0       0       0       0       0       0       0       0
       0       0       0       0       0       0       0       0
       0       0       0       0       0       0       0       0
       0       0       0       0       0       0       0       0
       0       0       0       0       0       0       0       0
       0       0       0       0       0       0       0       0
       0       0       0       0       0       0       0       0
       0       0       0       0       0       0       0       0
       0       0       0       0       0       0       0       0
       0       0       0       0       0       0       0       0
       0       0       0       0       0       0       0       0
       0       0       0       0       0       0       0       0
       0       0       0       0       0       0       0       0
       0       0       0       0       0       0       0       0
       0       0       0       0       0       0       0       0
       0       0       0       0       0       0       0       0
       0       0       0       0       0       0       0       0
       0       0       0       0       0       0       0       0
       0       0       0       0       0       0       0       0
       0       0       0       0       0       0       0       0
       0       0       0       0       0       0       0       0
       0       0       0       0       0       0       0       0
       0       0       0       0       0       0       0       0
       0       0       0       0       0       0       0       0
       0       0       0       0       0       0       0       0
       0       0       0       0       0       0       0       0
       0       0       0       0       0       0       0       0
       0       0       0       0       0       0       0       0
       0       0       0       0       0       0       0       0
       0       0       0       0       0       0       0       0
       0       0       0       0       0       0       0       0
       0       0       0       0       0       0       0       0
       0       0       0       0       0       0       0       0
       0       0       0       0       0       0       0       0
       0       0       0       0       0       0       0       0
       0       0       0       0       0       0       0       0
       0       0       0       0       0       0       0       0
       0       0       0       0       0       0       0       0
       0       0       0       0       0       0       0       0
       0       0       0       0       0       0       0       0
       0       0       0       0       0       0       0       0
       0       0       0       0       0       0       0       0
       0       0       0       0       0       0       0       0
       0       0       0       0       0       0       0       0
       0       0       0       0       0       0       0       0
       0       0       0       0       0       0       0       0
       0       0       0       0       0       0       0       0
       0       0       0       0       0       0       0       0
       0       0       0       0       0       0       0       0
       0       0       0       0       0       0       0       0
       0       0       0       0       0       0       0       0
       0       0       0       0       0       0       0       0
       0       0       0       0       0       0       0       0
       0       0       0       0       0       0       0       0
       0       0       0       0       0       0       0       0
       0       0       0       0       0       0       0       0
       0       0       0       0       0       0       0       0
       0       0       0       0       0       0       0       0
       0       0       0       0       0       0       0       0
       0       0       0       0       0       0       0       0
       0       0       0       0       0       0       0       0
       0       0       0       0       0       0       0       0
       0       0       0       0       0       0       0       0
       0       0       0       0       0       0       0       0
       0       0       0       0       0       0       0       0
       0       0       0       0       0       0       0       0
       0       0       0       0       0       0       0       0
       0       0       0       0       0       0       0       0
       0       0       0       0       0       0       0       0
       0       0       0       0       0       0       0       0
       0       0       0       0       0       0       0       0
       0       0       0       0       0       0       0       0
       0       0       0       0       0       0       0       0
       0       0       0       0       0       0       0       0
       0       0       0       0       0       0       0       0
       0       0       0       0       0       0       0       0
       0       0       0       0       0       0       0       0
       0       0       0       0       0       0       0       0
       0       0       0       0       0       0       0       0
       0       0       0       0       0       0       0       0
       0       0       0       0       0       0       0       0
       0       0       0       0       0       0       0       0
       0       0       0       0       0       0       0       0
       0       0       0       0       0       0       0       0
       0       0       0       0       0       0       0       0
       0       0       0       0       0       0       0       0
       0       0       0       0       0       0       0       0
       0       0       0       0       0       0       0       0
       0       0       0       0       0       0       0       0
       0       0       0       0       0       0       0       0
       0       0       0       0       0       0       0       0
       0       0       0       0       0       0       0       0
       0       0       0       0       0       0       0       0
       0       0       0       0       0       0       0       0
       0       0       0       0       0       0       0       0
       0       0       0       0       0       0       0       0
       0       0       0       0       0       0       0       0
       0       0       0       0       0       0       0       0
       0       0       0       0       0       0       0       0
       0       0       0       0       0       0       0       0
       0       0       0       0       0       0       0       0
       0       0       0       0       0       0       0       0
       0       0       0       0       0       0       0       0
       0       0       0       0       0       0       0       0
       0       0       0       0       0       0       0       0
       0       0       0       0       0       0       0       0
       0       0       0       0       0       0       0       0
       0       0       0       0       0       0       0       0
       0       0       0       0       0       0       0       0
       0       0       0       0       0       0       0       0
       0       0       0       0       0       0       0       0
       0       0       0       0       0       0       0       0
       0       0       0       0       0       0       0       0
       0       0       0       0       0       0       0       0
       0       0       0       0       0       0       0       0
       0       0       0       0       0       0       0       0
       0       0       0       0       0       0       0       0
       0       0       0       0       0       0       0       0
       0       0       0       0       0       0       0       0
       0       0       0       0       0       0       0       0
       0       0       0       0       0       0       0       0
       0       0       0       0       0       0       0       0
       0       0       0       0       0       0       0       0
       0       0       0       0       0       0       0       0
       0       0       0       0       0       0       0       0
       0       0       0       0       0       0       0       0
       0       0       0       0       0       0       0       0
       0       0       0       0       0       0       0       0
       0       0       0       0       0       0       0       0
       0       0       0       0       0       0       0       0
       0       0       0       0       0       0       0       0
       0       0       0       0       0       0       0       0
       0       0       0       0       0       0       0       0
       0       0       0       0       0       0       0       0
       0       0       0       0       0       0       0       0
       0       0       0       0       0       0       0       0
       0       0       0       0       0       0       0       0
       0       0       0       0       0       0       0       0
       0       0       0       0       0       0       0       0
       0       0       0       0       0       0       0       0
       0       0       0       0       0       0       0       0
       0       0       0       0       0       0       0       0
       0       0       0       0       0       0       0       0
       0       0       0       0       0       0       0       0
       0       0       0       0       0       0       0       0
       0       0       0       0       0       0       0       0
       0       0       0       0       0       0       0       0
       0       0       0       0       0       0       0       0
       0       0       0       0       0       0       0       0
       0       0       0       0       0       0       0       0
       0       0       0       0       0       0       0       0
       0       0       0       0       0       0       0       0
       0       0       0       0       0       0       0       0
       0       0       0       0       0       0       0       0
       0       0       0       0       0       0       0       0
       0       0       0       0       0       0       0       0
       0       0       0       0       0       0       0       0
       0       0       0       0       0       0       0       0
       0       0       0       0       0       0       0       0
       0       0       0       0       0       0       0       0
       0       0       0       0       0       0       0       0
       0       0       0       0       0       0       0       0
       0       0       0       0       0       0       0       0
       0       0       0       0       0       0       0       0
       0       0       0       0       0       0       0       0
       0       0       0       0       0       0       0       0
       0       0       0       0       0       0       0       0
       0       0       0       0       0       0       0       0
       0       0       0       0       0       0       0       0
       0       0       0       0       0       0       0       0
       0       0       0       0       0       0       0       0
       0       0       0       0       0       0       0       0
       0       0       0       0       0       0       0       0
       0       0       0       0       0       0       0       0
       0       0       0       0       0       0       0       0
       0       0       0       0       0       0       0       0
       0       0       0       0       0       0       0       0
       0       0       0       0       0       0       0       0
       0       0       0       0       0       0       0       0
       0       0       0       0       0       0       0       0
       0       0       0       0       0       0       0       0
       0       0       0       0       0       0       0       0
       0       0       0       0       0       0       0       0
       0       0       0       0       0       0       0       0
       0       0       0       0       0       0       0       0
       0       0       0       0       0       0       0       0
       0       0       0       0       0       0       0       0
       0       0       0       0       0       0       0       0
       0       0       0       0       0       0       0       0
       0       0       0       0       0       0       0       0
       0       0       0       0       0       0       0       0
       0       0       0       0       0       0       0       0
       0       0       0       0       0       0       0       0
       0       0       0       0       0       0       0       0
       0       0       0       0       0       0       0       0
       0       0       0       0       0       0       0       0
       0       0       0       0       0       0       0       0
       0       0       0       0       0       0       0       0
       0       0       0       0       0       0       0       0
       0       0       0       0       0       0       0       0
       0       0       0       0       0       0       0       0
       0       0       0       0       0       0       0       0
       0       0       0       0       0       0       0       0
       0       0       0       0       0       0       0       0
       0       0       0       0       0       0       0       0
       0       0       0       0       0       0       0       0
       0       0       0       0       0       0       0       0
       0       0       0       0       0       0       0       0
       0       0       0       0       0       0       0       0
       0       0       0       0       0       0       0       0
       0       0       0       0       0       0       0       0
       0       0       0       0       0       0       0       0
       0       0       0       0       0       0       0       0
       0       0       0       0       0       0       0       0
       0       0       0       0       0       0       0       0
       0       0       0       0       0       0       0       0
       0       0       0       0       0       0       0       0
       0       0       0       0       0       0       0       0
       0       0       0       0       0       0       0       0
       0       0       0       0       0       0       0       0
       0       0       0       0       0       0       0       0
       0       0       0       0       0       0       0       0
       0       0       0       0       0       0       0       0
       0       0       0       0       0       0       0       0
       0       0       0       0       0       0       0       0
       0       0       0       0       0       0       0       0
       0       0       0       0       0       0       0       0
       0       0       0       0       0       0       0       0
       0       0       0       0       0       0       0       0
       0       0       0       0       0       0       0       0
       0       0       0       0       0       0       0       0
       0       0       0       0       0       0       0       0
       0       0       0       0       0       0       0       0
       0       0       0       0       0       0       0       0
       0       0       0       0       0       0       0       0
       0       0       0       0       0       0       0       0
       0       0       0       0       0       0       0       0
       0       0       0       0       0       0       0       0
       0       0       0       0       0       0       0       0
       0       0       0       0       0       0       0       0
       0       0       0       0       0       0       0       0
       0       0       0       0       0       0       0       0
       0       0       0       0       0       0       0       0
       0       0       0       0       0       0       0       0
       0       0       0       0       0       0       0       0
       0       0       0       0       0       0       0       0
       0       0       0       0       0       0       0       0
       0       0       0       0       0       0       0       0
       0       0       0       0       0       0       0       0
       0       0       0       0       0       0       0       0
       0       0       0       0       0       0       0       0
       0       0       0       0       0       0       0       0
       0       0       0       0       0       0       0       0
       0       0       0       0       0       0       0       0
       0       0       0       0       0       0       0       0
       0       0       0       0       0       0       0       0
       0       0       0       0       0       0       0       0
       0       0       0       0       0       0       0       0
       0       0       0       0       0       0       0       0
       0       0       0       0       0       0       0       0
       0       0       0       0       0       0       0       0
       0       0       0       0       0       0       0       0
       0       0       0       0       0       0       0       0
       0       0       0       0       0       0       0       0
       0       0       0       0       0       0       0       0
       0       0       0       0       0       0       0       0
       0       0       0       0       0       0       0       0
       0       0       0       0       0       0       0       0
       0       0       0       0       0       0       0       0
       0       0       0       0       0       0       0       0
       0       0       0       0       0       0       0       0
       0       0       0       0       0       0       0       0
       0       0       0       0       0       0       0       0
       0       0       0       0       0       0       0       0
       0       0       0       0       0       0       0       0
       0       0       0       0       0       0       0       0
       0       0       0       0       0       0       0       0
       0       0       0       0       0       0       0       0
       0       0       0       0       0       0       0       0
       0       0       0       0       0       0       0       0
       0       0       0       0       0       0       0       0
       0       0       0       0       0       0       0       0
       0       0       0       0       0       0       0       0
       0       0       0       0       0       0       0       0
       0       0       0       0       0       0       0       0
       0       0       0       0       0       0       0       0
       0       0       0       0       0       0       0       0
       0       0       0       0       0       0       0       0
       0       0       0       0       0       0       0       0
       0       0       0       0       0       0       0       0
       0       0       0       0       0       0       0       0
       0       0       0       0       0       0       0       0
       0       0       0       0       0       0       0       0
       0       0       0       0       0       0       0       0
       0       0       0       0       0       0       0       0
       0       0       0       0       0       0       0       0
       0       0       0       0       0       0       0       0
       0       0       0       0       0       0       0       0
       0       0       0       0       0       0       0       0
       0       0       0       0       0       0       0       0
       0       0       0       0       0       0       0       0
       0       0       0       0       0       0       0       0
       0       0       0       0       0       0       0       0
       0       0       0       0       0       0       0       0
       0       0       0       0       0       0       0       0
       0       0       0       0       0       0       0       0
       0       0       0       0       0       0       0       0
       0       0       0       0       0       0       0       0
       0       0       0       0       0       0       0       0
       0       0       0       0       0       0       0       0
       0       0       0       0       0       0       0       0
       0       0       0       0       0       0       0       0
       0       0       0       0       0       0       0       0
       0       0       0       0       0       0       0       0
       0       0       0       0       0       0       0       0
       0       0       0       0       0       0       0       0
       0       0       0       0       0       0       0       0
       0       0       0       0       0       0       0       0
       0       0       0       0       0       0       0       0
       0       0       0       0       0       0       0       0
       0       0       0       0       0       0       0       0
       0       0       0       0       0       0       0       0
       0       0       0       0       0       0       0       0
       0       0       0       0       0       0       0       0
       0       0       0       0       0       0       0       0
       0       0       0       0       0       0       0       0
       0       0       0       0       0       0       0       0
       0       0       0       0       0       0       0       0
       0       0       0       0       0       0       0       0
       0       0       0       0       0       0       0       0
       0       0       0       0       0       0       0       0
       0       0       0       0       0       0       0       0
       0       0       0       0       0       0       0       0
       0       0       0       0       0       0       0       0
       0       0       0       0       0       0       0       0
       0       0       0       0       0       0       0       0
       0       0       0       0       0       0       0       0
       0       0       0       0       0       0       0       0
       0       0       0       0       0       0       0       0
       0       0       0       0       0       0       0       0
       0       0       0       0       0       0       0       0
       0       0       0       0       0       0       0       0
       0       0       0       0       0       0       0       0
       0       0       0       0       0       0       0       0
       0       0       0       0       0       0       0       0
       0       0       0       0       0       0       0       0
       0       0       0       0       0       0       0       0
       0       0       0       0       0       0       0       0
       0       0       0       0       0       0       0       0
       0       0       0       0       0       0       0       0
       0       0       0       0       0       0       0       0
       0       0       0       0       0       0       0       0
       0       0       0       0       0       0       0       0
       0       0       0       0       0       0       0       0
       0       0       0       0       0       0       0       0
       0       0       0       0       0       0       0       0
       0       0       0       0       0       0       0       0
       0       0       0       0       0       0       0       0
       0       0       0       0       0       0       0       0
       0       0       0       0       0       0       0       0
       0       0       0       0       0       0       0       0
       0       0       0       0       0       0       0       0
       0       0       0       0       0       0       0       0
       0       0       0       0       0       0       0       0
       0       0       0       0       0       0       0       0
       0       0       0       0       0       0       0       0
       0       0       0       0       0       0       0       0
       0       0       0       0       0       0       0       0
       0       0       0       0       0       0       0       0
       0       0       0       0       0       0       0       0
       0       0       0       0       0       0       0       0
       0       0       0       0       0       0       0       0
       0       0       0       0       0       0       0       0
       0       0       0       0       0       0       0       0
       0       0       0       0       0       0       0       0
       0       0       0       0       0       0       0       0
       0       0       0       0       0       0       0       0
       0       0       0       0       0       0       0       0
       0       0       0       0       0       0       0       0
       0       0       0       0       0       0       0       0
       0       0       0       0       0       0       0       0
       0       0       0       0       0       0       0       0
       0       0       0       0       0       0       0       0
       0       0       0       0       0       0       0       0
       0       0       0       0       0       0       0       0
       0       0       0       0       0       0       0       0
       0       0       0       0       0       0       0       0
       0       0       0       0       0       0       0       0
       0       0       0       0       0       0       0       0
       0       0       0       0       0       0       0       0
       0       0       0       0       0       0       0       0
       0       0       0       0       0       0       0       0
       0       0       0       0       0       0       0       0
       0       0       0       0       0       0       0       0
       0       0       0       0       0       0       0       0
       0       0       0       0       0       0       0       0
       0       0       0       0       0       0       0       0
       0       0       0       0       0       0       0       0
       0       0       0       0       0       0       0       0
       0       0       0       0       0       0       0       0
       0       0       0       0       0       0       0       0
       0       0       0       0       0       0       0       0
       0       0       0       0       0       0       0       0
       0       0       0       0       0       0       0       0
       0       0       0       0       0       0       0       0
       0       0       0       0       0       0       0       0
       0       0       0       0       0       0       0       0
       0       0       0       0       0       0       0       0
       0       0       0       0       0       0       0       0
       0       0       0       0       0       0       0       0
       0       0       0       0       0       0       0       0
       0       0       0       0       0       0       0       0
       0       0       0       0       0       0       0       0
       0       0       0       0       0       0       0       0
       0       0       0       0       0       0       0       0
       0       0       0       0       0       0       0       0
       0       0       0       0       0       0       0       0
       0       0       0       0       0       0       0       0
       0       0       0       0       0       0       0       0
       0       0       0       0       0       0       0       0
       0       0       0       0       0       0       0       0
       0       0       0       0       0       0       0       0
       0       0       0       0       0       0       0       0
       0       0       0       0       0       0       0       0
       0       0       0       0       0       0       0       0
       0       0       0       0       0       0       0       0
       0       0       0       0       0       0       0       0
       0       0       0       0       0       0       0       0
       0       0       0       0       0       0       0       0
       0       0       0       0       0       0       0       0
       0       0       0       0       0       0       0       0
       0       0       0       0       0       0       0       0
       0       0       0       0       0       0       0       0
       0       0       0       0       0       0       0       0
       0       0       0       0       0       0       0       0
       0       0       0       0       0       0       0       0
       0       0       0       0       0       0       0       0
       0       0       0       0       0       0       0       0
       0       0       0       0       0       0       0       0
       0       0       0       0       0       0       0       0
       0       0       0       0       0       0       0       0
       0       0       0       0       0       0       0       0
       0       0       0       0       0       0       0       0
       0       0       0       0       0       0       0       0
       0       0       0       0       0       0       0       0
       0       0       0       0       0       0       0       0
       0       0       0       0       0       0       0       0
       0       0       0       0       0       0       0       0
       0       0       0       0       0       0       0       0
       0       0       0       0       0       0       0       0
       0       0       0       0       0       0       0       0
       0       0       0       0       0       0       0       0
       0       0       0       0       0       0       0       0
       0       0       0       0       0       0       0       0
       0       0       0       0       0       0       0       0
       0       0       0       0       0       0       0       0
       0       0       0       0       0       0       0       0
       0       0       0       0       0       0       0       0
       0       0       0       0       0       0       0       0
       0       0       0       0       0       0       0       0
       0       0       0       0       0       0       0       0
       0       0       0       0       0       0       0       0
       0       0       0       0       0       0       0       0
       0       0       0       0       0       0       0       0
       0       0       0       0       0       0       0       0
       0       0       0       0       0       0       0       0
       0       0       0       0       0       0       0       0
       0       0       0       0       0       0       0       0
       0       0       0       0       0       0       0       0
       0       0       0       0       0       0       0       0
       0       0       0       0       0       0       0       0
       0       0       0       0       0       0       0       0
       0       0       0       0       0       0       0       0
       0       0       0       0       0       0       0       0
       0       0       0       0       0       0       0       0
       0       0       0       0       0       0       0       0
       0       0       0       0       0       0       0       0
       0       0       0       0       0       0       0       0
       0       0       0       0       0       0       0       0
       0       0       0       0       0       0       0       0
       0       0       0       0       0       0       0       0
       0       0       0       0       0       0       0       0
       0       0       0       0       0       0       0       0
       0       0       0       0       0       0       0       0
       0       0       0       0       0       0       0       0
       0       0       0       0       0       0       0       0
       0       0       0       0       0       0       0       0
       0       0       0       0       0       0       0       0
       0       0       0       0       0       0       0       0
       0       0       0       0       0       0       0       0
       0       0       0       0       0       0       0       0
       0       0       0       0       0       0       0       0
       0       0       0       0       0       0       0       0
       0       0       0       0       0       0       0       0
       0       0       0       0       0       0       0       0
       0       0       0       0       0       0       0       0
       0       0       0       0       0       0       0       0
       0       0       0       0       0       0       0       0
       0       0       0       0       0       0       0       0
       0       0       0       0       0       0       0       0
       0       0       0       0       0       0       0       0
       0       0       0       0       0       0       0       0
       0       0       0       0       0       0       0       0
       0       0       0       0       0       0       0       0
       0       0       0       0       0       0       0       0
       0       0       0       0       0       0       0       0
       0       0       0       0       0       0       0       0
       0       0       0       0       0       0       0       0
       0       0       0       0       0       0       0       0
       0       0       0       0       0       0       0       0
       0       0       0       0       0       0       0       0
       0       0       0       0       0       0       0       0
       0       0       0       0       0       0       0       0
       0       0       0       0       0       0       0       0
       0       0       0       0       0       0       0       0
       0       0       0       0       0       0       0       0
       0       0       0       0       0       0       0       0
       0       0       0       0       0       0       0       0
       0       0       0       0       0       0       0       0
       0       0       0       0       0       0       0       0
       0       0       0       0       0       0       0       0
       0       0       0       0       0       0       0       0
       0       0       0       0       0       0       0       0
       0       0       0       0       0       0       0       0
       0       0       0       0       0       0       0       0
       0       0       0       0       0       0       0       0
       0       0       0       0       0       0       0       0
       0       0       0       0       0       0       0       0
       0       0       0       0       0       0       0       0
       0       0       0       0       0       0       0       0
       0       0       0       0       0       0       0       0
       0       0       0       0       0       0       0       0
       0       0       0       0       0       0       0       0
       0       0       0       0       0       0       0       0
       0       0       0       0       0       0       0       0
       0       0       0       0       0       0       0       0
       0       0       0       0       0       0       0       0
       0       0       0       0       0       0       0       0
       0       0       0       0       0       0       0       0
       0       0       0       0       0       0       0       0
       0       0       0       0       0       0       0       0
       0       0       0       0       0       0       0       0
       0       0       0       0       0       0       0       0
       0       0       0       0       0       0       0       0
       0       0       0       0       0       0       0       0
       0       0       0       0       0       0       0       0
       0       0       0       0       0       0       0       0
       0       0       0       0       0       0       0       0
       0       0       0       0       0       0       0       0
       0       0       0       0       0       0       0       0
       0       0       0       0       0       0       0       0
       0       0       0       0       0       0       0       0
       0       0       0       0       0       0       0       0
       0       0       0       0       0       0       0       0
       0       0       0       0       0       0       0       0
       0       0       0       0       0       0       0       0
       0       0       0       0       0       0       0       0
       0       0       0       0       0       0       0       0
       0       0       0       0       0       0       0       0
       0       0       0       0       0       0       0       0
       0       0       0       0       0       0       0       0
       0       0       0       0       0       0       0       0
       0       0       0       0       0       0       0       0
       0       0       0       0       0       0       0       0
       0       0       0       0       0       0       0       0
       0       0       0       0       0       0       0       0
       0       0       0       0       0       0       0       0
       0       0       0       0       0       0       0       0
       0       0       0       0       0       0       0       0
       0       0       0       0       0       0       0       0
       0       0       0       0       0       0       0       0
       0       0       0       0       0       0       0       0
       0       0       0       0       0       0       0       0
       0       0       0       0       0       0       0       0
       0       0       0       0       0       0       0       0
       0       0       0       0       0       0       0       0
       0       0       0       0       0       0       0       0
       0       0       0       0       0       0       0       0
       0       0       0       0       0       0       0       0
       0       0       0       0       0       0       0       0
       0       0       0       0       0       0       0       0
       0       0       0       0       0       0       0       0
       0       0       0       0       0       0       0       0
       0       0       0       0       0       0       0       0
       0       0       0       0       0       0       0       0
       0       0       0       0       0       0       0       0
       0       0       0       0       0       0       0       0
       0       0       0       0       0       0       0       0
       0       0       0       0       0       0       0       0
       0       0       0       0       0       0       0       0
       0       0       0       0       0       0       0       0
       0       0       0       0       0       0       0       0
       0       0       0       0       0       0       0       0
       0       0       0       0       0       0       0       0
       0       0       0       0       0       0       0       0
       0       0       0       0       0       0       0       0
       0       0       0       0       0       0       0       0
       0       0       0       0       0       0       0       0
       0       0       0       0       0       0       0       0
       0       0       0       0       0       0       0       0
       0       0       0       0       0       0       0       0
       0       0       0       0       0       0       0       0
       0       0       0       0       0       0       0       0
       0       0       0       0       0       0       0       0
       0       0       0       0       0       0       0       0
       0       0       0       0       0       0       0       0
       0       0       0       0       0       0       0       0
       0       0       0       0       0       0       0       0
       0       0       0       0       0       0       0       0
       0       0       0       0       0       0       0       0
       0       0       0       0       0       0       0       0
       0       0       0       0       0       0       0       0
       0       0       0       0       0       0       0       0
       0       0       0       0       0       0       0       0
       0       0       0       0       0       0       0       0
       0       0       0       0       0       0       0       0
       0       0       0       0       0       0       0       0
       0       0       0       0       0       0       0       0
       0       0       0       0       0       0       0       0
       0       0       0       0       0       0       0       0
       0       0       0       0       0       0       0       0
       0       0       0       0       0       0       0       0
       0       0       0       0       0       0       0       0
       0       0       0       0       0       0       0       0
       0       0       0       0       0       0       0       0
       0       0       0       0       0       0       0       0
       0       0       0       0       0       0       0       0
       0       0       0       0       0       0       0       0
       0       0       0       0       0       0       0       0
       0       0       0       0       0       0       0       0
       0       0       0       0       0       0       0       0
       0       0       0       0       0       0       0       0
       0       0       0       0       0       0       0       0
       0       0       0       0       0       0       0       0
       0       0       0       0       0       0       0       0
       0       0       0       0       0       0       0       0
       0       0       0       0       0       0       0       0
       0       0       0       0       0       0       0       0
       0       0       0       0       0       0       0       0
       0       0       0       0       0       0       0       0
       0       0       0       0       0       0       0       0
       0       0       0       0       0       0       0       0
       0       0       0       0       0       0       0       0
       0       0       0       0       0       0       0       0
       0       0       0       0       0       0       0       0
       0       0       0       0       0       0       0       0
       0       0       0       0       0       0       0       0
       0       0       0       0       0       0       0       0
       0       0       0       0       0       0       0       0
       0       0       0       0       0       0       0       0
       0       0       0       0       0       0       0       0
       0       0       0       0       0       0       0       0
       0       0       0       0       0       0       0       0
       0       0       0       0       0       0       0       0
       0       0       0       0       0       0       0       0
       0       0       0       0       0       0       0       0
       0       0       0       0       0       0       0       0
       0       0       0       0       0       0       0       0
       0       0       0       0       0       0       0       0
       0       0       0       0       0       0       0       0
       0       0       0       0       0       0       0       0
       0       0       0       0       0       0       0       0
       0       0       0       0       0       0       0       0
       0       0       0       0       0       0       0       0
       0       0       0       0       0       0       0       0
       0       0       0       0       0       0       0       0
       0       0       0       0       0       0       0       0
       0       0       0       0       0       0       0       0
       0       0       0       0       0       0       0       0
       0       0       0       0       0       0       0       0
       0       0       0       0       0       0       0       0
       0       0       0       0       0       0       0       0
       0       0       0       0       0       0       0       0
       0       0       0       0       0       0       0       0
       0       0       0       0       0       0       0       0
       0       0       0       0       0       0       0       0
       0       0       0       0       0       0       0       0
       0       0       0       0       0       0       0       0
       0       0       0       0       0       0       0       0
       0       0       0       0       0       0       0       0
       0       0       0       0       0       0       0       0
       0       0       0       0       0       0       0       0
       0       0       0       0       0       0       0       0
       0       0       0       0       0       0       0       0
       0       0       0       0       0       0       0       0
       0       0       0       0       0       0       0       0
       0       0       0       0       0       0       0       0
       0       0       0       0       0       0       0       0
       0       0       0       0       0       0       0       0
       0       0       0       0       0       0       0       0
       0       0       0       0       0       0       0       0
       0       0       0       0       0       0       0       0
       0       0       0       0       0       0       0       0
       0       0       0       0       0       0       0       0
       0       0       0       0       0       0       0       0
       0       0       0       0       0       0       0       0
       0       0       0       0       0       0       0       0
       0       0       0       0       0       0       0       0
       0       0       0       0       0       0       0       0
       0       0       0       0       0       0       0       0
       0       0       0       0       0       0       0       0
       0       0       0       0       0       0       0       0
       0       0       0       0       0       0       0       0
       0       0       0       0       0       0       0       0
       0       0       0       0       0       0       0       0
       0       0       0       0       0       0       0       0
       0       0       0       0       0       0       0       0
       0       0       0       0       0       0       0       0
       0       0       0       0       0       0       0       0
       0       0       0       0       0       0       0       0
       0       0       0       0       0       0       0       0
       0       0       0       0       0       0       0       0
       0       0       0       0       0       0       0       0
       0       0       0       0       0       0       0       0
       0       0       0       0       0       0       0       0
       0       0       0       0       0       0       0       0
       0       0       0       0       0       0       0       0
       0       0       0       0       0       0       0       0
       0       0       0       0       0       0       0       0
       0       0       0       0       0       0       0       0
       0       0       0       0       0       0       0       0
       0       0       0       0       0       0       0       0
       0       0       0       0       0       0       0       0
       0       0       0       0       0       0       0       0
       0       0       0       0       0       0       0       0
       0       0       0       0       0       0       0       0
       0       0       0       0       0       0       0       0
       0       0       0       0       0       0       0       0
       0       0       0       0       0       0       0       0
       0       0       0       0       0       0       0       0
       0       0       0       0       0       0       0       0
       0       0       0       0       0       0       0       0
       0       0       0       0       0       0       0       0
       0       0       0       0       0       0       0       0
       0       0       0       0       0       0       0       0
       0       0       0       0       0       0       0       0
       0       0       0       0       0       0       0       0
       0       0       0       0       0       0       0       0
       0       0       0       0       0       0       0       0
       0       0       0       0       0       0       0       0
       0       0       0       0       0       0       0       0
       0       0       0       0       0       0       0       0
       0       0       0       0       0       0       0       0
       0       0       0       0       0       0       0       0
       0       0       0       0       0       0       0       0
       0       0       0       0       0       0       0       0
       0       0       0       0       0       0       0       0
       0       0       0       0       0       0       0       0
       0       0       0       0       0       0       0       0
       0       0       0       0       0       0       0       0
       0       0       0       0       0       0       0       0
       0       0       0       0       0       0       0       0
       0       0       0       0       0       0       0       0
       0       0       0       0       0       0       0       0
       0       0       0       0       0       0       0       0
       0       0       0       0       0       0       0       0
       0       0       0       0       0       0       0       0
       0       0       0       0       0       0       0       0
       0       0       0       0       0       0       0       0
       0       0       0       0       0       0       0       0
       0       0       0       0       0       0       0       0
       0       0       0       0       0       0       0       0
       0       0       0       0       0       0       0       0
       0       0       0       0       0       0       0       0
       0       0       0       0       0       0       0       0
       0       0       0       0       0       0       0       0
       0       0       0       0       0       0       0       0
       0       0       0       0       0       0       0       0
       0       0       0       0       0       0       0       0
       0       0       0       0       0       0       0       0
       0       0       0       0       0       0       0       0
       0       0       0       0       0       0       0       0
       0       0       0       0       0       0       0       0
       0       0       0       0       0       0       0       0
       0       0       0       0       0       0       0       0
       0       0       0       0       0       0       0       0
       0       0       0       0       0       0       0       0
       0       0       0       0       0       0       0       0
       0       0       0       0       0       0       0       0
       0       0       0       0       0       0       0       0
       0       0       0       0       0       0       0       0
       0       0       0       0       0       0       0       0
       0       0       0       0       0       0       0       0
       0       0       0       0       0       0       0       0
       0       0       0       0       0       0       0       0
       0       0       0       0       0       0       0       0
       0       0       0       0       0       0       0       0
       0       0       0       0       0       0       0       0
       0       0       0       0       0       0       0       0
       0       0       0       0       0       0       0       0
       0       0       0       0       0       0       0       0
       0       0       0       0       0       0       0       0
       0       0       0       0       0       0       0       0
       0       0       0       0       0       0       0       0
       0       0       0       0       0       0       0       0
       0       0       0       0       0       0       0       0
       0       0       0       0       0       0       0       0
       0       0       0       0       0       0       0       0
       0       0       0       0       0       0       0       0
       0       0       0       0       0       0       0       0
       0       0       0       0       0       0       0       0
       0       0       0       0       0       0       0       0
       0       0       0       0       0       0       0       0
       0       0       0       0       0       0       0       0
       0       0       0       0       0       0       0       0
       0       0       0       0       0       0       0       0
       0       0       0       0       0       0       0       0
       0       0       0       0       0       0       0       0
       0       0       0       0       0       0       0       0
       0       0       0       0       0       0       0       0
       0       0       0       0       0       0       0       0
       0       0       0       0       0       0       0       0
       0       0       0       0       0       0       0       0
       0       0       0       0       0       0       0       0
       0       0       0       0       0       0       0       0
       0       0       0       0       0       0       0       0
       0       0       0       0       0       0       0       0
       0       0       0       0       0       0       0       0
       0       0       0       0       0       0       0       0
       0       0       0       0       0       0       0       0
       0       0       0       0       0       0       0       0
       0       0       0       0       0       0       0       0
       0       0       0       0       0       0       0       0
       0       0       0       0       0       0       0       0
       0       0       0       0       0       0       0       0
       0       0       0       0       0       0       0       0
       0       0       0       0       0       0       0       0
       0       0       0       0       0       0       0       0
       0       0       0       0       0       0       0       0
       0       0       0       0       0       0       0       0
       0       0       0       0       0       0       0       0
       0       0       0       0       0       0       0       0
       0       0       0       0       0       0       0       0
       0       0       0       0       0       0       0       0
       0       0       0       0       0       0       0       0
       0       0       0       0       0       0       0       0
       0       0       0       0       0       0       0       0
       0       0       0       0       0       0       0       0
       0       0       0       0       0       0       0       0
       0       0       0       0       0       0       0       0
       0       0       0       0       0       0       0       0
       0       0       0       0       0       0       0       0
       0       0       0       0       0       0       0       0
       0       0       0       0       0       0       0       0
       0       0       0       0       0       0       0       0
       0       0       0       0       0       0       0       0
       0       0       0       0       0       0       0       0
       0       0       0       0       0       0       0       0
       0       0       0       0       0       0       0       0
       0       0       0       0       0       0       0       0
       0       0       0       0       0       0       0       0
       0       0       0       0       0       0       0       0
       0       0       0       0       0       0       0       0
       0       0       0       0       0       0       0       0
       0       0       0       0       0       0       0       0
       0       0       0       0       0       0       0       0
       0       0       0       0       0       0       0       0
       0       0       0       0       0       0       0       0
       0       0       0       0       0       0       0       0
       0       0       0       0       0       0       0       0
       0       0       0       0       0       0       0       0
       0       0       0       0       0       0       0       0
       0       0       0       0       0       0       0       0
       0       0       0       0       0       0       0       0
       0       0       0       0       0       0       0       0
       0       0       0       0       0       0       0       0
       0       0       0       0       0       0       0       0
       0       0       0       0       0       0       0       0
       0       0       0       0       0       0       0       0
       0       0       0       0       0       0       0       0
       0       0       0       0       0       0       0       0
       0       0       0       0       0       0       0       0
       0       0       0       0       0       0       0       0
       0       0       0       0       0       0       0       0
       0       0       0       0       0       0       0       0
       0       0       0       0       0       0       0       0
       0       0       0       0       0       0       0       0
       0       0       0       0       0       0       0       0
       0       0       0       0       0       0       0       0
       0       0       0       0       0       0       0       0
       0       0       0       0       0       0       0       0
       0       0       0       0       0       0       0       0
       0       0       0       0       0       0       0       0
       0       0       0       0       0       0       0       0
       0       0       0       0       0       0       0       0
       0       0       0       0       0       0       0       0
       0       0       0       0       0       0       0       0
       0       0       0       0       0       0       0       0
       0       0       0       0       0       0       0       0
       0       0       0       0       0       0       0       0
       0       0       0       0       0       0       0       0
       0       0       0       0       0       0       0       0
       0       0       0       0       0       0       0       0
       0       0       0       0       0       0       0       0
       0       0       0       0       0       0       0       0
       0       0       0       0       0       0       0       0
       0       0       0       0       0       0       0       0
       0       0       0       0       0       0       0       0
       0       0       0       0       0       0       0       0
       0       0       0       0       0       0       0       0
       0       0       0       0       0       0       0       0
       0       0       0       0       0       0       0       0
       0       0       0       0       0       0       0       0
       0       0       0       0       0       0       0       0
       0       0       0       0       0       0       0       0
       0       0       0       0       0       0       0       0
       0       0       0       0       0       0       0       0
       0       0       0       0       0       0       0       0
       0       0       0       0       0       0       0       0
       0       0       0       0       0       0       0       0
       0       0       0       0       0       0       0       0
       0       0       0       0       0       0       0       0
       0       0       0       0       0       0       0       0
       0       0       0       0       0       0       0       0
       0       0       0       0       0       0       0       0
       0       0       0       0       0       0       0       0
       0       0       0       0       0       0       0       0
       0       0       0       0       0       0       0       0
       0       0       0       0       0       0       0       0
       0       0       0       0       0       0       0       0
       0       0       0       0       0       0       0       0
       0       0       0       0       0       0       0       0
       0       0       0       0       0       0       0       0
       0       0       0       0       0       0       0       0
       0       0       0       0       0       0       0       0
       0       0       0       0       0       0       0       0
       0       0       0       0       0       0       0       0
       0       0       0       0       0       0       0       0
       0       0       0       0       0       0       0       0
       0       0       0       0       0       0       0       0
       0       0       0       0       0       0       0       0
       0       0       0       0       0       0       0       0
       0       0       0       0       0       0       0       0
       0       0       0       0       0       0       0       0
       0       0       0       0       0       0       0       0
       0       0       0       0       0       0       0       0
       0       0       0       0       0       0       0       0
       0       0       0       0       0       0       0       0
       0       0       0       0       0       0       0       0
       0       0       0       0       0       0       0       0
       0       0       0       0       0       0       0       0
       0       0       0       0       0       0       0       0
       0       0       0       0       0       0       0       0
       0       0       0       0       0       0       0       0
       0       0       0       0       0       0       0       0
       0       0       0       0       0       0       0       0
       0       0       0       0       0       0       0       0
       0       0       0       0       0       0       0       0
       0       0       0       0       0       0       0       0
       0       0       0       0       0       0       0       0
       0       0       0       0       0       0       0       0
       0       0       0       0       0       0       0       0
       0       0       0       0       0       0       0       0
       0       0       0       0       0       0       0       0
       0       0       0       0       0       0       0       0
       0       0       0       0       0       0       0       0
       0       0       0       0       0       0       0       0
       0       0       0       0       0       0       0       0
       0       0       0       0       0       0       0       0
       0       0       0       0       0       0       0       0
       0       0       0       0       0       0       0       0
       0       0       0       0       0       0       0       0
       0       0       0       0       0       0       0       0
       0       0       0       0       0       0       0       0
       0       0       0       0       0       0       0       0
       0       0       0       0       0       0       0       0
       0       0       0       0       0       0       0       0
       0       0       0       0       0       0       0       0
       0       0       0       0       0       0       0       0
       0       0       0       0       0       0       0       0
       0       0       0       0       0       0       0       0
       0       0       0       0       0       0       0       0
       0       0       0       0       0       0       0       0
       0       0       0       0       0       0       0       0
       0       0       0       0       0       0       0       0
       0       0       0       0       0       0       0       0
       0       0       0       0       0       0       0       0
       0       0       0       0       0       0       0       0
       0       0       0       0       0       0       0       0
       0       0       0       0       0       0       0       0
       0       0       0       0       0       0       0       0
       0       0       0       0       0       0       0       0
       0       0       0       0       0       0       0       0
       0       0       0       0       0       0       0       0
       0       0       0       0       0       0       0       0
       0       0       0       0       0       0       0       0
       0       0       0       0       0       0       0       0
       0       0       0       0       0       0       0       0
       0       0       0       0       0       0       0       0
       0       0       0       0       0       0       0       0
       0       0       0       0       0       0       0       0
       0       0       0       0       0       0       0       0
       0       0       0       0       0       0       0       0
       0       0       0       0       0       0       0       0
       0       0       0       0       0       0       0       0
       0       0       0       0       0       0       0       0
       0       0       0       0       0       0       0       0
       0       0       0       0       0       0       0       0
       0       0       0       0       0       0       0       0
       0       0       0       0       0       0       0       0
       0       0       0       0       0       0       0       0
       0       0       0       0       0       0       0       0
       0       0       0       0       0       0       0       0
       0       0       0       0       0       0       0       0
       0       0       0       0       0       0       0       0
       0       0       0       0       0       0       0       0
       0       0       0       0       0       0       0       0
       0       0       0       0       0       0       0       0
       0       0       0       0       0       0       0       0
       0       0       0       0       0       0       0       0
       0       0       0       0       0       0       0       0
       0       0       0       0       0       0       0       0
       0       0       0       0       0       0       0       0
       0       0       0       0       0       0       0       0
       0       0       0       0       0       0       0       0
       0       0       0       0       0       0       0       0
       0       0       0       0       0       0       0       0
       0       0       0       0       0       0       0       0
       0       0       0       0       0       0       0       0
       0       0       0       0       0       0       0       0
       0       0       0       0       0       0       0       0
       0       0       0       0       0       0       0       0
       0       0       0       0       0       0       0       0
       0       0       0       0       0       0       0       0
       0       0       0       0       0       0       0       0
       0       0       0       0       0       0       0       0
       0       0       0       0       0       0       0       0
       0       0       0       0       0       0       0       0
       0       0       0       0       0       0       0       0
       0       0       0       0       0       0       0       0
       0       0       0       0       0       0       0       0
       0       0       0       0       0       0       0       0
       0       0       0       0       0       0       0       0
       0       0       0       0       0       0       0       0
       0       0       0       0       0       0       0       0
       0       0       0       0       0       0       0       0
       0       0       0       0       0       0       0       0
       0       0       0       0       0       0       0       0
       0       0       0       0       0       0       0       0
       0       0       0       0       0       0       0       0
       0       0       0       0       0       0       0       0
       0       0       0       0       0       0       0       0
       0       0       0       0       0       0       0       0
       0       0       0       0       0       0       0       0
       0       0       0       0       0       0       0       0
       0       0       0       0       0       0       0       0
       0       0       0       0       0       0       0       0
       0       0       0       0       0       0       0       0
       0       0       0       0       0       0       0       0
       0       0       0       0       0       0       0       0
       0       0       0       0       0       0       0       0
       0       0       0       0       0       0       0       0
       0       0       0       0       0       0       0       0
       0       0       0       0       0       0       0       0
       0       0       0       0       0       0       0       0
       0       0       0       0       0       0       0       0
       0       0       0       0       0       0       0       0
       0       0       0       0       0       0       0       0
       0       0       0       0       0       0       0       0
       0       0       0       0       0       0       0       0
       0       0       0       0       0       0       0       0
       0       0       0       0       0       0       0       0
       0       0       0       0       0       0       0       0
       0       0       0       0       0       0       0       0
       0       0       0       0       0       0       0       0
       0       0       0       0       0       0       0       0
       0       0       0       0       0       0       0       0
       0       0       0       0       0       0       0       0
       0       0       0       0       0       0       0       0
       0       0       0       0       0       0       0       0
       0       0       0       0       0       0       0       0
       0       0       0       0       0       0       0       0
       0       0       0       0       0       0       0       0
       0       0       0       0       0       0       0       0
       0       0       0       0       0       0       0       0
       0       0       0       0       0       0       0       0
       0       0       0       0       0       0       0       0
       0       0       0       0       0       0       0       0
       0       0       0       0       0       0       0       0
       0       0       0       0       0       0       0       0
       0       0       0       0       0       0       0       0
       0       0       0       0       0       0       0       0
       0       0       0       0       0       0       0       0
       0       0       0       0       0       0       0       0
       0       0       0       0       0       0       0       0
       0       0       0       0       0       0       0       0
       0       0       0       0       0       0       0       0
       0       0       0       0       0       0       0       0
       0       0       0       0       0       0       0       0
       0       0       0       0       0       0       0       0
       0       0       0       0       0       0       0       0
       0       0       0       0       0       0       0       0
       0       0       0       0       0       0       0       0
       0       0       0       0       0       0       0       0
       0       0       0       0       0       0       0       0
       0       0       0       0       0       0       0       0
       0       0       0       0       0       0       0       0
       0       0       0       0       0       0       0       0
       0       0       0       0       0       0       0       0
       0       0       0       0       0       0       0       0
       0       0       0       0       0       0       0       0
       0       0       0       0       0       0       0       0
       0       0       0       0       0       0       0       0
       0       0       0       0       0       0       0       0
       0       0       0       0       0       0       0       0
       0       0       0       0       0       0       0       0
       0       0       0       0       0       0       0       0
       0       0       0       0       0       0       0       0
       0       0       0       0       0       0       0       0
       0       0       0       0       0       0       0       0
       0       0       0       0       0       0       0       0
       0       0       0       0       0       0       0       0
       0       0       0       0       0       0       0       0
       0       0       0       0       0       0       0       0
       0       0       0       0       0       0       0       0
       0       0       0       0       0       0       0       0
       0       0       0       0       0       0       0       0
       0       0       0       0       0       0       0       0
       0       0       0       0       0       0       0       0
       0       0       0       0       0       0       0       0
       0       0       0       0       0       0       0       0
       0       0       0       0       0       0       0       0
       0       0       0       0       0       0       0       0
       0       0       0       0       0       0       0       0
       0       0       0       0       0       0       0       0
       0       0       0       0       0       0       0       0
       0       0       0       0       0       0       0       0
       0       0       0       0       0       0       0       0
       0       0       0       0       0       0       0       0
       0       0       0       0       0       0       0       0
       0       0       0       0       0       0       0       0
       0       0       0       0       0       0       0       0
       0       0       0       0       0       0       0       0
       0       0       0       0       0       0       0       0
       0       0       0       0       0       0       0       0
       0       0       0       0       0       0       0       0
       0       0       0       0       0       0       0       0
       0       0       0       0       0       0       0       0
       0       0       0       0       0       0       0       0
       0       0       0       0       0       0       0       0
       0       0       0       0       0       0       0       0
       0       0       0       0       0       0       0       0
       0       0       0       0       0       0       0       0
       0       0       0       0       0       0       0       0
       0       0       0       0       0       0       0       0
       0       0       0       0       0       0       0       0
       0       0       0       0       0       0       0       0
       0       0       0       0       0       0       0       0
       0       0       0       0       0       0       0       0
       0       0       0       0       0       0       0       0
       0       0       0       0       0       0       0       0
       0       0       0       0       0       0       0       0
       0       0       0       0       0       0       0       0
       0       0       0       0       0       0       0       0
       0       0       0       0       0       0       0       0
       0       0       0       0       0       0       0       0
       0       0       0       0       0       0       0       0
       0       0       0       0       0       0       0       0
       0       0       0       0       0       0       0       0
       0       0       0       0       0       0       0       0
       0       0       0       0       0       0       0       0
       0       0       0       0       0       0       0       0
       0       0       0       0       0       0       0       0
       0       0       0       0       0       0       0       0
       0       0       0       0       0       0       0       0
       0       0       0       0       0       0       0       0
       0       0       0       0       0       0       0       0
       0       0       0       0       0       0       0       0
       0       0       0       0       0       0       0       0
       0       0       0       0       0       0       0       0
       0       0       0       0       0       0       0       0
       0       0       0       0       0       0       0       0
       0       0       0       0       0       0       0       0
       0       0       0       0       0       0       0       0
       0       0       0       0       0       0       0       0
       0       0       0       0       0       0       0       0
       0       0       0       0       0       0       0       0
       0       0       0       0       0       0       0       0
       0       0       0       0       0       0       0       0
       0       0       0       0       0       0       0       0
       0       0       0       0       0       0       0       0
       0       0       0       0       0       0       0       0
       0       0       0       0       0       0       0       0
       0       0       0       0       0       0       0       0
       0       0       0       0       0       0       0       0
       0       0       0       0       0       0       0       0
       0       0       0       0       0       0       0       0
       0       0       0       0       0       0       0       0
       0       0       0       0       0       0       0       0
       0       0       0       0       0       0       0       0
       0       0       0       0       0       0       0       0
       0       0       0       0       0       0       0       0
       0       0       0       0       0       0       0       0
       0       0       0       0       0       0       0       0
       0       0       0       0       0       0       0       0
       0       0       0       0       0       0       0       0
       0       0       0       0       0       0       0       0
       0       0       0       0       0       0       0       0
       0       0       0       0       0       0       0       0
       0       0       0       0       0       0       0       0
       0       0       0       0       0       0       0       0
       0       0       0       0       0       0       0       0
       0       0       0       0       0       0       0       0
       0       0       0       0       0       0       0       0
       0       0       0       0       0       0       0       0
       0       0       0       0       0       0       0       0
       0       0       0       0       0       0       0       0
       0       0       0       0       0       0       0       0
       0       0       0       0       0       0       0       0
       0       0       0       0       0       0       0       0
       0       0       0       0       0       0       0       0
       0       0       0       0       0       0       0       0
       0       0       0       0       0       0       0       0
       0       0       0       0       0       0       0       0
       0       0       0       0       0       0       0       0
       0       0       0       0       0       0       0       0
       0       0       0       0       0       0       0       0
       0       0       0       0       0       0       0       0
       0       0       0       0       0       0       0       0
       0       0       0       0       0       0       0       0
       0       0       0       0       0       0       0       0
       0       0       0       0       0       0       0       0
       0       0       0       0       0       0       0       0
       0       0       0       0       0       0       0       0
       0       0       0       0       0       0       0       0
       0       0       0       0       0       0       0       0
       0       0       0       0       0       0       0       0
       0       0       0       0       0       0       0       0
       0       0       0       0       0       0       0       0
       0       0       0       0       0       0       0       0
       0       0       0       0       0       0       0       0
       0       0       0       0       0       0       0       0
       0       0       0       0       0       0       0       0
       0       0       0       0       0       0       0       0
       0       0       0       0       0       0       0       0
       0       0       0       0       0       0       0       0
       0       0       0       0       0       0       0       0
       0       0       0       0       0       0       0       0
       0       0       0       0       0       0       0       0
       0       0       0       0       0       0       0       0
       0       0       0       0       0       0       0       0
       0       0       0       0       0       0       0       0
       0       0       0       0       0       0       0       0
       0       0       0       0       0       0       0       0
       0       0       0       0       0       0       0       0
       0       0       0       0       0       0       0       0
       0       0       0       0       0       0       0       0
       0       0       0       0       0       0       0       0
       0       0       0       0       0       0       0       0
       0       0       0       0       0       0       0       0
       0       0       0       0       0       0       0       0
       0       0       0       0       0       0       0       0
       0       0       0       0       0       0       0       0
       0       0       0       0       0       0       0       0
       0       0       0       0       0       0       0       0
       0       0       0       0       0       0       0       0
       0       0       0       0       0       0       0       0
       0       0       0       0       0       0       0       0
       0       0       0       0       0       0       0       0
       0       0       0       0       0       0       0       0
       0       0       0       0       0       0       0       0
       0       0       0       0       0       0       0       0
       0       0       0       0       0       0       0       0
       0       0       0       0       0       0       0       0
       0       0       0       0       0       0       0       0
       0       0       0       0       0       0       0       0
       0       0       0       0       0       0       0       0
       0       0       0       0       0       0       0       0
       0       0       0       0       0       0       0       0
       0       0       0       0       0       0       0       0
       0       0       0       0       0       0       0       0
       0       0       0       0       0       0       0       0
       0       0       0       0       0       0       0       0
       0       0       0       0       0       0       0       0
       0       0       0       0       0       0       0       0
       0       0       0       0       0       0       0       0
       0       0       0       0       0       0       0       0
       0       0       0       0       0       0       0       0
       0       0       0       0       0       0       0       0
       0       0       0       0       0       0       0       0
       0       0       0       0       0       0       0       0
       0       0       0       0       0       0       0       0
       0       0       0       0       0       0       0       0
       0       0       0       0       0       0       0       0
       0       0       0       0       0       0       0       0
       0       0       0       0       0       0       0       0
       0       0       0       0       0       0       0       0
       0       0       0       0       0       0       0       0
       0       0       0       0       0       0       0       0
       0       0       0       0       0       0       0       0
       0       0       0       0       0       0       0       0
       0       0       0       0       0       0       0       0
       0       0       0       0       0       0       0       0
       0       0       0       0       0       0       0       0
       0       0       0       0       0       0       0       0
       0       0       0       0       0       0       0       0
       0       0       0       0       0       0       0       0
       0       0       0       0       0       0       0       0
       0       0       0       0       0       0       0       0
       0       0       0       0       0       0       0       0
       0       0       0       0       0       0       0       0
       0       0       0       0       0       0       0       0
       0       0       0       0       0       0       0       0
       0       0       0       0       0       0       0       0
       0       0       0       0       0       0       0       0
       0       0       0       0       0       0       0       0
       0       0       0       0       0       0       0       0
       0       0       0       0       0       0       0       0
       0       0       0       0       0       0       0       0
       0       0       0       0       0       0       0       0
       0       0       0       0       0       0       0       0
       0       0       0       0       0       0       0       0
       0       0       0       0       0       0       0       0
       0       0       0       0       0       0       0       0
       0       0       0       0       0       0       0       0
       0       0       0       0       0       0       0       0
       0       0       0       0       0       0       0       0
       0       0       0       0       0       0       0       0
       0       0       0       0       0       0       0       0
       0       0       0       0       0       0       0       0
       0       0       0       0       0       0       0       0
       0       0       0       0       0       0       0       0
       0       0       0       0       0       0       0       0
       0       0       0       0       0       0       0       0
       0       0       0       0       0       0       0       0
       0       0       0       0       0       0       0       0
       0       0       0       0       0       0       0       0
       0       0       0       0       0       0       0       0
       0       0       0       0       0       0       0       0
       0       0       0       0       0       0       0       0
       0       0       0       0       0       0       0       0
       0       0       0       0       0       0       0       0
       0       0       0       0       0       0       0       0
       0       0       0       0       0       0       0       0
       0       0       0       0       0       0       0       0
       0       0       0       0       0       0       0       0
       0       0       0       0       0       0       0       0
       0       0       0       0       0       0       0       0
       0       0       0       0       0       0       0       0
       0       0       0       0       0       0       0       0
       0       0       0       0       0       0       0       0
       0       0       0       0       0       0       0       0
       0       0       0       0       0       0       0       0
       0       0       0       0       0       0       0       0
       0       0       0       0       0       0       0       0
       0       0       0       0       0       0       0       0
       0       0       0       0       0       0       0       0
       0       0       0       0       0       0       0       0
       0       0       0       0       0       0       0       0
       0       0       0       0       0       0       0       0
       0       0       0       0       0       0       0       0
       0       0       0       0       0       0       0       0
       0       0       0       0       0       0       0       0
       0       0       0       0       0       0       0       0
       0       0       0       0       0       0       0       0
       0       0       0       0       0       0       0       0
       0       0       0       0       0       0       0       0
       0       0       0       0       0       0       0       0
       0       0       0       0       0       0       0       0
       0       0       0       0       0       0       0       0
       0       0       0       0       0       0       0       0
       0       0       0       0       0       0       0       0
       0       0       0       0       0       0       0       0
       0       0       0       0       0       0       0       0
       0       0       0       0       0       0       0       0
       0       0       0       0       0       0       0       0
       0       0       0       0       0       0       0       0
       0       0       0       0       0       0       0       0
       0       0       0       0       0       0       0       0
       0       0       0       0       0       0       0       0
       0       0       0       0       0       0       0       0
       0       0       0       0       0       0       0       0
       0       0       0       0       0       0       0       0
       0       0       0       0       0       0       0       0
       0       0       0       0       0       0       0       0
       0       0       0       0       0       0       0       0
       0       0       0       0       0       0       0       0
       0       0       0       0       0       0       0       0
       0       0       0       0       0       0       0       0
       0       0       0       0       0       0       0       0
       0       0       0       0       0       0       0       0
       0       0       0       0       0       0       0       0
       0       0       0       0       0       0       0       0
       0       0       0       0       0       0       0       0
       0       0       0       0       0       0       0       0
       0       0       0       0       0       0       0       0
       0       0       0       0       0       0       0       0
       0       0       0       0       0       0       0       0
       0       0       0       0       0       0       0       0
       0       0       0       0       0       0       0       0
       0       0       0       0       0       0       0       0
       0       0       0       0       0       0       0       0
       0       0       0       0       0       0       0       0
       0       0       0       0       0       0       0       0
       0       0       0       0       0       0       0       0
       0       0       0       0       0       0       0       0
       0       0       0       0       0       0       0       0
       0       0       0       0       0       0       0       0
       0       0       0       0       0       0       0       0
       0       0       0       0       0       0       0       0
       0       0       0       0       0       0       0       0
       0       0       0       0       0       0       0       0
       0       0       0       0       0       0       0       0
       0       0       0       0       0       0       0       0
       0       0       0       0       0       0       0       0
       0       0       0       0       0       0       0       0
       0       0       0       0       0       0       0       0
       0       0       0       0       0       0       0       0
       0       0       0       0       0       0       0       0
       0       0       0       0       0       0       0       0
       0       0       0       0       0       0       0       0
       0       0       0       0       0       0       0       0
       0       0       0       0       0       0       0       0
       0       0       0       0       0       0       0       0
       0       0       0       0       0       0       0       0
       0       0       0       0       0       0       0       0
       0       0       0       0       0       0       0       0
       0       0       0       0       0       0       0       0
       0       0       0       0       0       0       0       0
       0       0       0       0       0       0       0       0
       0       0       0       0       0       0       0       0
       0       0       0       0       0       0       0       0
       0       0       0       0       0       0       0       0
       0       0       0       0       0       0       0       0
       0       0       0       0       0       0       0       0
       0       0       0       0       0       0       0       0
       0       0       0       0       0       0       0       0
       0       0       0       0       0       0       0       0
       0       0       0       0       0       0       0       0
       0       0       0       0       0       0       0       0
       0       0       0       0       0       0       0       0
       0       0       0       0       0       0       0       0
       0       0       0       0       0       0       0       0
       0       0       0       0       0       0       0       0
       0       0       0       0       0       0       0       0
       0       0       0       0       0       0       0       0
       0       0       0       0       0       0       0       0
       0       0       0       0       0       0       0       0
       0       0       0       0       0       0       0       0
       0       0       0       0       0       0       0       0
       0       0       0       0       0       0       0       0
       0       0       0       0       0       0       0       0
       0       0       0       0       0       0       0       0
       0       0       0       0       0       0       0       0
       0       0       0       0       0       0       0       0
       0       0       0       0       0       0       0       0
       0       0       0       0       0       0       0       0
       0       0       0       0       0       0       0       0
       0       0       0       0       0       0       0       0
       0       0       0       0       0       0       0       0
       0       0       0       0       0       0       0       0
       0       0       0       0       0       0       0       0
       0       0       0       0       0       0       0       0
       0       0       0       0       0       0       0       0
       0       0       0       0       0       0       0       0
       0       0       0       0       0       0       0       0
       0       0       0       0       0       0       0       0
       0       0       0       0       0       0       0       0
       0       0       0       0       0       0       0       0
       0       0       0       0       0       0       0       0
       0       0       0       0       0       0       0       0
       0       0       0       0       0       0       0       0
       0       0       0       0       0       0       0       0
       0       0       0       0       0       0       0       0
       0       0       0       0       0       0       0       0
       0       0       0       0       0       0       0       0
       0       0       0       0       0       0       0       0
       0       0       0       0       0       0       0       0
       0       0       0       0       0       0       0       0
       0       0       0       0       0       0       0       0
       0       0       0       0       0       0       0       0
       0       0       0       0       0       0       0       0
       0       0       0       0       0       0       0       0
       0       0       0       0       0       0       0       0
       0       0       0       0       0       0       0       0
       0       0       0       0       0       0       0       0
       0       0       0       0       0       0       0       0
       0       0       0       0       0       0       0       0
       0       0       0       0       0       0       0       0
       0       0       0       0       0       0       0       0
       0       0       0       0       0       0       0       0
       0       0       0       0       0       0       0       0
       0       0       0       0       0       0       0       0
       0       0       0       0       0       0       0       0
       0       0       0       0       0       0       0       0
       0       0       0       0       0       0       0       0
       0       0       0       0       0       0       0       0
       0       0       0       0       0       0       0       0
       0       0       0       0       0       0       0       0
       0       0       0       0       0       0       0       0
       0       0       0       0       0       0       0       0
       0       0       0       0       0       0       0       0
       0       0       0       0       0       0       0       0
       0       0       0       0       0       0       0       0
       0       0       0       0       0       0       0       0
       0       0       0       0       0       0       0       0
       0       0       0       0       0       0       0       0
       0       0       0       0       0       0       0       0
       0       0       0       0       0       0       0       0
       0       0       0       0       0       0       0       0
       0       0       0       0       0       0       0       0
       0       0       0       0       0       0       0       0
       0       0       0       0       0       0       0       0
       0       0       0       0       0       0       0       0
       0       0       0       0       0       0       0       0
       0       0       0       0       0       0       0       0
       0       0       0       0       0       0       0       0
       0       0       0       0       0       0       0       0
       0       0       0       0       0       0       0       0
       0       0       0       0       0       0       0       0
       0       0       0       0       0       0       0       0
       0       0       0       0       0       0       0       0
       0       0       0       0       0       0       0       0
       0       0       0       0       0       0       0       0
       0       0       0       0       0       0       0       0
       0       0       0       0       0       0       0       0
       0       0       0       0       0       0       0       0
       0       0       0       0       0       0       0       0
       0       0       0       0       0       0       0       0
       0       0       0       0       0       0       0       0
       0       0       0       0       0       0       0       0
       0       0       0       0       0       0       0       0
       0       0       0       0       0       0       0       0
       0       0       0       0       0       0       0       0
       0       0       0       0       0       0       0       0
       0       0       0       0       0       0       0       0
       0       0       0       0       0       0       0       0
       0       0       0       0       0       0       0       0
       0       0       0       0       0       0       0       0
       0       0       0       0       0       0       0       0
       0       0       0       0       0       0       0       0
       0       0       0       0       0       0       0       0
       0       0       0       0       0       0       0       0
       0       0       0       0       0       0       0       0
       0       0       0       0       0       0       0       0
       0       0       0       0       0       0       0       0
       0       0       0       0       0       0       0       0
       0       0       0       0       0       0       0       0
       0       0       0       0       0       0       0       0
       0       0       0       0       0       0       0       0
       0       0       0       0       0       0       0       0
       0       0       0       0       0       0       0       0
       0       0       0       0       0       0       0       0
       0       0       0       0       0       0       0       0
       0       0       0       0       0       0       0       0
       0       0       0       0       0       0       0       0
       0       0       0       0       0       0       0       0
       0       0       0       0       0       0       0       0
       0       0       0       0       0       0       0       0
       0       0       0       0       0       0       0       0
       0       0       0       0       0       0       0       0
       0       0       0       0       0       0       0       0
       0       0       0       0       0       0       0       0
       0       0       0       0       0       0       0       0
       0       0       0       0       0       0       0       0
       0       0       0       0       0       0       0       0
       0       0       0       0       0       0       0       0
       0       0       0       0       0       0       0       0
       0       0       0       0       0       0       0       0
       0       0       0       0       0       0       0       0
       0       0       0       0       0       0       0       0
       0       0       0       0       0       0       0       0
       0       0       0       0       0       0       0       0
       0       0       0       0       0       0       0       0
       0       0       0       0       0       0       0       0
       0       0       0       0       0       0       0       0
       0       0       0       0       0       0       0       0
       0       0       0       0       0       0       0       0
       0       0       0       0       0       0       0       0
       0       0       0       0       0       0       0       0
       0       0       0       0       0       0       0       0
       0       0       0       0       0       0       0       0
       0       0       0       0       0       0       0       0
       0       0       0       0       0       0       0       0
       0       0       0       0       0       0       0       0
       0       0       0       0       0       0       0       0
       0       0       0       0       0       0       0       0
       0       0       0       0       0       0       0       0
       0       0       0       0       0       0       0       0
       0       0       0       0       0       0       0       0
       0       0       0       0       0       0       0       0
       0       0       0       0       0       0       0       0
       0       0       0       0       0       0       0       0
       0       0       0       0       0       0       0       0
       0       0       0       0       0       0       0       0
       0       0       0       0       0       0       0       0
       0       0       0       0       0       0       0       0
       0       0       0       0       0       0       0       0
       0       0       0       0       0       0       0       0
       0       0       0       0       0       0       0       0
       0       0       0       0       0       0       0       0
       0       0       0       0       0       0       0       0
       0       0       0       0       0       0       0       0
       0       0       0       0       0       0       0       0
       0       0       0       0       0       0       0       0
       0       0       0       0       0       0       0       0
       0       0       0       0       0       0       0       0
       0       0       0       0       0       0       0       0
       0       0       0       0       0       0       0       0
       0       0       0       0       0       0       0       0
       0       0       0       0       0       0       0       0
       0       0       0       0       0       0       0       0
       0       0       0       0       0       0       0       0
       0       0       0       0       0       0       0       0
       0       0       0       0       0       0       0       0
       0       0       0       0       0       0       0       0
       0       0       0       0       0       0       0       0
       0       0       0       0       0       0       0       0
       0       0       0       0       0       0       0       0
       0       0       0       0       0       0       0       0
       0       0       0       0       0       0       0       0
       0       0       0       0       0       0       0       0
       0       0       0       0       0       0       0       0
       0       0       0       0       0       0       0       0
       0       0       0       0       0       0       0       0
       0       0       0       0       0       0       0       0
       0       0       0       0       0       0       0       0
       0       0       0       0       0       0       0       0
       0       0       0       0       0       0       0       0
       0       0       0       0       0       0       0       0
       0       0       0       0       0       0       0       0
       0       0       0       0       0       0       0       0
       0       0       0       0       0       0       0       0
       0       0       0       0       0       0       0       0
       0       0       0       0       0       0       0       0
       0       0       0       0       0       0       0       0
       0       0       0       0       0       0       0       0
       0       0       0       0       0       0       0       0
       0       0       0       0       0       0       0       0
       0       0       0       0       0       0       0       0
       0       0       0       0       0       0       0       0
       0       0       0       0       0       0       0       0
       0       0       0       0       0       0       0       0
       0       0       0       0       0       0       0       0
       0       0       0       0       0       0       0       0
       0       0       0       0       0       0       0       0
       0       0       0       0       0       0       0       0
       0       0       0       0       0       0       0       0
       0       0       0       0       0       0       0       0
       0       0       0       0       0       0       0       0
       0       0       0       0       0       0       0       0
       0       0       0       0       0       0       0       0
       0       0       0       0       0       0       0       0
       0       0       0       0       0       0       0       0
       0       0       0       0       0       0       0       0
       0       0       0       0       0       0       0       0
       0       0       0       0       0       0       0       0
       0       0       0       0       0       0       0       0
       0       0       0       0       0       0       0       0
       0       0       0       0       0       0       0       0
       0       0       0       0       0       0       0       0
       0       0       0       0       0       0       0       0
       0       0       0       0       0       0       0       0
       0       0       0       0       0       0       0       0
       0       0       0       0       0       0       0       0
       0       0       0       0       0       0       0       0
       0       0       0       0       0       0       0       0
       0       0       0       0       0       0       0       0
       0       0       0       0       0       0       0       0
       0       0       0       0       0       0       0       0
       0       0       0       0       0       0       0       0
       0       0       0       0       0       0       0       0
       0       0       0       0       0       0       0       0
       0       0       0       0       0       0       0       0
       0       0       0       0       0       0       0       0
       0       0       0       0       0       0       0       0
       0       0       0       0       0       0       0       0
       0       0       0       0       0       0       0       0
       0       0       0       0       0       0       0       0
       0       0       0       0       0       0       0       0
       0       0       0       0       0       0       0       0
       0       0       0       0       0       0       0       0
       0       0       0       0       0       0       0       0
       0       0       0       0       0       0       0       0
       0       0       0       0       0       0       0       0
       0       0       0       0       0       0       0       0
       0       0       0       0       0       0       0       0
       0       0       0       0       0       0       0       0
       0       0       0       0       0       0       0       0
       0       0       0       0       0       0       0       0
       0       0       0       0       0       0       0       0
       0       0       0       0       0       0       0       0
       0       0       0       0       0       0       0       0
       0       0       0       0       0       0       0       0
       0       0       0       0       0       0       0       0
       0       0       0       0       0       0       0       0
       0       0       0       0       0       0       0       0
       0       0       0       0       0       0       0       0
       0       0       0       0       0       0       0       0
       0       0       0       0       0       0       0       0
       0       0       0       0       0       0       0       0
       0       0       0       0       0       0       0       0
       0       0       0       0       0       0       0       0
       0       0       0       0       0       0       0       0
       0       0       0       0       0       0       0       0
       0       0       0       0       0       0       0       0
       0       0       0       0       0       0       0       0
       0       0       0       0       0       0       0       0
       0       0       0       0       0       0       0       0
       0       0       0       0       0       0       0       0
       0       0       0       0       0       0       0       0
       0       0       0       0       0       0       0       0
       0       0       0       0       0       0       0       0
       0       0       0       0       0       0       0       0
       0       0       0       0       0       0       0       0
       0       0       0       0       0       0       0       0
       0       0       0       0       0       0       0       0
       0       0       0       0       0       0       0       0
       0       0       0       0       0       0       0       0
       0       0       0       0       0       0       0       0
       0       0       0       0       0       0       0       0
       0       0       0       0       0       0       0       0
       0       0       0       0       0       0       0       0
       0       0       0       0       0       0       0       0
       0       0       0       0       0       0       0       0
       0       0       0       0       0       0       0       0
       0       0       0       0       0       0       0       0
       0       0       0       0       0       0       0       0
       0       0       0       0       0       0       0       0
       0       0       0       0       0       0       0       0
       0       0       0       0       0       0       0       0
       0       0       0       0       0       0       0       0
       0       0       0       0       0       0       0       0
       0       0       0       0       0       0       0       0
       0       0       0       0       0       0       0       0
       0       0       0       0       0       0       0       0
       0       0       0       0       0       0       0       0
       0       0       0       0       0       0       0       0
       0       0       0       0       0       0       0       0
       0       0       0       0       0       0       0       0
       0       0       0       0       0       0       0       0
       0       0       0       0       0       0       0       0
       0       0       0       0       0       0       0       0
       0       0       0       0       0       0       0       0
       0       0       0       0       0       0       0       0
       0       0       0       0       0       0       0       0
       0       0       0       0       0       0       0       0
       0       0       0       0       0       0       0       0
       0       0       0       0       0       0       0       0
       0       0       0       0       0       0       0       0
       0       0       0       0       0       0       0       0
       0       0       0       0       0       0       0       0
       0       0       0       0       0       0       0       0
       0       0       0       0       0       0       0       0
       0       0       0       0       0       0       0       0
       0       0       0       0       0       0       0       0
       0       0       0       0       0       0       0       0
       0       0       0       0       0       0       0       0
       0       0       0       0       0       0       0       0
       0       0       0       0       0       0       0       0
       0       0       0       0       0       0       0       0
       0       0       0       0       0       0       0       0
       0       0       0       0       0       0       0       0
       0       0       0       0       0       0       0       0
       0       0       0       0       0       0       0       0
       0       0       0       0       0       0       0       0
       0       0       0       0       0       0       0       0
       0       0       0       0       0       0       0       0
       0       0       0       0       0       0       0       0
       0       0       0       0       0       0       0       0
       0       0       0       0       0       0       0       0
       0       0       0       0       0       0       0       0
       0       0       0       0       0       0       0       0
       0       0       0       0       0       0       0       0
       0       0       0       0       0       0       0       0
       0       0       0       0       0       0       0       0
       0       0       0       0       0       0       0       0
       0       0       0       0       0       0       0       0
       0       0       0       0       0       0       0       0
       0       0       0       0       0       0       0       0
       0       0       0       0       0       0       0       0
       0       0       0       0       0       0       0       0
       0       0       0       0       0       0       0       0
       0       0       0       0       0       0       0       0
       0       0       0       0       0       0       0       0
       0       0       0       0       0       0       0       0
       0       0       0       0       0       0       0       0
       0       0       0       0       0       0       0       0
       0       0       0       0       0       0       0       0
       0       0       0       0       0       0       0       0
       0       0       0       0       0       0       0       0
       0       0       0       0       0       0       0       0
       0       0       0       0       0       0       0       0
       0       0       0       0       0       0       0       0
       0       0       0       0       0       0       0       0
       0       0       0       0       0       0       0       0
       0       0       0       0       0       0       0       0
       0       0       0       0       0       0       0       0
       0       0       0       0       0       0       0       0
       0       0       0       0       0       0       0       0
       0       0       0       0       0       0       0       0
       0       0       0       0       0       0       0       0
       0       0       0       0       0       0       0       0
       0       0       0       0       0       0       0       0
       0       0       0       0       0       0       0       0
       0       0       0       0       0       0       0       0
       0       0       0       0       0       0       0       0
       0       0       0       0       0       0       0       0
       0       0       0       0       0       0       0       0
       0       0       0       0       0       0       0       0
       0       0       0       0       0       0       0       0
       0       0       0       0       0       0       0       0
       0       0       0       0       0       0       0       0
       0       0       0       0       0       0       0       0
       0       0       0       0       0       0       0       0
       0       0       0       0       0       0       0       0
       0       0       0       0       0       0       0       0
       0       0       0       0       0       0       0       0
       0       0       0       0       0       0       0       0
       0       0       0       0       0       0       0       0
       0       0       0       0       0       0       0       0
       0       0       0       0       0       0       0       0
       0       0       0       0       0       0       0       0
       0       0       0       0       0       0       0       0
       0       0       0       0       0       0       0       0
       0       0       0       0       0       0       0       0
       0       0       0       0       0       0       0       0
       0       0       0       0       0       0       0       0
       0       0       0       0       0       0       0       0
       0       0       0       0       0       0       0       0
       0       0       0       0       0       0       0       0
       0       0       0       0       0       0       0       0
       0       0       0       0       0       0       0       0
       0       0       0       0       0       0       0       0
       0       0       0       0       0       0       0       0
       0       0       0       0       0       0       0       0
       0       0       0       0       0       0       0       0
       0       0       0       0       0       0       0       0
       0       0       0       0       0       0       0       0
       0       0       0       0       0       0       0       0
       0       0       0       0       0       0       0       0
       0       0       0       0       0       0       0       0
       0       0       0       0       0       0       0       0
       0       0       0       0       0       0       0       0
       0       0       0       0       0       0       0       0
       0       0       0       0       0       0       0       0
       0       0       0       0       0       0       0       0
       0       0       0       0       0       0       0       0
       0       0       0       0       0       0       0       0
       0       0       0       0       0       0       0       0
       0       0       0       0       0       0       0       0
       0       0       0       0       0       0       0       0
       0       0       0       0       0       0       0       0
       0       0       0       0       0       0       0       0
       0       0       0       0       0       0       0       0
       0       0       0       0       0       0       0       0
       0       0       0       0       0       0       0       0
       0       0       0       0       0       0       0       0
       0       0       0       0       0       0       0       0
       0       0       0       0       0       0       0       0
       0       0       0       0       0       0       0       0
       0       0       0       0       0       0       0       0
       0       0       0       0       0       0       0       0
       0       0       0       0       0       0       0       0
       0       0       0       0       0       0       0       0
       0       0       0       0       0       0       0       0
       0       0       0       0       0       0       0       0
       0       0       0       0       0       0       0       0
       0       0       0       0       0       0       0       0
       0       0       0       0       0       0       0       0
       0       0       0       0       0       0       0       0
       0       0       0       0       0       0       0       0
       0       0       0       0       0       0       0       0
       0       0       0       0       0       0       0       0
       0       0       0       0       0       0       0       0
       0       0       0       0       0       0       0       0
       0       0       0       0       0       0       0       0
       0       0       0       0       0       0       0       0
       0       0       0       0       0       0       0       0
       0       0       0       0       0       0       0       0
       0       0       0       0       0       0       0       0
       0       0       0       0       0       0       0       0
       0       0       0       0       0       0       0       0
       0       0       0       0       0       0       0       0
       0       0       0       0       0       0       0       0
       0       0       0       0       0       0       0       0
       0       0       0       0       0       0       0       0
       0       0       0       0       0       0       0       0
       0       0       0       0       0       0       0       0
       0       0       0       0       0       0       0       0
       0       0       0       0       0       0       0       0
       0       0       0       0       0       0       0       0
       0       0       0       0       0       0       0       0
       0       0       0       0       0       0       0       0
       0       0       0       0       0       0       0       0
       0       0       0       0       0       0       0       0
       0       0       0       0       0       0       0       0
       0       0       0       0       0       0       0       0
       0       0       0       0       0       0       0       0
       0       0       0       0       0       0       0       0
       0       0       0       0       0       0       0       0
       0       0       0       0       0       0       0       0
       0       0       0       0       0       0       0       0
       0       0       0       0       0       0       0       0
       0       0       0       0       0       0       0       0
       0       0       0       0       0       0       0       0
       0       0       0       0       0       0       0       0
       0       0       0       0       0       0       0       0
       0       0       0       0       0       0       0       0
       0       0       0       0       0       0       0       0
       0       0       0       0       0       0       0       0
       0       0       0       0       0       0       0       0
       0       0       0       0       0       0       0       0
       0       0       0       0       0       0       0       0
       0       0       0       0       0       0       0       0
       0       0       0       0       0       0       0       0
       0       0       0       0       0       0       0       0
       0       0       0       0       0       0       0       0
       0       0       0       0       0       0       0       0
       0       0       0       0       0       0       0       0
       0       0       0       0       0       0       0       0
       0       0       0       0       0       0       0       0
       0       0       0       0       0       0       0       0
       0       0       0       0       0       0       0       0
       0       0       0       0       0       0       0       0
       0       0       0       0       0       0       0       0
       0       0       0       0       0       0       0       0
       0       0       0       0       0       0       0       0
       0       0       0       0       0       0       0       0
       0       0       0       0       0       0       0       0
       0       0       0       0       0       0       0       0
       0       0       0       0       0       0       0       0
       0       0       0       0       0       0       0       0
       0       0       0       0       0       0       0       0
       0       0       0       0       0       0       0       0
       0       0       0       0       0       0       0       0
       0       0       0       0       0       0       0       0
       0       0       0       0       0       0       0       0
       0       0       0       0       0       0       0       0
       0       0       0       0       0       0       0       0
       0       0       0       0       0       0       0       0
       0       0       0       0       0       0       0       0
       0       0       0       0       0       0       0       0
       0       0       0       0       0       0       0       0
       0       0       0       0       0       0       0       0
       0       0       0       0       0       0       0       0
       0       0       0       0       0       0       0       0
       0       0       0       0       0       0       0       0
       0       0       0       0       0       0       0       0
       0       0       0       0       0       0       0       0
       0       0       0       0       0       0       0       0
       0       0       0       0       0       0       0       0
       0       0       0       0       0       0       0       0
       0       0       0       0       0       0       0       0
       0       0       0       0       0       0       0       0
       0       0       0       0       0       0       0       0
       0       0       0       0       0       0       0       0
       0       0       0       0       0       0       0       0
       0       0       0       0       0       0       0       0
       0       0       0       0       0       0       0       0
       0       0       0       0       0       0       0       0
       0       0       0       0       0       0       0       0
       0       0       0       0       0       0       0       0
       0       0       0       0       0       0       0       0
       0       0       0       0       0       0       0       0
       0       0       0       0       0       0       0       0
       0       0       0       0       0       0       0       0
       0       0       0       0       0       0       0       0
       0       0       0       0       0       0       0       0
       0       0       0       0       0       0       0       0
       0       0       0       0       0       0       0       0
       0       0       0       0       0       0       0       0
       0       0       0       0       0       0       0       0
       0       0       0       0       0       0       0       0
       0       0       0       0       0       0       0       0
       0       0       0       0       0       0       0       0
       0       0       0       0       0       0       0       0
       0       0       0       0       0       0       0       0
       0       0       0       0       0       0       0       0
       0       0       0       0       0       0       0       0
       0       0       0       0       0       0       0       0
       0       0       0       0       0       0       0       0
       0       0       0       0       0       0       0       0
       0       0       0       0       0       0       0       0
       0       0       0       0       0       0       0       0
       0       0       0       0       0       0       0       0
       0       0       0       0       0       0       0       0
       0       0       0       0       0       0       0       0
       0       0       0       0       0       0       0       0
       0       0       0       0       0       0       0       0
       0       0       0       0       0       0       0       0
       0       0       0       0       0       0       0       0
       0       0       0       0       0       0       0       0
       0       0       0       0       0       0       0       0
       0       0       0       0       0       0       0       0
       0       0       0       0       0       0       0       0
       0       0       0       0       0       0       0       0
       0       0       0       0       0       0       0       0
       0       0       0       0       0       0       0       0
       0       0       0       0       0       0       0       0
       0       0       0       0       0       0       0       0
       0       0       0       0       0       0       0       0
       0       0       0       0       0       0       0       0
       0       0       0       0       0       0       0       0
       0       0       0       0       0       0       0       0
       0       0       0       0       0       0       0       0
       0       0       0       0       0       0       0       0
       0       0       0       0       0       0       0       0
       0       0       0       0       0       0       0       0
       0       0       0       0       0       0       0       0
       0       0       0       0       0       0       0       0
       0       0       0       0       0       0       0       0
       0       0       0       0       0       0       0       0
       0       0       0       0       0       0       0       0
       0       0       0       0       0       0       0       0
       0       0       0       0       0       0       0       0
       0       0       0       0       0       0       0       0
       0       0       0       0       0       0       0       0
       0       0       0       0       0       0       0       0
       0       0       0       0       0       0       0       0
       0       0       0       0       0       0       0       0
       0       0       0       0       0       0       0       0
       0       0       0       0       0       0       0       0
       0       0       0       0       0       0       0       0
       0       0       0       0       0       0       0       0
       0       0       0       0       0       0       0       0
       0       0       0       0       0       0       0       0
       0       0       0       0       0       0       0       0
       0       0       0       0       0       0       0       0
       0       0       0       0       0       0       0       0
       0       0       0       0       0       0       0       0
       0       0       0       0       0       0       0       0
       0       0       0       0       0       0       0       0
       0       0       0       0       0       0       0       0
       0       0       0       0       0       0       0       0
       0       0       0       0       0       0       0       0
       0       0       0       0       0       0       0       0
       0       0       0       0       0       0       0       0
       0       0       0       0       0       0       0       0
       0       0       0       0       0       0       0       0
       0       0       0       0       0       0       0       0
       0       0       0       0       0       0       0       0
       0       0       0       0       0       0       0       0
       0       0       0       0       0       0       0       0
       0       0       0       0       0       0       0       0
       0       0       0       0       0       0       0       0
       0       0       0       0       0       0       0       0
       0       0       0       0       0       0       0       0
       0       0       0       0       0       0       0       0
       0       0       0       0       0       0       0       0
       0       0       0       0       0       0       0       0
       0       0       0       0       0       0       0       0
       0       0       0       0       0       0       0       0
       0       0       0       0       0       0       0       0
       0       0       0       0       0       0       0       0
       0       0       0       0       0       0       0       0
       0       0       0       0       0       0       0       0
       0       0       0       0       0       0       0       0
       0       0       0       0       0       0       0       0
       0       0       0       0       0       0       0       0
       0       0       0       0       0       0       0       0
       0       0       0       0       0       0       0       0
       0       0       0       0       0       0       0       0
       0       0       0       0       0       0       0       0
       0       0       0       0       0       0       0       0
       0       0       0       0       0       0       0       0
       0       0       0       0       0       0       0       0
       0       0       0       0       0       0       0       0
       0       0       0       0       0       0       0       0
       0       0       0       0       0       0       0       0
       0       0       0       0       0       0       0       0
       0       0       0       0       0       0       0       0
       0       0       0       0       0       0       0       0
       0       0       0       0       0       0       0       0
       0       0       0       0       0       0       0       0
       0       0       0       0       0       0       0       0
       0       0       0       0       0       0       0       0
       0       0       0       0       0       0       0       0
       0       0       0       0       0       0       0       0
       0       0       0       0       0       0       0       0
       0       0       0       0       0       0       0       0
       0       0       0       0       0       0       0       0
       0       0       0       0       0       0       0       0
       0       0       0       0       0       0       0       0
       0       0       0       0       0       0       0       0
       0       0       0       0       0       0       0       0
       0       0       0       0       0       0       0       0
       0       0       0       0       0       0       0       0
       0       0       0       0       0       0       0       0
       0       0       0       0       0       0       0       0
       0       0       0       0       0       0       0       0
       0       0       0       0       0       0       0       0
       0       0       0       0       0       0       0       0
       0       0       0       0       0       0       0       0
       0       0       0       0       0       0       0       0
       0       0       0       0       0       0       0       0
       0       0       0       0       0       0       0       0
       0       0       0       0       0       0       0       0
       0       0       0       0       0       0       0       0
       0       0       0       0       0       0       0       0
       0       0       0       0       0       0       0       0
       0       0       0       0       0       0       0       0
       0       0       0       0       0       0       0       0
       0       0       0       0       0       0       0       0
       0       0       0       0       0       0       0       0
       0       0       0       0       0       0       0       0
       0       0       0       0       0       0       0       0
       0       0       0       0       0       0       0       0
       0       0       0       0       0       0       0       0
       0       0       0       0       0       0       0       0
       0       0       0       0       0       0       0       0
       0       0       0       0       0       0       0       0
       0       0       0       0       0       0       0       0
       0       0       0       0       0       0       0       0
       0       0       0       0       0       0       0       0
       0       0       0       0       0       0       0       0
       0       0       0       0       0       0       0       0
       0       0       0       0       0       0       0       0
       0       0       0       0       0       0       0       0
       0       0       0       0       0       0       0       0
       0       0       0       0       0       0       0       0
       0       0       0       0       0       0       0       0
       0       0       0       0       0       0       0       0
       0       0       0       0       0       0       0       0
       0       0       0       0       0       0       0       0
       0       0       0       0       0       0       0       0
       0       0       0       0       0       0       0       0
       0       0       0       0       0       0       0       0
       0       0       0       0       0       0       0       0
       0       0       0       0       0       0       0       0
       0       0       0       0       0       0       0       0
       0       0       0       0       0       0       0       0
       0       0       0       0       0       0       0       0
       0       0       0       0       0       0       0       0
       0       0       0       0       0       0       0       0
       0       0       0       0       0       0       0       0
       0       0       0       0       0       0       0       0
       0       0       0       0       0       0       0       0
       0       0       0       0       0       0       0       0
       0       0       0       0       0       0       0       0
       0       0       0       0       0       0       0       0
       0       0       0       0       0       0       0       0
       0       0       0       0       0       0       0       0
       0       0       0       0       0       0       0       0
       0       0       0       0       0       0       0       0
       0       0       0       0       0       0       0       0
       0       0       0       0       0       0       0       0
       0       0       0       0       0       0       0       0
       0       0       0       0       0       0       0       0
       0       0       0       0       0       0       0       0
       0       0       0       0       0       0       0       0
       0       0       0       0       0       0       0       0
       0       0       0       0       0       0       0       0
       0       0       0       0       0       0       0       0
       0       0       0       0       0       0       0       0
       0       0       0       0       0       0       0       0
       0       0       0       0       0       0       0       0
       0       0       0       0       0       0       0       0
       0       0       0       0       0       0       0       0
       0       0       0       0       0       0       0       0
       0       0       0       0       0       0       0       0
       0       0       0       0       0       0       0       0
       0       0       0       0       0       0       0       0
       0       0       0       0       0       0       0       0
       0       0       0       0       0       0       0       0
       0       0       0       0       0       0       0       0
       0       0       0       0       0       0       0       0
       0       0       0       0       0       0       0       0
       0       0       0       0       0       0       0       0
       0       0       0       0       0       0       0       0
       0       0       0       0       0       0       0       0
       0       0       0       0       0       0       0       0
       0       0       0       0       0       0       0       0
       0       0       0       0       0       0       0       0
       0       0       0       0       0       0       0       0
       0       0       0       0       0       0       0       0
       0       0       0       0       0       0       0       0
       0       0       0       0       0       0       0       0
       0       0       0       0       0       0       0       0
       0       0       0       0       0       0       0       0
       0       0       0       0       0       0       0       0
       0       0       0       0       0       0       0       0
       0       0       0       0       0       0       0       0
       0       0       0       0       0       0       0       0
       0       0       0       0       0       0       0       0
       0       0       0       0       0       0       0       0
       0       0       0       0       0       0       0       0
       0       0       0       0       0       0       0       0
       0       0       0       0       0       0       0       0
       0       0       0       0       0       0       0       0
       0       0       0       0       0       0       0       0
       0       0       0       0       0       0       0       0
       0       0       0       0       0       0       0       0
       0       0       0       0       0       0       0       0
       0       0       0       0       0       0       0       0
       0       0       0       0       0       0       0       0
       0       0       0       0       0       0       0       0
       0       0       0       0       0       0       0       0
       0       0       0       0       0       0       0       0
       0       0       0       0       0       0       0       0
       0       0       0       0       0       0       0       0
       0       0       0       0       0       0       0       0
       0       0       0       0       0       0       0       0
       0       0       0       0       0       0       0       0
       0       0       0       0       0       0       0       0
       0       0       0       0       0       0       0       0
       0       0       0       0       0       0       0       0
       0       0       0       0       0       0       0       0
       0       0       0       0       0       0       0       0
       0       0       0       0       0       0       0       0
       0       0       0       0       0       0       0       0
       0       0       0       0       0       0       0       0
       0       0       0       0       0       0       0       0
       0       0       0       0       0       0       0       0
       0       0       0       0       0       0       0       0
       0       0       0       0       0       0       0       0
       0       0       0       0       0       0       0       0
       0       0       0       0       0       0       0       0
       0       0       0       0       0       0       0       0
       0       0       0       0       0       0       0       0
       0       0       0       0       0       0       0       0
       0       0       0       0       0       0       0       0
       0       0       0       0       0       0       0       0
       0       0       0       0       0       0       0       0
       0       0       0       0       0       0       0       0
       0       0       0       0       0       0       0       0
       0       0       0       0       0       0       0       0
       0       0       0       0       0       0       0       0
       0       0       0       0       0       0       0       0
       0       0       0       0       0       0       0       0
       0       0       0       0       0       0       0       0
       0       0       0       0       0       0       0       0
       0       0       0       0       0       0       0       0
       0       0       0       0       0       0       0       0
       0       0       0       0       0       0       0       0
       0       0       0       0       0       0       0       0
       0       0       0       0       0       0       0       0
       0       0       0       0       0       0       0       0
       0       0       0       0       0       0       0       0
       0       0       0       0       0       0       0       0
       0       0       0       0       0       0       0       0
       0       0       0       0       0       0       0       0
       0       0       0       0       0       0       0       0
       0       0       0       0       0       0       0       0
       0       0       0       0       0       0       0       0
       0       0       0       0       0       0       0       0
       0       0       0       0       0       0       0       0
       0       0       0       0       0       0       0       0
       0       0       0       0       0       0       0       0
       0       0       0       0       0       0       0       0
       0       0       0       0       0       0       0       0
       0       0       0       0       0       0       0       0
       0       0       0       0       0       0       0       0
       0       0       0       0       0       0       0       0
       0       0       0       0       0       0       0       0
       0       0       0       0       0       0       0       0
       0       0       0       0       0       0       0       0
       0       0       0       0       0       0       0       0
       0       0       0       0       0       0       0       0
       0       0       0       0       0       0       0       0
       0       0       0       0       0       0       0       0
       0       0       0       0       0       0       0       0
       0       0       0       0       0       0       0       0
       0       0       0       0       0       0       0       0
       0       0       0       0       0       0       0       0
       0       0       0       0       0       0       0       0
       0       0       0       0       0       0       0       0
       0       0       0       0       0       0       0       0
       0       0       0       0       0       0       0       0
       0       0       0       0       0       0       0       0
       0       0       0       0       0       0       0       0
       0       0       0       0       0       0       0       0
       0       0       0       0       0       0       0       0
       0       0       0       0       0       0       0       0
       0       0       0       0       0       0       0       0
       0       0       0       0       0       0       0       0
       0       0       0       0       0       0       0       0
       0       0       0       0       0       0       0       0
       0       0       0       0       0       0       0       0
       0       0       0       0       0       0       0       0
       0       0       0       0       0       0       0       0
       0       0       0       0       0       0       0       0
       0       0       0       0       0       0       0       0
       0       0       0       0       0       0       0       0
       0       0       0       0       0       0       0       0
       0       0       0       0       0       0       0       0
       0       0       0       0       0       0       0       0
       0       0       0       0       0       0       0       0
       0       0       0       0       0       0       0       0
       0       0       0       0       0       0       0       0
       0       0       0       0       0       0       0       0
       0       0       0       0       0       0       0       0
       0       0       0       0       0       0       0       0
       0       0       0       0       0       0       0       0
       0       0       0       0       0       0       0       0
       0       0       0       0       0       0       0       0
       0       0       0       0       0       0       0       0
       0       0       0       0       0       0       0       0
       0       0       0       0       0       0       0       0
       0       0       0       0       0       0       0       0
       0       0       0       0       0       0       0       0
       0       0       0       0       0       0       0       0
       0       0       0       0       0       0       0       0
       0       0       0       0       0       0       0       0
       0       0       0       0       0       0       0       0
       0       0       0       0       0       0       0       0
       0       0       0       0       0       0       0       0
       0       0       0       0       0       0       0       0
       0       0       0       0       0       0       0       0
       0       0       0       0       0       0       0       0
       0       0       0       0       0       0       0       0
       0       0       0       0       0       0       0       0
       0       0       0       0       0       0       0       0
       0       0       0       0       0       0       0       0
       0       0       0       0       0       0       0       0
       0       0       0       0       0       0       0       0
       0       0       0       0       0       0       0       0
       0       0       0       0       0       0       0       0
       0       0       0       0       0       0       0       0
       0       0       0       0       0       0       0       0
       0       0       0       0       0       0       0       0
       0       0       0       0       0       0       0       0
       0       0       0       0       0       0       0       0
       0       0       0       0       0       0       0       0
       0       0       0       0       0       0       0       0
       0       0       0       0       0       0       0       0
       0       0       0       0       0       0       0       0
       0       0       0       0       0       0       0       0
       0       0       0       0       0       0       0       0
       0       0       0       0       0       0       0       0
       0       0       0       0       0       0       0       0
       0       0       0       0       0       0       0       0
       0       0       0       0       0       0       0       0
       0       0       0       0       0       0       0       0
       0       0       0       0       0       0       0       0
       0       0       0       0       0       0       0       0
       0       0       0       0       0       0       0       0
       0       0       0       0       0       0       0       0
       0       0       0       0       0       0       0       0
       0       0       0       0       0       0       0       0
       0       0       0       0       0       0       0       0
       0       0       0       0       0       0       0       0
       0       0       0       0       0       0       0       0
       0       0       0       0       0       0       0       0
       0       0       0       0       0       0       0       0
       0       0       0       0       0       0       0       0
       0       0       0       0       0       0       0       0
       0       0       0       0       0       0       0       0
       0       0       0       0       0       0       0       0
       0       0       0       0       0       0       0       0
       0       0       0       0       0       0       0       0
       0       0       0       0       0       0       0       0
       0       0       0       0       0       0       0       0
       0       0       0       0       0       0       0       0
       0       0       0       0       0       0       0       0
       0       0       0       0       0       0       0       0
       0       0       0       0       0       0       0       0
       0       0       0       0       0       0       0       0
       0       0       0       0       0       0       0       0
       0       0       0       0       0       0       0       0
       0       0       0       0       0       0       0       0
       0       0       0       0       0       0       0       0
       0       0       0       0       0       0       0       0
       0       0       0       0       0       0       0       0
       0       0       0       0       0       0       0       0
       0       0       0       0       0       0       0       0
       0       0       0       0       0       0       0       0
       0       0       0       0       0       0       0       0
       0       0       0       0       0       0       0       0
       0       0       0       0       0       0       0       0
       0       0       0       0       0       0       0       0
       0       0       0       0       0       0       0       0
       0       0       0       0       0       0       0       0
       0       0       0       0       0       0       0       0
       0       0       0       0       0       0       0       0
       0       0       0       0       0       0       0       0
       0       0       0       0       0       0       0       0
       0       0       0       0       0       0       0       0
       0       0       0       0       0       0       0       0
       0       0       0       0       0       0       0       0
       0       0       0       0       0       0       0       0
       0       0       0       0       0       0       0       0
       0       0       0       0       0       0       0       0
       0       0       0       0       0       0       0       0
       0       0       0       0       0       0       0       0
       0       0       0       0       0       0       0       0
       0       0       0       0       0       0       0       0
       0       0       0       0       0       0       0       0
       0       0       0       0       0       0       0       0
       0       0       0       0       0       0       0       0
       0       0       0       0       0       0       0       0
       0       0       0       0       0       0       0       0
       0       0       0       0       0       0       0       0
       0       0       0       0       0       0       0       0
       0       0       0       0       0       0       0       0
       0       0       0       0       0       0       0       0
       0       0       0       0       0       0       0       0
       0       0       0       0       0       0       0       0
       0       0       0       0       0       0       0       0
       0       0       0       0       0       0       0       0
       0       0       0       0       0       0       0       0
       0       0       0       0       0       0       0       0
       0       0       0       0       0       0       0       0
       0       0       0       0       0       0       0       0
       0       0       0       0       0       0       0       0
       0       0       0       0       0       0       0       0
       0       0       0       0       0       0       0       0
       0       0       0       0       0       0       0       0
       0       0       0       0       0       0       0       0
       0       0       0       0       0       0       0       0
       0       0       0       0       0       0       0       0
       0       0       0       0       0       0       0       0
       0       0       0       0       0       0       0       0
       0       0       0       0       0       0       0       0
       0       0       0       0       0       0       0       0
       0       0       0       0       0       0       0       0
       0       0       0       0       0       0       0       0
       0       0       0       0       0       0       0       0
       0       0       0       0       0       0       0       0
       0       0       0       0       0       0       0       0
       0       0       0       0       0       0       0       0
       0       0       0       0       0       0       0       0
       0       0       0       0       0       0       0       0
       0       0       0       0       0       0       0       0
       0       0       0       0       0       0       0       0
       0       0       0       0       0       0       0       0
       0       0       0       0       0       0       0       0
       0       0       0       0       0       0       0       0
       0       0       0       0       0       0       0       0
       0       0       0       0       0       0       0       0
       0       0       0       0       0       0       0       0
       0       0       0       0       0       0       0       0
       0       0       0       0       0       0       0       0
       0       0       0       0       0       0       0       0
       0       0       0       0       0       0       0       0
       0       0       0       0       0       0       0       0
       0       0       0       0       0       0       0       0
       0       0       0       0       0       0       0       0
       0       0       0       0       0       0       0       0
       0       0       0       0       0       0       0       0
       0       0       0       0       0       0       0       0
       0       0       0       0       0       0       0       0
       0       0       0       0       0       0       0       0
       0       0       0       0       0       0       0       0
       0       0       0       0       0       0       0       0
       0       0       0       0       0       0       0       0
       0       0       0       0       0       0       0       0
       0       0       0       0       0       0       0       0
       0       0       0       0       0       0       0       0
       0       0       0       0       0       0       0       0
       0       0       0       0       0       0       0       0
       0       0       0       0       0       0       0       0
       0       0       0       0       0       0       0       0
       0       0       0       0       0       0       0       0
       0       0       0       0       0       0       0       0
       0       0       0       0       0       0       0       0
       0       0       0       0       0       0       0       0
       0       0       0       0       0       0       0       0
       0       0       0       0       0       0       0       0
       0       0       0       0       0       0       0       0
       0       0       0       0       0       0       0       0
       0       0       0       0       0       0       0       0
       0       0       0       0       0       0       0       0
       0       0       0       0       0       0       0       0
       0       0       0       0       0       0       0       0
       0       0       0       0       0       0       0       0
       0       0       0       0       0       0       0       0
       0       0       0       0       0       0       0       0
       0       0       0       0       0       0       0       0
       0       0       0       0       0       0       0       0
       0       0       0       0       0       0       0       0
       0       0       0       0       0       0       0       0
       0       0       0       0       0       0       0       0
       0       0       0       0       0       0       0       0
       0       0       0       0       0       0       0       0
       0       0       0       0       0       0       0       0
       0       0       0       0       0       0       0       0
       0       0       0       0       0       0       0       0
       0       0       0       0       0       0       0       0
       0       0       0       0       0       0       0       0
       0       0       0       0       0       0       0       0
       0       0       0       0       0       0       0       0
       0       0       0       0       0       0       0       0
       0       0       0       0       0       0       0       0
       0       0       0       0       0       0       0       0
       0       0       0       0       0       0       0       0
       0       0       0       0       0       0       0       0
       0       0       0       0       0       0       0       0
       0       0       0       0       0       0       0       0
       0       0       0       0       0       0       0       0
       0       0       0       0       0       0       0       0
       0       0       0       0       0       0       0       0
       0       0       0       0       0       0       0       0
       0       0       0       0       0       0       0       0
       0       0       0       0       0       0       0       0
       0       0       0       0       0       0       0       0
       0       0       0       0       0       0       0       0
       0       0       0       0       0       0       0       0
       0       0       0       0       0       0       0       0
       0       0       0       0       0       0       0       0
       0       0       0       0       0       0       0       0
       0       0       0       0       0       0       0       0
       0       0       0       0       0       0       0       0
       0       0       0       0       0       0       0       0
       0       0       0       0       0       0       0       0
       0       0       0       0       0       0       0       0
       0       0       0       0       0       0       0       0
       0       0       0       0       0       0       0       0
       0       0       0       0       0       0       0       0
       0       0       0       0       0       0       0       0
       0       0       0       0       0       0       0       0
       0       0       0       0       0       0       0       0
       0       0       0       0       0       0       0       0
       0       0       0       0       0       0       0       0
       0       0       0       0       0       0       0       0
       0       0       0       0       0       0       0       0
       0       0       0       0       0       0       0       0
       0       0       0       0       0       0       0       0
       0       0       0       0       0       0       0       0
       0       0       0       0       0       0       0       0
       0       0       0       0       0       0       0       0
       0       0       0       0       0       0       0       0
       0       0       0       0       0       0       0       0
       0       0       0       0       0       0       0       0
       0       0       0       0       0       0       0       0
       0       0       0       0       0       0       0       0
       0       0       0       0       0       0       0       0
       0       0       0       0       0       0       0       0
       0       0       0       0       0       0       0       0
       0       0       0       0       0       0       0       0
       0       0       0       0       0       0       0       0
       0       0       0       0       0       0       0       0
       0       0       0       0       0       0       0       0
       0       0       0       0       0       0       0       0
       0       0       0       0       0       0       0       0
       0       0       0       0       0       0       0       0
       0       0       0       0       0       0       0       0
       0       0       0       0       0       0       0       0
       0       0       0       0       0       0       0       0
       0       0       0       0       0       0       0       0
       0       0       0       0       0       0       0       0
       0       0       0       0       0       0       0       0
       0       0       0       0       0       0       0       0
       0       0       0       0       0       0       0       0
       0       0       0       0       0       0       0       0
       0       0       0       0       0       0       0       0
       0       0       0       0       0       0       0       0
       0       0       0       0       0       0       0       0
       0       0       0       0       0       0       0       0
       0       0       0       0       0       0       0       0
       0       0       0       0       0       0       0       0
       0       0       0       0       0       0       0       0
       0       0       0       0       0       0       0       0
       0       0       0       0       0       0       0       0
       0       0       0       0       0       0       0       0
       0       0       0       0       0       0       0       0
       0       0       0       0       0       0       0       0
       0       0       0       0       0       0       0       0
       0       0       0       0       0       0       0       0
       0       0       0       0       0       0       0       0
       0       0       0       0       0       0       0       0
       0       0       0       0       0       0       0       0
       0       0       0       0       0       0       0       0
       0       0       0       0       0       0       0       0
       0       0       0       0       0       0       0       0
       0       0       0       0       0       0       0       0
       0       0       0       0       0       0       0       0
       0       0       0       0       0       0       0       0
       0       0       0       0       0       0       0       0
       0       0       0       0       0       0       0       0
       0       0       0       0       0       0       0       0
       0       0       0       0       0       0       0       0
       0       0       0       0       0       0       0       0
       0       0       0       0       0       0       0       0
       0       0       0       0       0       0       0       0
       0       0       0       0       0       0       0       0
       0       0       0       0       0       0       0       0
       0       0       0       0       0       0       0       0
       0       0       0       0       0       0       0       0
       0       0       0       0       0       0       0       0
       0       0       0       0       0       0       0       0
       0       0       0       0       0       0       0       0
       0       0       0       0       0       0       0       0
       0       0       0       0       0       0       0       0
       0       0       0       0       0       0       0       0
       0       0       0       0       0       0       0       0
       0       0       0       0       0       0       0       0
       0       0       0       0       0       0       0       0
       0       0       0       0       0       0       0       0
       0       0       0       0       0       0       0       0
       0       0       0       0       0       0       0       0
       0       0       0       0       0       0       0       0
       0       0       0       0       0       0       0       0
       0       0       0       0       0       0       0       0
       0       0       0       0       0       0       0       0
       0       0       0       0       0       0       0       0
       0       0       0       0       0       0       0       0
       0       0       0       0       0       0       0       0
       0       0       0       0       0       0       0       0
       0       0       0       0       0       0       0       0
       0       0       0       0       0       0       0       0
       0       0       0       0       0       0       0       0
       0       0       0       0       0       0       0       0
       0       0       0       0       0       0       0       0
       0       0       0       0       0       0       0       0
       0       0       0       0       0       0       0       0
       0       0       0       0       0       0       0       0
       0       0       0       0       0       0       0       0
       0       0       0       0       0       0       0       0
       0       0       0       0       0       0       0       0
       0       0       0       0       0       0       0       0
       0       0       0       0       0       0       0       0
       0       0       0       0       0       0       0       0
       0       0       0       0       0       0       0       0
       0       0       0       0       0       0       0       0
       0       0       0       0       0       0       0       0
       0       0       0       0       0       0       0       0
       0       0       0       0       0       0       0       0
       0       0       0       0       0       0       0       0
       0       0       0       0       0       0       0       0
       0       0       0       0       0       0       0       0
       0       0       0       0       0       0       0       0
       0       0       0       0       0       0       0       0
       0       0       0       0       0       0       0       0
       0       0       0       0       0       0       0       0
       0       0       0       0       0       0       0       0
       0       0       0       0       0       0       0       0
       0       0       0       0       0       0       0       0
       0       0       0       0       0       0       0       0
       0       0       0       0       0       0       0       0
       0       0       0       0       0       0       0       0
       0       0       0       0       0       0       0       0
       0       0       0       0       0       0       0       0
       0       0       0       0       0       0       0       0
       0       0       0       0       0       0       0       0
       0       0       0       0       0       0       0       0
       0       0       0       0       0       0       0       0
       0       0       0       0       0       0       0       0
       0       0       0       0       0       0       0       0
       0       0       0       0       0       0       0       0
       0       0       0       0       0       0       0       0
       0       0       0       0       0       0       0       0
       0       0       0       0       0       0       0       0
       0       0       0       0       0       0       0       0
       0       0       0       0       0       0       0       0
       0       0       0       0       0       0       0       0
       0       0       0       0       0       0       0       0
       0       0       0       0       0       0       0       0
       0       0       0       0       0       0       0       0
       0       0       0       0       0       0       0       0
       0       0       0       0       0       0       0       0
       0       0       0       0       0       0       0       0
       0       0       0       0       0       0       0       0
       0       0       0       0       0       0       0       0
       0       0       0       0       0       0       0       0
       0       0       0       0       0       0       0       0
       0       0       0       0       0       0       0       0
       0       0       0       0       0       0       0       0
       0       0       0       0       0       0       0       0
       0       0       0       0       0       0       0       0
       0       0       0       0       0       0       0       0
       0       0       0       0       0       0       0       0
       0       0       0       0       0       0       0       0
       0       0       0       0       0       0       0       0
       0       0       0       0       0       0       0       0
       0       0       0       0       0       0       0       0
       0       0       0       0       0       0       0       0
       0       0       0       0       0       0       0       0
       0       0       0       0       0       0       0       0
       0       0       0       0       0       0       0       0
       0       0       0       0       0       0       0       0
       0       0       0       0       0       0       0       0
       0       0       0       0       0       0       0       0
       0       0       0       0       0       0       0       0
       0       0       0       0       0       0       0       0
       0       0       0       0       0       0       0       0
       0       0       0       0       0       0       0       0
       0       0       0       0       0       0       0       0
       0       0       0       0       0       0       0       0
       0       0       0       0       0       0       0       0
       0       0       0       0       0       0       0       0
       0       0       0       0       0       0       0       0
       0       0       0       0       0       0       0       0
       0       0       0       0       0       0       0       0
       0       0       0       0       0       0       0       0
       0       0       0       0       0       0       0       0
       0       0       0       0       0       0       0       0
       0       0       0       0       0       0       0       0
       0       0       0       0       0       0       0       0
       0       0       0       0       0       0       0       0
       0       0       0       0       0       0       0       0
       0       0       0       0       0       0       0       0
       0       0       0       0       0       0       0       0
       0       0       0       0       0       0       0       0
       0       0       0       0       0       0       0       0
       0       0       0       0       0       0       0       0
       0       0       0       0       0       0       0       0
       0       0       0       0       0       0       0       0
       0       0       0       0       0       0       0       0
       0       0       0       0       0       0       0       0
       0       0       0       0       0       0       0       0
       0       0       0       0       0       0       0       0
       0       0       0       0       0       0       0       0
       0       0       0       0       0       0       0       0
       0       0       0       0       0       0       0       0
       0       0       0       0       0       0       0       0
       0       0       0       0       0       0       0       0
       0       0       0       0       0       0       0       0
       0       0       0       0       0       0       0       0
       0       0       0       0       0       0       0       0
       0       0       0       0       0       0       0       0
       0       0       0       0       0       0       0       0
       0       0       0       0       0       0       0       0
       0       0       0       0       0       0       0       0
       0       0       0       0       0       0       0       0
       0       0       0       0       0       0       0       0
       0       0       0       0       0       0       0       0
       0       0       0       0       0       0       0       0
       0       0       0       0       0       0       0       0
       0       0       0       0       0       0       0       0
       0       0       0       0       0       0       0       0
       0       0       0       0       0       0       0       0
       0       0       0       0       0       0       0       0
       0       0       0       0       0       0       0       0
       0       0       0       0       0       0       0       0
       0       0       0       0       0       0       0       0
       0       0       0       0       0       0       0       0
       0       0       0       0       0       0       0       0
       0       0       0       0       0       0       0       0
       0       0       0       0       0       0       0       0
       0       0       0       0       0       0       0       0
       0       0       0       0       0       0       0       0
       0       0       0       0       0       0       0       0
       0       0       0       0       0       0       0       0
       0       0       0       0       0       0       0       0
       0       0       0       0       0       0       0       0
       0       0       0       0       0       0       0       0
       0       0       0       0       0       0       0       0
       0       0       0       0       0       0       0       0
       0       0       0       0       0       0       0       0
       0       0       0       0       0       0       0       0
       0       0       0       0       0       0       0       0
       0       0       0       0       0       0       0       0
       0       0       0       0       0       0       0       0
       0       0       0       0       0       0       0       0
       0       0       0       0       0       0       0       0
       0       0       0       0       0       0       0       0
       0       0       0       0       0       0       0       0
       0       0       0       0       0       0       0       0
       0       0       0       0       0       0       0       0
       0       0       0       0       0       0       0       0
       0       0       0       0       0       0       0       0
       0       0       0       0       0       0       0       0
       0       0       0       0       0       0       0       0
       0       0       0       0       0       0       0       0
       0       0       0       0       0       0       0       0
       0       0       0       0       0       0       0       0
       0       0       0       0       0       0       0       0
       0       0       0       0       0       0       0       0
       0       0       0       0       0       0       0       0
       0       0       0       0       0       0       0       0
       0       0       0       0       0       0       0       0
       0       0       0       0       0       0       0       0
       0       0       0       0       0       0       0       0
       0       0       0       0       0       0       0       0
       0       0       0       0       0       0       0       0
       0       0       0       0       0       0       0       0
       0       0       0       0       0       0       0       0
       0       0       0       0       0       0       0       0
       0       0       0       0       0       0       0       0
       0       0       0       0       0       0       0       0
       0       0       0       0       0       0       0       0
       0       0       0       0       0       0       0       0
       0       0       0       0       0       0       0       0
       0       0       0       0       0       0       0       0
       0       0       0       0       0       0       0       0
       0       0       0       0       0       0       0       0
       0       0       0       0       0       0       0       0
       0       0       0       0       0       0       0       0
       0       0       0       0       0       0       0       0
       0       0       0       0       0       0       0       0
       0       0       0       0       0       0       0       0
       0       0       0

       1       0 !NGRP
       0       0       0

      15 !NCRTERM: cross-terms
       5       7       9      22       7       9      22      24
      22      24      26      32      24      26      32      34
      32      34      38      46      34      38      46      48
      46      48      50      56      48      50      56      58
      56      58      60      77      58      60      77      79
      77      79      81      99      79      81      99     101
      99     101     103     121     101     103     121     123
     121     123     125     131     123     125     131     133
     131     133     135     141     133     135     141     143
     141     143     145     163     143     145     163     165
     163     165     167     185     165     167     185     187
     185     187     189     204     187     189     204     206
     204     206     208     214     206     208     214     216
     214     216     218     229     216     218     229     231
     229     231     233     240     231     233     240     242

