PSF EXT CMAP XPLOR

         2 !NTITLE
* GENERATED BY CHARMM-GUI FF-Converter
* DATE:   09/16/25   12:36:54

     27049 !NATOM
         1 PROA     1        GLN      CAY      CT3     -0.270000       12.0110           0
         2 PROA     1        GLN      HY1      HA3      0.900000E-01   1.00800           0
         3 PROA     1        GLN      HY2      HA3      0.900000E-01   1.00800           0
         4 PROA     1        GLN      HY3      HA3      0.900000E-01   1.00800           0
         5 PROA     1        GLN      CY       C        0.510000       12.0110           0
         6 PROA     1        GLN      OY       O       -0.510000       15.9994           0
         7 PROA     1        GLN      N        NH1     -0.470000       14.0070           0
         8 PROA     1        GLN      HN       H        0.310000       1.00800           0
         9 PROA     1        GLN      CA       CT1      0.700000E-01   12.0110           0
        10 PROA     1        GLN      HA       HB1      0.900000E-01   1.00800           0
        11 PROA     1        GLN      CB       CT2     -0.180000       12.0110           0
        12 PROA     1        GLN      HB1      HA2      0.900000E-01   1.00800           0
        13 PROA     1        GLN      HB2      HA2      0.900000E-01   1.00800           0
        14 PROA     1        GLN      CG       CT2     -0.180000       12.0110           0
        15 PROA     1        GLN      HG1      HA2      0.900000E-01   1.00800           0
        16 PROA     1        GLN      HG2      HA2      0.900000E-01   1.00800           0
        17 PROA     1        GLN      CD       CC       0.550000       12.0110           0
        18 PROA     1        GLN      OE1      O       -0.550000       15.9994           0
        19 PROA     1        GLN      NE2      NH2     -0.620000       14.0070           0
        20 PROA     1        GLN      HE21     H        0.320000       1.00800           0
        21 PROA     1        GLN      HE22     H        0.300000       1.00800           0
        22 PROA     1        GLN      C        C        0.510000       12.0110           0
        23 PROA     1        GLN      O        O       -0.510000       15.9994           0
        24 PROA     2        ALA      N        NH1     -0.470000       14.0070           0
        25 PROA     2        ALA      HN       H        0.310000       1.00800           0
        26 PROA     2        ALA      CA       CT1      0.700000E-01   12.0110           0
        27 PROA     2        ALA      HA       HB1      0.900000E-01   1.00800           0
        28 PROA     2        ALA      CB       CT3     -0.270000       12.0110           0
        29 PROA     2        ALA      HB1      HA3      0.900000E-01   1.00800           0
        30 PROA     2        ALA      HB2      HA3      0.900000E-01   1.00800           0
        31 PROA     2        ALA      HB3      HA3      0.900000E-01   1.00800           0
        32 PROA     2        ALA      C        C        0.510000       12.0110           0
        33 PROA     2        ALA      O        O       -0.510000       15.9994           0
        34 PROA     3        PRO      N        N       -0.290000       14.0070           0
        35 PROA     3        PRO      CD       CP3      0.000000       12.0110           0
        36 PROA     3        PRO      HD1      HA2      0.900000E-01   1.00800           0
        37 PROA     3        PRO      HD2      HA2      0.900000E-01   1.00800           0
        38 PROA     3        PRO      CA       CP1      0.200000E-01   12.0110           0
        39 PROA     3        PRO      HA       HB1      0.900000E-01   1.00800           0
        40 PROA     3        PRO      CB       CP2     -0.180000       12.0110           0
        41 PROA     3        PRO      HB1      HA2      0.900000E-01   1.00800           0
        42 PROA     3        PRO      HB2      HA2      0.900000E-01   1.00800           0
        43 PROA     3        PRO      CG       CP2     -0.180000       12.0110           0
        44 PROA     3        PRO      HG1      HA2      0.900000E-01   1.00800           0
        45 PROA     3        PRO      HG2      HA2      0.900000E-01   1.00800           0
        46 PROA     3        PRO      C        C        0.510000       12.0110           0
        47 PROA     3        PRO      O        O       -0.510000       15.9994           0
        48 PROA     4        ALA      N        NH1     -0.470000       14.0070           0
        49 PROA     4        ALA      HN       H        0.310000       1.00800           0
        50 PROA     4        ALA      CA       CT1      0.700000E-01   12.0110           0
        51 PROA     4        ALA      HA       HB1      0.900000E-01   1.00800           0
        52 PROA     4        ALA      CB       CT3     -0.270000       12.0110           0
        53 PROA     4        ALA      HB1      HA3      0.900000E-01   1.00800           0
        54 PROA     4        ALA      HB2      HA3      0.900000E-01   1.00800           0
        55 PROA     4        ALA      HB3      HA3      0.900000E-01   1.00800           0
        56 PROA     4        ALA      C        C        0.510000       12.0110           0
        57 PROA     4        ALA      O        O       -0.510000       15.9994           0
        58 PROA     5        TYR      N        NH1     -0.470000       14.0070           0
        59 PROA     5        TYR      HN       H        0.310000       1.00800           0
        60 PROA     5        TYR      CA       CT1      0.700000E-01   12.0110           0
        61 PROA     5        TYR      HA       HB1      0.900000E-01   1.00800           0
        62 PROA     5        TYR      CB       CT2     -0.180000       12.0110           0
        63 PROA     5        TYR      HB1      HA2      0.900000E-01   1.00800           0
        64 PROA     5        TYR      HB2      HA2      0.900000E-01   1.00800           0
        65 PROA     5        TYR      CG       CA       0.000000       12.0110           0
        66 PROA     5        TYR      CD1      CA      -0.115000       12.0110           0
        67 PROA     5        TYR      HD1      HP       0.115000       1.00800           0
        68 PROA     5        TYR      CE1      CA      -0.115000       12.0110           0
        69 PROA     5        TYR      HE1      HP       0.115000       1.00800           0
        70 PROA     5        TYR      CZ       CA       0.110000       12.0110           0
        71 PROA     5        TYR      OH       OH1     -0.540000       15.9994           0
        72 PROA     5        TYR      HH       H        0.430000       1.00800           0
        73 PROA     5        TYR      CD2      CA      -0.115000       12.0110           0
        74 PROA     5        TYR      HD2      HP       0.115000       1.00800           0
        75 PROA     5        TYR      CE2      CA      -0.115000       12.0110           0
        76 PROA     5        TYR      HE2      HP       0.115000       1.00800           0
        77 PROA     5        TYR      C        C        0.510000       12.0110           0
        78 PROA     5        TYR      O        O       -0.510000       15.9994           0
        79 PROA     6        LYS      N        NH1     -0.470000       14.0070           0
        80 PROA     6        LYS      HN       H        0.310000       1.00800           0
        81 PROA     6        LYS      CA       CT1      0.700000E-01   12.0110           0
        82 PROA     6        LYS      HA       HB1      0.900000E-01   1.00800           0
        83 PROA     6        LYS      CB       CT2     -0.180000       12.0110           0
        84 PROA     6        LYS      HB1      HA2      0.900000E-01   1.00800           0
        85 PROA     6        LYS      HB2      HA2      0.900000E-01   1.00800           0
        86 PROA     6        LYS      CG       CT2     -0.180000       12.0110           0
        87 PROA     6        LYS      HG1      HA2      0.900000E-01   1.00800           0
        88 PROA     6        LYS      HG2      HA2      0.900000E-01   1.00800           0
        89 PROA     6        LYS      CD       CT2     -0.180000       12.0110           0
        90 PROA     6        LYS      HD1      HA2      0.900000E-01   1.00800           0
        91 PROA     6        LYS      HD2      HA2      0.900000E-01   1.00800           0
        92 PROA     6        LYS      CE       CT2      0.210000       12.0110           0
        93 PROA     6        LYS      HE1      HA2      0.500000E-01   1.00800           0
        94 PROA     6        LYS      HE2      HA2      0.500000E-01   1.00800           0
        95 PROA     6        LYS      NZ       NH3     -0.300000       14.0070           0
        96 PROA     6        LYS      HZ1      HC       0.330000       1.00800           0
        97 PROA     6        LYS      HZ2      HC       0.330000       1.00800           0
        98 PROA     6        LYS      HZ3      HC       0.330000       1.00800           0
        99 PROA     6        LYS      C        C        0.510000       12.0110           0
       100 PROA     6        LYS      O        O       -0.510000       15.9994           0
       101 PROA     7        LYS      N        NH1     -0.470000       14.0070           0
       102 PROA     7        LYS      HN       H        0.310000       1.00800           0
       103 PROA     7        LYS      CA       CT1      0.700000E-01   12.0110           0
       104 PROA     7        LYS      HA       HB1      0.900000E-01   1.00800           0
       105 PROA     7        LYS      CB       CT2     -0.180000       12.0110           0
       106 PROA     7        LYS      HB1      HA2      0.900000E-01   1.00800           0
       107 PROA     7        LYS      HB2      HA2      0.900000E-01   1.00800           0
       108 PROA     7        LYS      CG       CT2     -0.180000       12.0110           0
       109 PROA     7        LYS      HG1      HA2      0.900000E-01   1.00800           0
       110 PROA     7        LYS      HG2      HA2      0.900000E-01   1.00800           0
       111 PROA     7        LYS      CD       CT2     -0.180000       12.0110           0
       112 PROA     7        LYS      HD1      HA2      0.900000E-01   1.00800           0
       113 PROA     7        LYS      HD2      HA2      0.900000E-01   1.00800           0
       114 PROA     7        LYS      CE       CT2      0.210000       12.0110           0
       115 PROA     7        LYS      HE1      HA2      0.500000E-01   1.00800           0
       116 PROA     7        LYS      HE2      HA2      0.500000E-01   1.00800           0
       117 PROA     7        LYS      NZ       NH3     -0.300000       14.0070           0
       118 PROA     7        LYS      HZ1      HC       0.330000       1.00800           0
       119 PROA     7        LYS      HZ2      HC       0.330000       1.00800           0
       120 PROA     7        LYS      HZ3      HC       0.330000       1.00800           0
       121 PROA     7        LYS      C        C        0.510000       12.0110           0
       122 PROA     7        LYS      O        O       -0.510000       15.9994           0
       123 PROA     8        ALA      N        NH1     -0.470000       14.0070           0
       124 PROA     8        ALA      HN       H        0.310000       1.00800           0
       125 PROA     8        ALA      CA       CT1      0.700000E-01   12.0110           0
       126 PROA     8        ALA      HA       HB1      0.900000E-01   1.00800           0
       127 PROA     8        ALA      CB       CT3     -0.270000       12.0110           0
       128 PROA     8        ALA      HB1      HA3      0.900000E-01   1.00800           0
       129 PROA     8        ALA      HB2      HA3      0.900000E-01   1.00800           0
       130 PROA     8        ALA      HB3      HA3      0.900000E-01   1.00800           0
       131 PROA     8        ALA      C        C        0.510000       12.0110           0
       132 PROA     8        ALA      O        O       -0.510000       15.9994           0
       133 PROA     9        ALA      N        NH1     -0.470000       14.0070           0
       134 PROA     9        ALA      HN       H        0.310000       1.00800           0
       135 PROA     9        ALA      CA       CT1      0.700000E-01   12.0110           0
       136 PROA     9        ALA      HA       HB1      0.900000E-01   1.00800           0
       137 PROA     9        ALA      CB       CT3     -0.270000       12.0110           0
       138 PROA     9        ALA      HB1      HA3      0.900000E-01   1.00800           0
       139 PROA     9        ALA      HB2      HA3      0.900000E-01   1.00800           0
       140 PROA     9        ALA      HB3      HA3      0.900000E-01   1.00800           0
       141 PROA     9        ALA      C        C        0.510000       12.0110           0
       142 PROA     9        ALA      O        O       -0.510000       15.9994           0
       143 PROA     10       LYS      N        NH1     -0.470000       14.0070           0
       144 PROA     10       LYS      HN       H        0.310000       1.00800           0
       145 PROA     10       LYS      CA       CT1      0.700000E-01   12.0110           0
       146 PROA     10       LYS      HA       HB1      0.900000E-01   1.00800           0
       147 PROA     10       LYS      CB       CT2     -0.180000       12.0110           0
       148 PROA     10       LYS      HB1      HA2      0.900000E-01   1.00800           0
       149 PROA     10       LYS      HB2      HA2      0.900000E-01   1.00800           0
       150 PROA     10       LYS      CG       CT2     -0.180000       12.0110           0
       151 PROA     10       LYS      HG1      HA2      0.900000E-01   1.00800           0
       152 PROA     10       LYS      HG2      HA2      0.900000E-01   1.00800           0
       153 PROA     10       LYS      CD       CT2     -0.180000       12.0110           0
       154 PROA     10       LYS      HD1      HA2      0.900000E-01   1.00800           0
       155 PROA     10       LYS      HD2      HA2      0.900000E-01   1.00800           0
       156 PROA     10       LYS      CE       CT2      0.210000       12.0110           0
       157 PROA     10       LYS      HE1      HA2      0.500000E-01   1.00800           0
       158 PROA     10       LYS      HE2      HA2      0.500000E-01   1.00800           0
       159 PROA     10       LYS      NZ       NH3     -0.300000       14.0070           0
       160 PROA     10       LYS      HZ1      HC       0.330000       1.00800           0
       161 PROA     10       LYS      HZ2      HC       0.330000       1.00800           0
       162 PROA     10       LYS      HZ3      HC       0.330000       1.00800           0
       163 PROA     10       LYS      C        C        0.510000       12.0110           0
       164 PROA     10       LYS      O        O       -0.510000       15.9994           0
       165 PROA     11       LYS      N        NH1     -0.470000       14.0070           0
       166 PROA     11       LYS      HN       H        0.310000       1.00800           0
       167 PROA     11       LYS      CA       CT1      0.700000E-01   12.0110           0
       168 PROA     11       LYS      HA       HB1      0.900000E-01   1.00800           0
       169 PROA     11       LYS      CB       CT2     -0.180000       12.0110           0
       170 PROA     11       LYS      HB1      HA2      0.900000E-01   1.00800           0
       171 PROA     11       LYS      HB2      HA2      0.900000E-01   1.00800           0
       172 PROA     11       LYS      CG       CT2     -0.180000       12.0110           0
       173 PROA     11       LYS      HG1      HA2      0.900000E-01   1.00800           0
       174 PROA     11       LYS      HG2      HA2      0.900000E-01   1.00800           0
       175 PROA     11       LYS      CD       CT2     -0.180000       12.0110           0
       176 PROA     11       LYS      HD1      HA2      0.900000E-01   1.00800           0
       177 PROA     11       LYS      HD2      HA2      0.900000E-01   1.00800           0
       178 PROA     11       LYS      CE       CT2      0.210000       12.0110           0
       179 PROA     11       LYS      HE1      HA2      0.500000E-01   1.00800           0
       180 PROA     11       LYS      HE2      HA2      0.500000E-01   1.00800           0
       181 PROA     11       LYS      NZ       NH3     -0.300000       14.0070           0
       182 PROA     11       LYS      HZ1      HC       0.330000       1.00800           0
       183 PROA     11       LYS      HZ2      HC       0.330000       1.00800           0
       184 PROA     11       LYS      HZ3      HC       0.330000       1.00800           0
       185 PROA     11       LYS      C        C        0.510000       12.0110           0
       186 PROA     11       LYS      O        O       -0.510000       15.9994           0
       187 PROA     12       LEU      N        NH1     -0.470000       14.0070           0
       188 PROA     12       LEU      HN       H        0.310000       1.00800           0
       189 PROA     12       LEU      CA       CT1      0.700000E-01   12.0110           0
       190 PROA     12       LEU      HA       HB1      0.900000E-01   1.00800           0
       191 PROA     12       LEU      CB       CT2     -0.180000       12.0110           0
       192 PROA     12       LEU      HB1      HA2      0.900000E-01   1.00800           0
       193 PROA     12       LEU      HB2      HA2      0.900000E-01   1.00800           0
       194 PROA     12       LEU      CG       CT1     -0.900000E-01   12.0110           0
       195 PROA     12       LEU      HG       HA1      0.900000E-01   1.00800           0
       196 PROA     12       LEU      CD1      CT3     -0.270000       12.0110           0
       197 PROA     12       LEU      HD11     HA3      0.900000E-01   1.00800           0
       198 PROA     12       LEU      HD12     HA3      0.900000E-01   1.00800           0
       199 PROA     12       LEU      HD13     HA3      0.900000E-01   1.00800           0
       200 PROA     12       LEU      CD2      CT3     -0.270000       12.0110           0
       201 PROA     12       LEU      HD21     HA3      0.900000E-01   1.00800           0
       202 PROA     12       LEU      HD22     HA3      0.900000E-01   1.00800           0
       203 PROA     12       LEU      HD23     HA3      0.900000E-01   1.00800           0
       204 PROA     12       LEU      C        C        0.510000       12.0110           0
       205 PROA     12       LEU      O        O       -0.510000       15.9994           0
       206 PROA     13       ALA      N        NH1     -0.470000       14.0070           0
       207 PROA     13       ALA      HN       H        0.310000       1.00800           0
       208 PROA     13       ALA      CA       CT1      0.700000E-01   12.0110           0
       209 PROA     13       ALA      HA       HB1      0.900000E-01   1.00800           0
       210 PROA     13       ALA      CB       CT3     -0.270000       12.0110           0
       211 PROA     13       ALA      HB1      HA3      0.900000E-01   1.00800           0
       212 PROA     13       ALA      HB2      HA3      0.900000E-01   1.00800           0
       213 PROA     13       ALA      HB3      HA3      0.900000E-01   1.00800           0
       214 PROA     13       ALA      C        C        0.510000       12.0110           0
       215 PROA     13       ALA      O        O       -0.510000       15.9994           0
       216 PROA     14       GLU      N        NH1     -0.470000       14.0070           0
       217 PROA     14       GLU      HN       H        0.310000       1.00800           0
       218 PROA     14       GLU      CA       CT1      0.700000E-01   12.0110           0
       219 PROA     14       GLU      HA       HB1      0.900000E-01   1.00800           0
       220 PROA     14       GLU      CB       CT2A    -0.180000       12.0110           0
       221 PROA     14       GLU      HB1      HA2      0.900000E-01   1.00800           0
       222 PROA     14       GLU      HB2      HA2      0.900000E-01   1.00800           0
       223 PROA     14       GLU      CG       CT2     -0.280000       12.0110           0
       224 PROA     14       GLU      HG1      HA2      0.900000E-01   1.00800           0
       225 PROA     14       GLU      HG2      HA2      0.900000E-01   1.00800           0
       226 PROA     14       GLU      CD       CC       0.620000       12.0110           0
       227 PROA     14       GLU      OE1      OC      -0.760000       15.9994           0
       228 PROA     14       GLU      OE2      OC      -0.760000       15.9994           0
       229 PROA     14       GLU      C        C        0.510000       12.0110           0
       230 PROA     14       GLU      O        O       -0.510000       15.9994           0
       231 PROA     15       SER      N        NH1     -0.470000       14.0070           0
       232 PROA     15       SER      HN       H        0.310000       1.00800           0
       233 PROA     15       SER      CA       CT1      0.700000E-01   12.0110           0
       234 PROA     15       SER      HA       HB1      0.900000E-01   1.00800           0
       235 PROA     15       SER      CB       CT2      0.500000E-01   12.0110           0
       236 PROA     15       SER      HB1      HA2      0.900000E-01   1.00800           0
       237 PROA     15       SER      HB2      HA2      0.900000E-01   1.00800           0
       238 PROA     15       SER      OG       OH1     -0.660000       15.9994           0
       239 PROA     15       SER      HG1      H        0.430000       1.00800           0
       240 PROA     15       SER      C        C        0.510000       12.0110           0
       241 PROA     15       SER      O        O       -0.510000       15.9994           0
       242 PROA     15       SER      NT       NH1     -0.470000       14.0070           0
       243 PROA     15       SER      HNT      H        0.310000       1.00800           0
       244 PROA     15       SER      CAT      CT3     -0.110000       12.0110           0
       245 PROA     15       SER      HT1      HA3      0.900000E-01   1.00800           0
       246 PROA     15       SER      HT2      HA3      0.900000E-01   1.00800           0
       247 PROA     15       SER      HT3      HA3      0.900000E-01   1.00800           0
       248 MEMB     1        CHL1     C3       CRL1     0.140000       12.0110           0
       249 MEMB     1        CHL1     H3       HGA1     0.900000E-01   1.00800           0
       250 MEMB     1        CHL1     O3       OHL     -0.660000       15.9994           0
       251 MEMB     1        CHL1     H3'      HOL      0.430000       1.00800           0
       252 MEMB     1        CHL1     C4       CRL2    -0.180000       12.0110           0
       253 MEMB     1        CHL1     H4A      HGA2     0.900000E-01   1.00800           0
       254 MEMB     1        CHL1     H4B      HGA2     0.900000E-01   1.00800           0
       255 MEMB     1        CHL1     C5       CEL1     0.000000       12.0110           0
       256 MEMB     1        CHL1     C6       CEL1    -0.150000       12.0110           0
       257 MEMB     1        CHL1     H6       HEL1     0.150000       1.00800           0
       258 MEMB     1        CHL1     C7       CRL2    -0.180000       12.0110           0
       259 MEMB     1        CHL1     H7A      HGA2     0.900000E-01   1.00800           0
       260 MEMB     1        CHL1     H7B      HGA2     0.900000E-01   1.00800           0
       261 MEMB     1        CHL1     C8       CRL1    -0.900000E-01   12.0110           0
       262 MEMB     1        CHL1     H8       HGA1     0.900000E-01   1.00800           0
       263 MEMB     1        CHL1     C14      CRL1    -0.900000E-01   12.0110           0
       264 MEMB     1        CHL1     H14      HGA1     0.900000E-01   1.00800           0
       265 MEMB     1        CHL1     C15      CRL2    -0.180000       12.0110           0
       266 MEMB     1        CHL1     H15A     HGA2     0.900000E-01   1.00800           0
       267 MEMB     1        CHL1     H15B     HGA2     0.900000E-01   1.00800           0
       268 MEMB     1        CHL1     C16      CRL2    -0.180000       12.0110           0
       269 MEMB     1        CHL1     H16A     HGA2     0.900000E-01   1.00800           0
       270 MEMB     1        CHL1     H16B     HGA2     0.900000E-01   1.00800           0
       271 MEMB     1        CHL1     C17      CRL1    -0.900000E-01   12.0110           0
       272 MEMB     1        CHL1     H17      HGA1     0.900000E-01   1.00800           0
       273 MEMB     1        CHL1     C13      CRL1     0.000000       12.0110           0
       274 MEMB     1        CHL1     C18      CTL3    -0.270000       12.0110           0
       275 MEMB     1        CHL1     H18A     HAL3     0.900000E-01   1.00800           0
       276 MEMB     1        CHL1     H18B     HAL3     0.900000E-01   1.00800           0
       277 MEMB     1        CHL1     H18C     HAL3     0.900000E-01   1.00800           0
       278 MEMB     1        CHL1     C12      CRL2    -0.180000       12.0110           0
       279 MEMB     1        CHL1     H12A     HGA2     0.900000E-01   1.00800           0
       280 MEMB     1        CHL1     H12B     HGA2     0.900000E-01   1.00800           0
       281 MEMB     1        CHL1     C11      CRL2    -0.180000       12.0110           0
       282 MEMB     1        CHL1     H11A     HGA2     0.900000E-01   1.00800           0
       283 MEMB     1        CHL1     H11B     HGA2     0.900000E-01   1.00800           0
       284 MEMB     1        CHL1     C9       CRL1    -0.900000E-01   12.0110           0
       285 MEMB     1        CHL1     H9       HGA1     0.900000E-01   1.00800           0
       286 MEMB     1        CHL1     C10      CRL1     0.000000       12.0110           0
       287 MEMB     1        CHL1     C19      CTL3    -0.270000       12.0110           0
       288 MEMB     1        CHL1     H19A     HAL3     0.900000E-01   1.00800           0
       289 MEMB     1        CHL1     H19B     HAL3     0.900000E-01   1.00800           0
       290 MEMB     1        CHL1     H19C     HAL3     0.900000E-01   1.00800           0
       291 MEMB     1        CHL1     C1       CRL2    -0.180000       12.0110           0
       292 MEMB     1        CHL1     H1A      HGA2     0.900000E-01   1.00800           0
       293 MEMB     1        CHL1     H1B      HGA2     0.900000E-01   1.00800           0
       294 MEMB     1        CHL1     C2       CRL2    -0.180000       12.0110           0
       295 MEMB     1        CHL1     H2A      HGA2     0.900000E-01   1.00800           0
       296 MEMB     1        CHL1     H2B      HGA2     0.900000E-01   1.00800           0
       297 MEMB     1        CHL1     C20      CTL1    -0.900000E-01   12.0110           0
       298 MEMB     1        CHL1     H20      HAL1     0.900000E-01   1.00800           0
       299 MEMB     1        CHL1     C21      CTL3    -0.270000       12.0110           0
       300 MEMB     1        CHL1     H21A     HAL3     0.900000E-01   1.00800           0
       301 MEMB     1        CHL1     H21B     HAL3     0.900000E-01   1.00800           0
       302 MEMB     1        CHL1     H21C     HAL3     0.900000E-01   1.00800           0
       303 MEMB     1        CHL1     C22      CTL2    -0.180000       12.0110           0
       304 MEMB     1        CHL1     H22A     HAL2     0.900000E-01   1.00800           0
       305 MEMB     1        CHL1     H22B     HAL2     0.900000E-01   1.00800           0
       306 MEMB     1        CHL1     C23      CTL2    -0.180000       12.0110           0
       307 MEMB     1        CHL1     H23A     HAL2     0.900000E-01   1.00800           0
       308 MEMB     1        CHL1     H23B     HAL2     0.900000E-01   1.00800           0
       309 MEMB     1        CHL1     C24      CTL2    -0.180000       12.0110           0
       310 MEMB     1        CHL1     H24A     HAL2     0.900000E-01   1.00800           0
       311 MEMB     1        CHL1     H24B     HAL2     0.900000E-01   1.00800           0
       312 MEMB     1        CHL1     C25      CTL1    -0.900000E-01   12.0110           0
       313 MEMB     1        CHL1     H25      HAL1     0.900000E-01   1.00800           0
       314 MEMB     1        CHL1     C26      CTL3    -0.270000       12.0110           0
       315 MEMB     1        CHL1     H26A     HAL3     0.900000E-01   1.00800           0
       316 MEMB     1        CHL1     H26B     HAL3     0.900000E-01   1.00800           0
       317 MEMB     1        CHL1     H26C     HAL3     0.900000E-01   1.00800           0
       318 MEMB     1        CHL1     C27      CTL3    -0.270000       12.0110           0
       319 MEMB     1        CHL1     H27A     HAL3     0.900000E-01   1.00800           0
       320 MEMB     1        CHL1     H27B     HAL3     0.900000E-01   1.00800           0
       321 MEMB     1        CHL1     H27C     HAL3     0.900000E-01   1.00800           0
       322 MEMB     2        CHL1     C3       CRL1     0.140000       12.0110           0
       323 MEMB     2        CHL1     H3       HGA1     0.900000E-01   1.00800           0
       324 MEMB     2        CHL1     O3       OHL     -0.660000       15.9994           0
       325 MEMB     2        CHL1     H3'      HOL      0.430000       1.00800           0
       326 MEMB     2        CHL1     C4       CRL2    -0.180000       12.0110           0
       327 MEMB     2        CHL1     H4A      HGA2     0.900000E-01   1.00800           0
       328 MEMB     2        CHL1     H4B      HGA2     0.900000E-01   1.00800           0
       329 MEMB     2        CHL1     C5       CEL1     0.000000       12.0110           0
       330 MEMB     2        CHL1     C6       CEL1    -0.150000       12.0110           0
       331 MEMB     2        CHL1     H6       HEL1     0.150000       1.00800           0
       332 MEMB     2        CHL1     C7       CRL2    -0.180000       12.0110           0
       333 MEMB     2        CHL1     H7A      HGA2     0.900000E-01   1.00800           0
       334 MEMB     2        CHL1     H7B      HGA2     0.900000E-01   1.00800           0
       335 MEMB     2        CHL1     C8       CRL1    -0.900000E-01   12.0110           0
       336 MEMB     2        CHL1     H8       HGA1     0.900000E-01   1.00800           0
       337 MEMB     2        CHL1     C14      CRL1    -0.900000E-01   12.0110           0
       338 MEMB     2        CHL1     H14      HGA1     0.900000E-01   1.00800           0
       339 MEMB     2        CHL1     C15      CRL2    -0.180000       12.0110           0
       340 MEMB     2        CHL1     H15A     HGA2     0.900000E-01   1.00800           0
       341 MEMB     2        CHL1     H15B     HGA2     0.900000E-01   1.00800           0
       342 MEMB     2        CHL1     C16      CRL2    -0.180000       12.0110           0
       343 MEMB     2        CHL1     H16A     HGA2     0.900000E-01   1.00800           0
       344 MEMB     2        CHL1     H16B     HGA2     0.900000E-01   1.00800           0
       345 MEMB     2        CHL1     C17      CRL1    -0.900000E-01   12.0110           0
       346 MEMB     2        CHL1     H17      HGA1     0.900000E-01   1.00800           0
       347 MEMB     2        CHL1     C13      CRL1     0.000000       12.0110           0
       348 MEMB     2        CHL1     C18      CTL3    -0.270000       12.0110           0
       349 MEMB     2        CHL1     H18A     HAL3     0.900000E-01   1.00800           0
       350 MEMB     2        CHL1     H18B     HAL3     0.900000E-01   1.00800           0
       351 MEMB     2        CHL1     H18C     HAL3     0.900000E-01   1.00800           0
       352 MEMB     2        CHL1     C12      CRL2    -0.180000       12.0110           0
       353 MEMB     2        CHL1     H12A     HGA2     0.900000E-01   1.00800           0
       354 MEMB     2        CHL1     H12B     HGA2     0.900000E-01   1.00800           0
       355 MEMB     2        CHL1     C11      CRL2    -0.180000       12.0110           0
       356 MEMB     2        CHL1     H11A     HGA2     0.900000E-01   1.00800           0
       357 MEMB     2        CHL1     H11B     HGA2     0.900000E-01   1.00800           0
       358 MEMB     2        CHL1     C9       CRL1    -0.900000E-01   12.0110           0
       359 MEMB     2        CHL1     H9       HGA1     0.900000E-01   1.00800           0
       360 MEMB     2        CHL1     C10      CRL1     0.000000       12.0110           0
       361 MEMB     2        CHL1     C19      CTL3    -0.270000       12.0110           0
       362 MEMB     2        CHL1     H19A     HAL3     0.900000E-01   1.00800           0
       363 MEMB     2        CHL1     H19B     HAL3     0.900000E-01   1.00800           0
       364 MEMB     2        CHL1     H19C     HAL3     0.900000E-01   1.00800           0
       365 MEMB     2        CHL1     C1       CRL2    -0.180000       12.0110           0
       366 MEMB     2        CHL1     H1A      HGA2     0.900000E-01   1.00800           0
       367 MEMB     2        CHL1     H1B      HGA2     0.900000E-01   1.00800           0
       368 MEMB     2        CHL1     C2       CRL2    -0.180000       12.0110           0
       369 MEMB     2        CHL1     H2A      HGA2     0.900000E-01   1.00800           0
       370 MEMB     2        CHL1     H2B      HGA2     0.900000E-01   1.00800           0
       371 MEMB     2        CHL1     C20      CTL1    -0.900000E-01   12.0110           0
       372 MEMB     2        CHL1     H20      HAL1     0.900000E-01   1.00800           0
       373 MEMB     2        CHL1     C21      CTL3    -0.270000       12.0110           0
       374 MEMB     2        CHL1     H21A     HAL3     0.900000E-01   1.00800           0
       375 MEMB     2        CHL1     H21B     HAL3     0.900000E-01   1.00800           0
       376 MEMB     2        CHL1     H21C     HAL3     0.900000E-01   1.00800           0
       377 MEMB     2        CHL1     C22      CTL2    -0.180000       12.0110           0
       378 MEMB     2        CHL1     H22A     HAL2     0.900000E-01   1.00800           0
       379 MEMB     2        CHL1     H22B     HAL2     0.900000E-01   1.00800           0
       380 MEMB     2        CHL1     C23      CTL2    -0.180000       12.0110           0
       381 MEMB     2        CHL1     H23A     HAL2     0.900000E-01   1.00800           0
       382 MEMB     2        CHL1     H23B     HAL2     0.900000E-01   1.00800           0
       383 MEMB     2        CHL1     C24      CTL2    -0.180000       12.0110           0
       384 MEMB     2        CHL1     H24A     HAL2     0.900000E-01   1.00800           0
       385 MEMB     2        CHL1     H24B     HAL2     0.900000E-01   1.00800           0
       386 MEMB     2        CHL1     C25      CTL1    -0.900000E-01   12.0110           0
       387 MEMB     2        CHL1     H25      HAL1     0.900000E-01   1.00800           0
       388 MEMB     2        CHL1     C26      CTL3    -0.270000       12.0110           0
       389 MEMB     2        CHL1     H26A     HAL3     0.900000E-01   1.00800           0
       390 MEMB     2        CHL1     H26B     HAL3     0.900000E-01   1.00800           0
       391 MEMB     2        CHL1     H26C     HAL3     0.900000E-01   1.00800           0
       392 MEMB     2        CHL1     C27      CTL3    -0.270000       12.0110           0
       393 MEMB     2        CHL1     H27A     HAL3     0.900000E-01   1.00800           0
       394 MEMB     2        CHL1     H27B     HAL3     0.900000E-01   1.00800           0
       395 MEMB     2        CHL1     H27C     HAL3     0.900000E-01   1.00800           0
       396 MEMB     3        CHL1     C3       CRL1     0.140000       12.0110           0
       397 MEMB     3        CHL1     H3       HGA1     0.900000E-01   1.00800           0
       398 MEMB     3        CHL1     O3       OHL     -0.660000       15.9994           0
       399 MEMB     3        CHL1     H3'      HOL      0.430000       1.00800           0
       400 MEMB     3        CHL1     C4       CRL2    -0.180000       12.0110           0
       401 MEMB     3        CHL1     H4A      HGA2     0.900000E-01   1.00800           0
       402 MEMB     3        CHL1     H4B      HGA2     0.900000E-01   1.00800           0
       403 MEMB     3        CHL1     C5       CEL1     0.000000       12.0110           0
       404 MEMB     3        CHL1     C6       CEL1    -0.150000       12.0110           0
       405 MEMB     3        CHL1     H6       HEL1     0.150000       1.00800           0
       406 MEMB     3        CHL1     C7       CRL2    -0.180000       12.0110           0
       407 MEMB     3        CHL1     H7A      HGA2     0.900000E-01   1.00800           0
       408 MEMB     3        CHL1     H7B      HGA2     0.900000E-01   1.00800           0
       409 MEMB     3        CHL1     C8       CRL1    -0.900000E-01   12.0110           0
       410 MEMB     3        CHL1     H8       HGA1     0.900000E-01   1.00800           0
       411 MEMB     3        CHL1     C14      CRL1    -0.900000E-01   12.0110           0
       412 MEMB     3        CHL1     H14      HGA1     0.900000E-01   1.00800           0
       413 MEMB     3        CHL1     C15      CRL2    -0.180000       12.0110           0
       414 MEMB     3        CHL1     H15A     HGA2     0.900000E-01   1.00800           0
       415 MEMB     3        CHL1     H15B     HGA2     0.900000E-01   1.00800           0
       416 MEMB     3        CHL1     C16      CRL2    -0.180000       12.0110           0
       417 MEMB     3        CHL1     H16A     HGA2     0.900000E-01   1.00800           0
       418 MEMB     3        CHL1     H16B     HGA2     0.900000E-01   1.00800           0
       419 MEMB     3        CHL1     C17      CRL1    -0.900000E-01   12.0110           0
       420 MEMB     3        CHL1     H17      HGA1     0.900000E-01   1.00800           0
       421 MEMB     3        CHL1     C13      CRL1     0.000000       12.0110           0
       422 MEMB     3        CHL1     C18      CTL3    -0.270000       12.0110           0
       423 MEMB     3        CHL1     H18A     HAL3     0.900000E-01   1.00800           0
       424 MEMB     3        CHL1     H18B     HAL3     0.900000E-01   1.00800           0
       425 MEMB     3        CHL1     H18C     HAL3     0.900000E-01   1.00800           0
       426 MEMB     3        CHL1     C12      CRL2    -0.180000       12.0110           0
       427 MEMB     3        CHL1     H12A     HGA2     0.900000E-01   1.00800           0
       428 MEMB     3        CHL1     H12B     HGA2     0.900000E-01   1.00800           0
       429 MEMB     3        CHL1     C11      CRL2    -0.180000       12.0110           0
       430 MEMB     3        CHL1     H11A     HGA2     0.900000E-01   1.00800           0
       431 MEMB     3        CHL1     H11B     HGA2     0.900000E-01   1.00800           0
       432 MEMB     3        CHL1     C9       CRL1    -0.900000E-01   12.0110           0
       433 MEMB     3        CHL1     H9       HGA1     0.900000E-01   1.00800           0
       434 MEMB     3        CHL1     C10      CRL1     0.000000       12.0110           0
       435 MEMB     3        CHL1     C19      CTL3    -0.270000       12.0110           0
       436 MEMB     3        CHL1     H19A     HAL3     0.900000E-01   1.00800           0
       437 MEMB     3        CHL1     H19B     HAL3     0.900000E-01   1.00800           0
       438 MEMB     3        CHL1     H19C     HAL3     0.900000E-01   1.00800           0
       439 MEMB     3        CHL1     C1       CRL2    -0.180000       12.0110           0
       440 MEMB     3        CHL1     H1A      HGA2     0.900000E-01   1.00800           0
       441 MEMB     3        CHL1     H1B      HGA2     0.900000E-01   1.00800           0
       442 MEMB     3        CHL1     C2       CRL2    -0.180000       12.0110           0
       443 MEMB     3        CHL1     H2A      HGA2     0.900000E-01   1.00800           0
       444 MEMB     3        CHL1     H2B      HGA2     0.900000E-01   1.00800           0
       445 MEMB     3        CHL1     C20      CTL1    -0.900000E-01   12.0110           0
       446 MEMB     3        CHL1     H20      HAL1     0.900000E-01   1.00800           0
       447 MEMB     3        CHL1     C21      CTL3    -0.270000       12.0110           0
       448 MEMB     3        CHL1     H21A     HAL3     0.900000E-01   1.00800           0
       449 MEMB     3        CHL1     H21B     HAL3     0.900000E-01   1.00800           0
       450 MEMB     3        CHL1     H21C     HAL3     0.900000E-01   1.00800           0
       451 MEMB     3        CHL1     C22      CTL2    -0.180000       12.0110           0
       452 MEMB     3        CHL1     H22A     HAL2     0.900000E-01   1.00800           0
       453 MEMB     3        CHL1     H22B     HAL2     0.900000E-01   1.00800           0
       454 MEMB     3        CHL1     C23      CTL2    -0.180000       12.0110           0
       455 MEMB     3        CHL1     H23A     HAL2     0.900000E-01   1.00800           0
       456 MEMB     3        CHL1     H23B     HAL2     0.900000E-01   1.00800           0
       457 MEMB     3        CHL1     C24      CTL2    -0.180000       12.0110           0
       458 MEMB     3        CHL1     H24A     HAL2     0.900000E-01   1.00800           0
       459 MEMB     3        CHL1     H24B     HAL2     0.900000E-01   1.00800           0
       460 MEMB     3        CHL1     C25      CTL1    -0.900000E-01   12.0110           0
       461 MEMB     3        CHL1     H25      HAL1     0.900000E-01   1.00800           0
       462 MEMB     3        CHL1     C26      CTL3    -0.270000       12.0110           0
       463 MEMB     3        CHL1     H26A     HAL3     0.900000E-01   1.00800           0
       464 MEMB     3        CHL1     H26B     HAL3     0.900000E-01   1.00800           0
       465 MEMB     3        CHL1     H26C     HAL3     0.900000E-01   1.00800           0
       466 MEMB     3        CHL1     C27      CTL3    -0.270000       12.0110           0
       467 MEMB     3        CHL1     H27A     HAL3     0.900000E-01   1.00800           0
       468 MEMB     3        CHL1     H27B     HAL3     0.900000E-01   1.00800           0
       469 MEMB     3        CHL1     H27C     HAL3     0.900000E-01   1.00800           0
       470 MEMB     4        CHL1     C3       CRL1     0.140000       12.0110           0
       471 MEMB     4        CHL1     H3       HGA1     0.900000E-01   1.00800           0
       472 MEMB     4        CHL1     O3       OHL     -0.660000       15.9994           0
       473 MEMB     4        CHL1     H3'      HOL      0.430000       1.00800           0
       474 MEMB     4        CHL1     C4       CRL2    -0.180000       12.0110           0
       475 MEMB     4        CHL1     H4A      HGA2     0.900000E-01   1.00800           0
       476 MEMB     4        CHL1     H4B      HGA2     0.900000E-01   1.00800           0
       477 MEMB     4        CHL1     C5       CEL1     0.000000       12.0110           0
       478 MEMB     4        CHL1     C6       CEL1    -0.150000       12.0110           0
       479 MEMB     4        CHL1     H6       HEL1     0.150000       1.00800           0
       480 MEMB     4        CHL1     C7       CRL2    -0.180000       12.0110           0
       481 MEMB     4        CHL1     H7A      HGA2     0.900000E-01   1.00800           0
       482 MEMB     4        CHL1     H7B      HGA2     0.900000E-01   1.00800           0
       483 MEMB     4        CHL1     C8       CRL1    -0.900000E-01   12.0110           0
       484 MEMB     4        CHL1     H8       HGA1     0.900000E-01   1.00800           0
       485 MEMB     4        CHL1     C14      CRL1    -0.900000E-01   12.0110           0
       486 MEMB     4        CHL1     H14      HGA1     0.900000E-01   1.00800           0
       487 MEMB     4        CHL1     C15      CRL2    -0.180000       12.0110           0
       488 MEMB     4        CHL1     H15A     HGA2     0.900000E-01   1.00800           0
       489 MEMB     4        CHL1     H15B     HGA2     0.900000E-01   1.00800           0
       490 MEMB     4        CHL1     C16      CRL2    -0.180000       12.0110           0
       491 MEMB     4        CHL1     H16A     HGA2     0.900000E-01   1.00800           0
       492 MEMB     4        CHL1     H16B     HGA2     0.900000E-01   1.00800           0
       493 MEMB     4        CHL1     C17      CRL1    -0.900000E-01   12.0110           0
       494 MEMB     4        CHL1     H17      HGA1     0.900000E-01   1.00800           0
       495 MEMB     4        CHL1     C13      CRL1     0.000000       12.0110           0
       496 MEMB     4        CHL1     C18      CTL3    -0.270000       12.0110           0
       497 MEMB     4        CHL1     H18A     HAL3     0.900000E-01   1.00800           0
       498 MEMB     4        CHL1     H18B     HAL3     0.900000E-01   1.00800           0
       499 MEMB     4        CHL1     H18C     HAL3     0.900000E-01   1.00800           0
       500 MEMB     4        CHL1     C12      CRL2    -0.180000       12.0110           0
       501 MEMB     4        CHL1     H12A     HGA2     0.900000E-01   1.00800           0
       502 MEMB     4        CHL1     H12B     HGA2     0.900000E-01   1.00800           0
       503 MEMB     4        CHL1     C11      CRL2    -0.180000       12.0110           0
       504 MEMB     4        CHL1     H11A     HGA2     0.900000E-01   1.00800           0
       505 MEMB     4        CHL1     H11B     HGA2     0.900000E-01   1.00800           0
       506 MEMB     4        CHL1     C9       CRL1    -0.900000E-01   12.0110           0
       507 MEMB     4        CHL1     H9       HGA1     0.900000E-01   1.00800           0
       508 MEMB     4        CHL1     C10      CRL1     0.000000       12.0110           0
       509 MEMB     4        CHL1     C19      CTL3    -0.270000       12.0110           0
       510 MEMB     4        CHL1     H19A     HAL3     0.900000E-01   1.00800           0
       511 MEMB     4        CHL1     H19B     HAL3     0.900000E-01   1.00800           0
       512 MEMB     4        CHL1     H19C     HAL3     0.900000E-01   1.00800           0
       513 MEMB     4        CHL1     C1       CRL2    -0.180000       12.0110           0
       514 MEMB     4        CHL1     H1A      HGA2     0.900000E-01   1.00800           0
       515 MEMB     4        CHL1     H1B      HGA2     0.900000E-01   1.00800           0
       516 MEMB     4        CHL1     C2       CRL2    -0.180000       12.0110           0
       517 MEMB     4        CHL1     H2A      HGA2     0.900000E-01   1.00800           0
       518 MEMB     4        CHL1     H2B      HGA2     0.900000E-01   1.00800           0
       519 MEMB     4        CHL1     C20      CTL1    -0.900000E-01   12.0110           0
       520 MEMB     4        CHL1     H20      HAL1     0.900000E-01   1.00800           0
       521 MEMB     4        CHL1     C21      CTL3    -0.270000       12.0110           0
       522 MEMB     4        CHL1     H21A     HAL3     0.900000E-01   1.00800           0
       523 MEMB     4        CHL1     H21B     HAL3     0.900000E-01   1.00800           0
       524 MEMB     4        CHL1     H21C     HAL3     0.900000E-01   1.00800           0
       525 MEMB     4        CHL1     C22      CTL2    -0.180000       12.0110           0
       526 MEMB     4        CHL1     H22A     HAL2     0.900000E-01   1.00800           0
       527 MEMB     4        CHL1     H22B     HAL2     0.900000E-01   1.00800           0
       528 MEMB     4        CHL1     C23      CTL2    -0.180000       12.0110           0
       529 MEMB     4        CHL1     H23A     HAL2     0.900000E-01   1.00800           0
       530 MEMB     4        CHL1     H23B     HAL2     0.900000E-01   1.00800           0
       531 MEMB     4        CHL1     C24      CTL2    -0.180000       12.0110           0
       532 MEMB     4        CHL1     H24A     HAL2     0.900000E-01   1.00800           0
       533 MEMB     4        CHL1     H24B     HAL2     0.900000E-01   1.00800           0
       534 MEMB     4        CHL1     C25      CTL1    -0.900000E-01   12.0110           0
       535 MEMB     4        CHL1     H25      HAL1     0.900000E-01   1.00800           0
       536 MEMB     4        CHL1     C26      CTL3    -0.270000       12.0110           0
       537 MEMB     4        CHL1     H26A     HAL3     0.900000E-01   1.00800           0
       538 MEMB     4        CHL1     H26B     HAL3     0.900000E-01   1.00800           0
       539 MEMB     4        CHL1     H26C     HAL3     0.900000E-01   1.00800           0
       540 MEMB     4        CHL1     C27      CTL3    -0.270000       12.0110           0
       541 MEMB     4        CHL1     H27A     HAL3     0.900000E-01   1.00800           0
       542 MEMB     4        CHL1     H27B     HAL3     0.900000E-01   1.00800           0
       543 MEMB     4        CHL1     H27C     HAL3     0.900000E-01   1.00800           0
       544 MEMB     5        CHL1     C3       CRL1     0.140000       12.0110           0
       545 MEMB     5        CHL1     H3       HGA1     0.900000E-01   1.00800           0
       546 MEMB     5        CHL1     O3       OHL     -0.660000       15.9994           0
       547 MEMB     5        CHL1     H3'      HOL      0.430000       1.00800           0
       548 MEMB     5        CHL1     C4       CRL2    -0.180000       12.0110           0
       549 MEMB     5        CHL1     H4A      HGA2     0.900000E-01   1.00800           0
       550 MEMB     5        CHL1     H4B      HGA2     0.900000E-01   1.00800           0
       551 MEMB     5        CHL1     C5       CEL1     0.000000       12.0110           0
       552 MEMB     5        CHL1     C6       CEL1    -0.150000       12.0110           0
       553 MEMB     5        CHL1     H6       HEL1     0.150000       1.00800           0
       554 MEMB     5        CHL1     C7       CRL2    -0.180000       12.0110           0
       555 MEMB     5        CHL1     H7A      HGA2     0.900000E-01   1.00800           0
       556 MEMB     5        CHL1     H7B      HGA2     0.900000E-01   1.00800           0
       557 MEMB     5        CHL1     C8       CRL1    -0.900000E-01   12.0110           0
       558 MEMB     5        CHL1     H8       HGA1     0.900000E-01   1.00800           0
       559 MEMB     5        CHL1     C14      CRL1    -0.900000E-01   12.0110           0
       560 MEMB     5        CHL1     H14      HGA1     0.900000E-01   1.00800           0
       561 MEMB     5        CHL1     C15      CRL2    -0.180000       12.0110           0
       562 MEMB     5        CHL1     H15A     HGA2     0.900000E-01   1.00800           0
       563 MEMB     5        CHL1     H15B     HGA2     0.900000E-01   1.00800           0
       564 MEMB     5        CHL1     C16      CRL2    -0.180000       12.0110           0
       565 MEMB     5        CHL1     H16A     HGA2     0.900000E-01   1.00800           0
       566 MEMB     5        CHL1     H16B     HGA2     0.900000E-01   1.00800           0
       567 MEMB     5        CHL1     C17      CRL1    -0.900000E-01   12.0110           0
       568 MEMB     5        CHL1     H17      HGA1     0.900000E-01   1.00800           0
       569 MEMB     5        CHL1     C13      CRL1     0.000000       12.0110           0
       570 MEMB     5        CHL1     C18      CTL3    -0.270000       12.0110           0
       571 MEMB     5        CHL1     H18A     HAL3     0.900000E-01   1.00800           0
       572 MEMB     5        CHL1     H18B     HAL3     0.900000E-01   1.00800           0
       573 MEMB     5        CHL1     H18C     HAL3     0.900000E-01   1.00800           0
       574 MEMB     5        CHL1     C12      CRL2    -0.180000       12.0110           0
       575 MEMB     5        CHL1     H12A     HGA2     0.900000E-01   1.00800           0
       576 MEMB     5        CHL1     H12B     HGA2     0.900000E-01   1.00800           0
       577 MEMB     5        CHL1     C11      CRL2    -0.180000       12.0110           0
       578 MEMB     5        CHL1     H11A     HGA2     0.900000E-01   1.00800           0
       579 MEMB     5        CHL1     H11B     HGA2     0.900000E-01   1.00800           0
       580 MEMB     5        CHL1     C9       CRL1    -0.900000E-01   12.0110           0
       581 MEMB     5        CHL1     H9       HGA1     0.900000E-01   1.00800           0
       582 MEMB     5        CHL1     C10      CRL1     0.000000       12.0110           0
       583 MEMB     5        CHL1     C19      CTL3    -0.270000       12.0110           0
       584 MEMB     5        CHL1     H19A     HAL3     0.900000E-01   1.00800           0
       585 MEMB     5        CHL1     H19B     HAL3     0.900000E-01   1.00800           0
       586 MEMB     5        CHL1     H19C     HAL3     0.900000E-01   1.00800           0
       587 MEMB     5        CHL1     C1       CRL2    -0.180000       12.0110           0
       588 MEMB     5        CHL1     H1A      HGA2     0.900000E-01   1.00800           0
       589 MEMB     5        CHL1     H1B      HGA2     0.900000E-01   1.00800           0
       590 MEMB     5        CHL1     C2       CRL2    -0.180000       12.0110           0
       591 MEMB     5        CHL1     H2A      HGA2     0.900000E-01   1.00800           0
       592 MEMB     5        CHL1     H2B      HGA2     0.900000E-01   1.00800           0
       593 MEMB     5        CHL1     C20      CTL1    -0.900000E-01   12.0110           0
       594 MEMB     5        CHL1     H20      HAL1     0.900000E-01   1.00800           0
       595 MEMB     5        CHL1     C21      CTL3    -0.270000       12.0110           0
       596 MEMB     5        CHL1     H21A     HAL3     0.900000E-01   1.00800           0
       597 MEMB     5        CHL1     H21B     HAL3     0.900000E-01   1.00800           0
       598 MEMB     5        CHL1     H21C     HAL3     0.900000E-01   1.00800           0
       599 MEMB     5        CHL1     C22      CTL2    -0.180000       12.0110           0
       600 MEMB     5        CHL1     H22A     HAL2     0.900000E-01   1.00800           0
       601 MEMB     5        CHL1     H22B     HAL2     0.900000E-01   1.00800           0
       602 MEMB     5        CHL1     C23      CTL2    -0.180000       12.0110           0
       603 MEMB     5        CHL1     H23A     HAL2     0.900000E-01   1.00800           0
       604 MEMB     5        CHL1     H23B     HAL2     0.900000E-01   1.00800           0
       605 MEMB     5        CHL1     C24      CTL2    -0.180000       12.0110           0
       606 MEMB     5        CHL1     H24A     HAL2     0.900000E-01   1.00800           0
       607 MEMB     5        CHL1     H24B     HAL2     0.900000E-01   1.00800           0
       608 MEMB     5        CHL1     C25      CTL1    -0.900000E-01   12.0110           0
       609 MEMB     5        CHL1     H25      HAL1     0.900000E-01   1.00800           0
       610 MEMB     5        CHL1     C26      CTL3    -0.270000       12.0110           0
       611 MEMB     5        CHL1     H26A     HAL3     0.900000E-01   1.00800           0
       612 MEMB     5        CHL1     H26B     HAL3     0.900000E-01   1.00800           0
       613 MEMB     5        CHL1     H26C     HAL3     0.900000E-01   1.00800           0
       614 MEMB     5        CHL1     C27      CTL3    -0.270000       12.0110           0
       615 MEMB     5        CHL1     H27A     HAL3     0.900000E-01   1.00800           0
       616 MEMB     5        CHL1     H27B     HAL3     0.900000E-01   1.00800           0
       617 MEMB     5        CHL1     H27C     HAL3     0.900000E-01   1.00800           0
       618 MEMB     6        CHL1     C3       CRL1     0.140000       12.0110           0
       619 MEMB     6        CHL1     H3       HGA1     0.900000E-01   1.00800           0
       620 MEMB     6        CHL1     O3       OHL     -0.660000       15.9994           0
       621 MEMB     6        CHL1     H3'      HOL      0.430000       1.00800           0
       622 MEMB     6        CHL1     C4       CRL2    -0.180000       12.0110           0
       623 MEMB     6        CHL1     H4A      HGA2     0.900000E-01   1.00800           0
       624 MEMB     6        CHL1     H4B      HGA2     0.900000E-01   1.00800           0
       625 MEMB     6        CHL1     C5       CEL1     0.000000       12.0110           0
       626 MEMB     6        CHL1     C6       CEL1    -0.150000       12.0110           0
       627 MEMB     6        CHL1     H6       HEL1     0.150000       1.00800           0
       628 MEMB     6        CHL1     C7       CRL2    -0.180000       12.0110           0
       629 MEMB     6        CHL1     H7A      HGA2     0.900000E-01   1.00800           0
       630 MEMB     6        CHL1     H7B      HGA2     0.900000E-01   1.00800           0
       631 MEMB     6        CHL1     C8       CRL1    -0.900000E-01   12.0110           0
       632 MEMB     6        CHL1     H8       HGA1     0.900000E-01   1.00800           0
       633 MEMB     6        CHL1     C14      CRL1    -0.900000E-01   12.0110           0
       634 MEMB     6        CHL1     H14      HGA1     0.900000E-01   1.00800           0
       635 MEMB     6        CHL1     C15      CRL2    -0.180000       12.0110           0
       636 MEMB     6        CHL1     H15A     HGA2     0.900000E-01   1.00800           0
       637 MEMB     6        CHL1     H15B     HGA2     0.900000E-01   1.00800           0
       638 MEMB     6        CHL1     C16      CRL2    -0.180000       12.0110           0
       639 MEMB     6        CHL1     H16A     HGA2     0.900000E-01   1.00800           0
       640 MEMB     6        CHL1     H16B     HGA2     0.900000E-01   1.00800           0
       641 MEMB     6        CHL1     C17      CRL1    -0.900000E-01   12.0110           0
       642 MEMB     6        CHL1     H17      HGA1     0.900000E-01   1.00800           0
       643 MEMB     6        CHL1     C13      CRL1     0.000000       12.0110           0
       644 MEMB     6        CHL1     C18      CTL3    -0.270000       12.0110           0
       645 MEMB     6        CHL1     H18A     HAL3     0.900000E-01   1.00800           0
       646 MEMB     6        CHL1     H18B     HAL3     0.900000E-01   1.00800           0
       647 MEMB     6        CHL1     H18C     HAL3     0.900000E-01   1.00800           0
       648 MEMB     6        CHL1     C12      CRL2    -0.180000       12.0110           0
       649 MEMB     6        CHL1     H12A     HGA2     0.900000E-01   1.00800           0
       650 MEMB     6        CHL1     H12B     HGA2     0.900000E-01   1.00800           0
       651 MEMB     6        CHL1     C11      CRL2    -0.180000       12.0110           0
       652 MEMB     6        CHL1     H11A     HGA2     0.900000E-01   1.00800           0
       653 MEMB     6        CHL1     H11B     HGA2     0.900000E-01   1.00800           0
       654 MEMB     6        CHL1     C9       CRL1    -0.900000E-01   12.0110           0
       655 MEMB     6        CHL1     H9       HGA1     0.900000E-01   1.00800           0
       656 MEMB     6        CHL1     C10      CRL1     0.000000       12.0110           0
       657 MEMB     6        CHL1     C19      CTL3    -0.270000       12.0110           0
       658 MEMB     6        CHL1     H19A     HAL3     0.900000E-01   1.00800           0
       659 MEMB     6        CHL1     H19B     HAL3     0.900000E-01   1.00800           0
       660 MEMB     6        CHL1     H19C     HAL3     0.900000E-01   1.00800           0
       661 MEMB     6        CHL1     C1       CRL2    -0.180000       12.0110           0
       662 MEMB     6        CHL1     H1A      HGA2     0.900000E-01   1.00800           0
       663 MEMB     6        CHL1     H1B      HGA2     0.900000E-01   1.00800           0
       664 MEMB     6        CHL1     C2       CRL2    -0.180000       12.0110           0
       665 MEMB     6        CHL1     H2A      HGA2     0.900000E-01   1.00800           0
       666 MEMB     6        CHL1     H2B      HGA2     0.900000E-01   1.00800           0
       667 MEMB     6        CHL1     C20      CTL1    -0.900000E-01   12.0110           0
       668 MEMB     6        CHL1     H20      HAL1     0.900000E-01   1.00800           0
       669 MEMB     6        CHL1     C21      CTL3    -0.270000       12.0110           0
       670 MEMB     6        CHL1     H21A     HAL3     0.900000E-01   1.00800           0
       671 MEMB     6        CHL1     H21B     HAL3     0.900000E-01   1.00800           0
       672 MEMB     6        CHL1     H21C     HAL3     0.900000E-01   1.00800           0
       673 MEMB     6        CHL1     C22      CTL2    -0.180000       12.0110           0
       674 MEMB     6        CHL1     H22A     HAL2     0.900000E-01   1.00800           0
       675 MEMB     6        CHL1     H22B     HAL2     0.900000E-01   1.00800           0
       676 MEMB     6        CHL1     C23      CTL2    -0.180000       12.0110           0
       677 MEMB     6        CHL1     H23A     HAL2     0.900000E-01   1.00800           0
       678 MEMB     6        CHL1     H23B     HAL2     0.900000E-01   1.00800           0
       679 MEMB     6        CHL1     C24      CTL2    -0.180000       12.0110           0
       680 MEMB     6        CHL1     H24A     HAL2     0.900000E-01   1.00800           0
       681 MEMB     6        CHL1     H24B     HAL2     0.900000E-01   1.00800           0
       682 MEMB     6        CHL1     C25      CTL1    -0.900000E-01   12.0110           0
       683 MEMB     6        CHL1     H25      HAL1     0.900000E-01   1.00800           0
       684 MEMB     6        CHL1     C26      CTL3    -0.270000       12.0110           0
       685 MEMB     6        CHL1     H26A     HAL3     0.900000E-01   1.00800           0
       686 MEMB     6        CHL1     H26B     HAL3     0.900000E-01   1.00800           0
       687 MEMB     6        CHL1     H26C     HAL3     0.900000E-01   1.00800           0
       688 MEMB     6        CHL1     C27      CTL3    -0.270000       12.0110           0
       689 MEMB     6        CHL1     H27A     HAL3     0.900000E-01   1.00800           0
       690 MEMB     6        CHL1     H27B     HAL3     0.900000E-01   1.00800           0
       691 MEMB     6        CHL1     H27C     HAL3     0.900000E-01   1.00800           0
       692 MEMB     7        CHL1     C3       CRL1     0.140000       12.0110           0
       693 MEMB     7        CHL1     H3       HGA1     0.900000E-01   1.00800           0
       694 MEMB     7        CHL1     O3       OHL     -0.660000       15.9994           0
       695 MEMB     7        CHL1     H3'      HOL      0.430000       1.00800           0
       696 MEMB     7        CHL1     C4       CRL2    -0.180000       12.0110           0
       697 MEMB     7        CHL1     H4A      HGA2     0.900000E-01   1.00800           0
       698 MEMB     7        CHL1     H4B      HGA2     0.900000E-01   1.00800           0
       699 MEMB     7        CHL1     C5       CEL1     0.000000       12.0110           0
       700 MEMB     7        CHL1     C6       CEL1    -0.150000       12.0110           0
       701 MEMB     7        CHL1     H6       HEL1     0.150000       1.00800           0
       702 MEMB     7        CHL1     C7       CRL2    -0.180000       12.0110           0
       703 MEMB     7        CHL1     H7A      HGA2     0.900000E-01   1.00800           0
       704 MEMB     7        CHL1     H7B      HGA2     0.900000E-01   1.00800           0
       705 MEMB     7        CHL1     C8       CRL1    -0.900000E-01   12.0110           0
       706 MEMB     7        CHL1     H8       HGA1     0.900000E-01   1.00800           0
       707 MEMB     7        CHL1     C14      CRL1    -0.900000E-01   12.0110           0
       708 MEMB     7        CHL1     H14      HGA1     0.900000E-01   1.00800           0
       709 MEMB     7        CHL1     C15      CRL2    -0.180000       12.0110           0
       710 MEMB     7        CHL1     H15A     HGA2     0.900000E-01   1.00800           0
       711 MEMB     7        CHL1     H15B     HGA2     0.900000E-01   1.00800           0
       712 MEMB     7        CHL1     C16      CRL2    -0.180000       12.0110           0
       713 MEMB     7        CHL1     H16A     HGA2     0.900000E-01   1.00800           0
       714 MEMB     7        CHL1     H16B     HGA2     0.900000E-01   1.00800           0
       715 MEMB     7        CHL1     C17      CRL1    -0.900000E-01   12.0110           0
       716 MEMB     7        CHL1     H17      HGA1     0.900000E-01   1.00800           0
       717 MEMB     7        CHL1     C13      CRL1     0.000000       12.0110           0
       718 MEMB     7        CHL1     C18      CTL3    -0.270000       12.0110           0
       719 MEMB     7        CHL1     H18A     HAL3     0.900000E-01   1.00800           0
       720 MEMB     7        CHL1     H18B     HAL3     0.900000E-01   1.00800           0
       721 MEMB     7        CHL1     H18C     HAL3     0.900000E-01   1.00800           0
       722 MEMB     7        CHL1     C12      CRL2    -0.180000       12.0110           0
       723 MEMB     7        CHL1     H12A     HGA2     0.900000E-01   1.00800           0
       724 MEMB     7        CHL1     H12B     HGA2     0.900000E-01   1.00800           0
       725 MEMB     7        CHL1     C11      CRL2    -0.180000       12.0110           0
       726 MEMB     7        CHL1     H11A     HGA2     0.900000E-01   1.00800           0
       727 MEMB     7        CHL1     H11B     HGA2     0.900000E-01   1.00800           0
       728 MEMB     7        CHL1     C9       CRL1    -0.900000E-01   12.0110           0
       729 MEMB     7        CHL1     H9       HGA1     0.900000E-01   1.00800           0
       730 MEMB     7        CHL1     C10      CRL1     0.000000       12.0110           0
       731 MEMB     7        CHL1     C19      CTL3    -0.270000       12.0110           0
       732 MEMB     7        CHL1     H19A     HAL3     0.900000E-01   1.00800           0
       733 MEMB     7        CHL1     H19B     HAL3     0.900000E-01   1.00800           0
       734 MEMB     7        CHL1     H19C     HAL3     0.900000E-01   1.00800           0
       735 MEMB     7        CHL1     C1       CRL2    -0.180000       12.0110           0
       736 MEMB     7        CHL1     H1A      HGA2     0.900000E-01   1.00800           0
       737 MEMB     7        CHL1     H1B      HGA2     0.900000E-01   1.00800           0
       738 MEMB     7        CHL1     C2       CRL2    -0.180000       12.0110           0
       739 MEMB     7        CHL1     H2A      HGA2     0.900000E-01   1.00800           0
       740 MEMB     7        CHL1     H2B      HGA2     0.900000E-01   1.00800           0
       741 MEMB     7        CHL1     C20      CTL1    -0.900000E-01   12.0110           0
       742 MEMB     7        CHL1     H20      HAL1     0.900000E-01   1.00800           0
       743 MEMB     7        CHL1     C21      CTL3    -0.270000       12.0110           0
       744 MEMB     7        CHL1     H21A     HAL3     0.900000E-01   1.00800           0
       745 MEMB     7        CHL1     H21B     HAL3     0.900000E-01   1.00800           0
       746 MEMB     7        CHL1     H21C     HAL3     0.900000E-01   1.00800           0
       747 MEMB     7        CHL1     C22      CTL2    -0.180000       12.0110           0
       748 MEMB     7        CHL1     H22A     HAL2     0.900000E-01   1.00800           0
       749 MEMB     7        CHL1     H22B     HAL2     0.900000E-01   1.00800           0
       750 MEMB     7        CHL1     C23      CTL2    -0.180000       12.0110           0
       751 MEMB     7        CHL1     H23A     HAL2     0.900000E-01   1.00800           0
       752 MEMB     7        CHL1     H23B     HAL2     0.900000E-01   1.00800           0
       753 MEMB     7        CHL1     C24      CTL2    -0.180000       12.0110           0
       754 MEMB     7        CHL1     H24A     HAL2     0.900000E-01   1.00800           0
       755 MEMB     7        CHL1     H24B     HAL2     0.900000E-01   1.00800           0
       756 MEMB     7        CHL1     C25      CTL1    -0.900000E-01   12.0110           0
       757 MEMB     7        CHL1     H25      HAL1     0.900000E-01   1.00800           0
       758 MEMB     7        CHL1     C26      CTL3    -0.270000       12.0110           0
       759 MEMB     7        CHL1     H26A     HAL3     0.900000E-01   1.00800           0
       760 MEMB     7        CHL1     H26B     HAL3     0.900000E-01   1.00800           0
       761 MEMB     7        CHL1     H26C     HAL3     0.900000E-01   1.00800           0
       762 MEMB     7        CHL1     C27      CTL3    -0.270000       12.0110           0
       763 MEMB     7        CHL1     H27A     HAL3     0.900000E-01   1.00800           0
       764 MEMB     7        CHL1     H27B     HAL3     0.900000E-01   1.00800           0
       765 MEMB     7        CHL1     H27C     HAL3     0.900000E-01   1.00800           0
       766 MEMB     8        CHL1     C3       CRL1     0.140000       12.0110           0
       767 MEMB     8        CHL1     H3       HGA1     0.900000E-01   1.00800           0
       768 MEMB     8        CHL1     O3       OHL     -0.660000       15.9994           0
       769 MEMB     8        CHL1     H3'      HOL      0.430000       1.00800           0
       770 MEMB     8        CHL1     C4       CRL2    -0.180000       12.0110           0
       771 MEMB     8        CHL1     H4A      HGA2     0.900000E-01   1.00800           0
       772 MEMB     8        CHL1     H4B      HGA2     0.900000E-01   1.00800           0
       773 MEMB     8        CHL1     C5       CEL1     0.000000       12.0110           0
       774 MEMB     8        CHL1     C6       CEL1    -0.150000       12.0110           0
       775 MEMB     8        CHL1     H6       HEL1     0.150000       1.00800           0
       776 MEMB     8        CHL1     C7       CRL2    -0.180000       12.0110           0
       777 MEMB     8        CHL1     H7A      HGA2     0.900000E-01   1.00800           0
       778 MEMB     8        CHL1     H7B      HGA2     0.900000E-01   1.00800           0
       779 MEMB     8        CHL1     C8       CRL1    -0.900000E-01   12.0110           0
       780 MEMB     8        CHL1     H8       HGA1     0.900000E-01   1.00800           0
       781 MEMB     8        CHL1     C14      CRL1    -0.900000E-01   12.0110           0
       782 MEMB     8        CHL1     H14      HGA1     0.900000E-01   1.00800           0
       783 MEMB     8        CHL1     C15      CRL2    -0.180000       12.0110           0
       784 MEMB     8        CHL1     H15A     HGA2     0.900000E-01   1.00800           0
       785 MEMB     8        CHL1     H15B     HGA2     0.900000E-01   1.00800           0
       786 MEMB     8        CHL1     C16      CRL2    -0.180000       12.0110           0
       787 MEMB     8        CHL1     H16A     HGA2     0.900000E-01   1.00800           0
       788 MEMB     8        CHL1     H16B     HGA2     0.900000E-01   1.00800           0
       789 MEMB     8        CHL1     C17      CRL1    -0.900000E-01   12.0110           0
       790 MEMB     8        CHL1     H17      HGA1     0.900000E-01   1.00800           0
       791 MEMB     8        CHL1     C13      CRL1     0.000000       12.0110           0
       792 MEMB     8        CHL1     C18      CTL3    -0.270000       12.0110           0
       793 MEMB     8        CHL1     H18A     HAL3     0.900000E-01   1.00800           0
       794 MEMB     8        CHL1     H18B     HAL3     0.900000E-01   1.00800           0
       795 MEMB     8        CHL1     H18C     HAL3     0.900000E-01   1.00800           0
       796 MEMB     8        CHL1     C12      CRL2    -0.180000       12.0110           0
       797 MEMB     8        CHL1     H12A     HGA2     0.900000E-01   1.00800           0
       798 MEMB     8        CHL1     H12B     HGA2     0.900000E-01   1.00800           0
       799 MEMB     8        CHL1     C11      CRL2    -0.180000       12.0110           0
       800 MEMB     8        CHL1     H11A     HGA2     0.900000E-01   1.00800           0
       801 MEMB     8        CHL1     H11B     HGA2     0.900000E-01   1.00800           0
       802 MEMB     8        CHL1     C9       CRL1    -0.900000E-01   12.0110           0
       803 MEMB     8        CHL1     H9       HGA1     0.900000E-01   1.00800           0
       804 MEMB     8        CHL1     C10      CRL1     0.000000       12.0110           0
       805 MEMB     8        CHL1     C19      CTL3    -0.270000       12.0110           0
       806 MEMB     8        CHL1     H19A     HAL3     0.900000E-01   1.00800           0
       807 MEMB     8        CHL1     H19B     HAL3     0.900000E-01   1.00800           0
       808 MEMB     8        CHL1     H19C     HAL3     0.900000E-01   1.00800           0
       809 MEMB     8        CHL1     C1       CRL2    -0.180000       12.0110           0
       810 MEMB     8        CHL1     H1A      HGA2     0.900000E-01   1.00800           0
       811 MEMB     8        CHL1     H1B      HGA2     0.900000E-01   1.00800           0
       812 MEMB     8        CHL1     C2       CRL2    -0.180000       12.0110           0
       813 MEMB     8        CHL1     H2A      HGA2     0.900000E-01   1.00800           0
       814 MEMB     8        CHL1     H2B      HGA2     0.900000E-01   1.00800           0
       815 MEMB     8        CHL1     C20      CTL1    -0.900000E-01   12.0110           0
       816 MEMB     8        CHL1     H20      HAL1     0.900000E-01   1.00800           0
       817 MEMB     8        CHL1     C21      CTL3    -0.270000       12.0110           0
       818 MEMB     8        CHL1     H21A     HAL3     0.900000E-01   1.00800           0
       819 MEMB     8        CHL1     H21B     HAL3     0.900000E-01   1.00800           0
       820 MEMB     8        CHL1     H21C     HAL3     0.900000E-01   1.00800           0
       821 MEMB     8        CHL1     C22      CTL2    -0.180000       12.0110           0
       822 MEMB     8        CHL1     H22A     HAL2     0.900000E-01   1.00800           0
       823 MEMB     8        CHL1     H22B     HAL2     0.900000E-01   1.00800           0
       824 MEMB     8        CHL1     C23      CTL2    -0.180000       12.0110           0
       825 MEMB     8        CHL1     H23A     HAL2     0.900000E-01   1.00800           0
       826 MEMB     8        CHL1     H23B     HAL2     0.900000E-01   1.00800           0
       827 MEMB     8        CHL1     C24      CTL2    -0.180000       12.0110           0
       828 MEMB     8        CHL1     H24A     HAL2     0.900000E-01   1.00800           0
       829 MEMB     8        CHL1     H24B     HAL2     0.900000E-01   1.00800           0
       830 MEMB     8        CHL1     C25      CTL1    -0.900000E-01   12.0110           0
       831 MEMB     8        CHL1     H25      HAL1     0.900000E-01   1.00800           0
       832 MEMB     8        CHL1     C26      CTL3    -0.270000       12.0110           0
       833 MEMB     8        CHL1     H26A     HAL3     0.900000E-01   1.00800           0
       834 MEMB     8        CHL1     H26B     HAL3     0.900000E-01   1.00800           0
       835 MEMB     8        CHL1     H26C     HAL3     0.900000E-01   1.00800           0
       836 MEMB     8        CHL1     C27      CTL3    -0.270000       12.0110           0
       837 MEMB     8        CHL1     H27A     HAL3     0.900000E-01   1.00800           0
       838 MEMB     8        CHL1     H27B     HAL3     0.900000E-01   1.00800           0
       839 MEMB     8        CHL1     H27C     HAL3     0.900000E-01   1.00800           0
       840 MEMB     9        CHL1     C3       CRL1     0.140000       12.0110           0
       841 MEMB     9        CHL1     H3       HGA1     0.900000E-01   1.00800           0
       842 MEMB     9        CHL1     O3       OHL     -0.660000       15.9994           0
       843 MEMB     9        CHL1     H3'      HOL      0.430000       1.00800           0
       844 MEMB     9        CHL1     C4       CRL2    -0.180000       12.0110           0
       845 MEMB     9        CHL1     H4A      HGA2     0.900000E-01   1.00800           0
       846 MEMB     9        CHL1     H4B      HGA2     0.900000E-01   1.00800           0
       847 MEMB     9        CHL1     C5       CEL1     0.000000       12.0110           0
       848 MEMB     9        CHL1     C6       CEL1    -0.150000       12.0110           0
       849 MEMB     9        CHL1     H6       HEL1     0.150000       1.00800           0
       850 MEMB     9        CHL1     C7       CRL2    -0.180000       12.0110           0
       851 MEMB     9        CHL1     H7A      HGA2     0.900000E-01   1.00800           0
       852 MEMB     9        CHL1     H7B      HGA2     0.900000E-01   1.00800           0
       853 MEMB     9        CHL1     C8       CRL1    -0.900000E-01   12.0110           0
       854 MEMB     9        CHL1     H8       HGA1     0.900000E-01   1.00800           0
       855 MEMB     9        CHL1     C14      CRL1    -0.900000E-01   12.0110           0
       856 MEMB     9        CHL1     H14      HGA1     0.900000E-01   1.00800           0
       857 MEMB     9        CHL1     C15      CRL2    -0.180000       12.0110           0
       858 MEMB     9        CHL1     H15A     HGA2     0.900000E-01   1.00800           0
       859 MEMB     9        CHL1     H15B     HGA2     0.900000E-01   1.00800           0
       860 MEMB     9        CHL1     C16      CRL2    -0.180000       12.0110           0
       861 MEMB     9        CHL1     H16A     HGA2     0.900000E-01   1.00800           0
       862 MEMB     9        CHL1     H16B     HGA2     0.900000E-01   1.00800           0
       863 MEMB     9        CHL1     C17      CRL1    -0.900000E-01   12.0110           0
       864 MEMB     9        CHL1     H17      HGA1     0.900000E-01   1.00800           0
       865 MEMB     9        CHL1     C13      CRL1     0.000000       12.0110           0
       866 MEMB     9        CHL1     C18      CTL3    -0.270000       12.0110           0
       867 MEMB     9        CHL1     H18A     HAL3     0.900000E-01   1.00800           0
       868 MEMB     9        CHL1     H18B     HAL3     0.900000E-01   1.00800           0
       869 MEMB     9        CHL1     H18C     HAL3     0.900000E-01   1.00800           0
       870 MEMB     9        CHL1     C12      CRL2    -0.180000       12.0110           0
       871 MEMB     9        CHL1     H12A     HGA2     0.900000E-01   1.00800           0
       872 MEMB     9        CHL1     H12B     HGA2     0.900000E-01   1.00800           0
       873 MEMB     9        CHL1     C11      CRL2    -0.180000       12.0110           0
       874 MEMB     9        CHL1     H11A     HGA2     0.900000E-01   1.00800           0
       875 MEMB     9        CHL1     H11B     HGA2     0.900000E-01   1.00800           0
       876 MEMB     9        CHL1     C9       CRL1    -0.900000E-01   12.0110           0
       877 MEMB     9        CHL1     H9       HGA1     0.900000E-01   1.00800           0
       878 MEMB     9        CHL1     C10      CRL1     0.000000       12.0110           0
       879 MEMB     9        CHL1     C19      CTL3    -0.270000       12.0110           0
       880 MEMB     9        CHL1     H19A     HAL3     0.900000E-01   1.00800           0
       881 MEMB     9        CHL1     H19B     HAL3     0.900000E-01   1.00800           0
       882 MEMB     9        CHL1     H19C     HAL3     0.900000E-01   1.00800           0
       883 MEMB     9        CHL1     C1       CRL2    -0.180000       12.0110           0
       884 MEMB     9        CHL1     H1A      HGA2     0.900000E-01   1.00800           0
       885 MEMB     9        CHL1     H1B      HGA2     0.900000E-01   1.00800           0
       886 MEMB     9        CHL1     C2       CRL2    -0.180000       12.0110           0
       887 MEMB     9        CHL1     H2A      HGA2     0.900000E-01   1.00800           0
       888 MEMB     9        CHL1     H2B      HGA2     0.900000E-01   1.00800           0
       889 MEMB     9        CHL1     C20      CTL1    -0.900000E-01   12.0110           0
       890 MEMB     9        CHL1     H20      HAL1     0.900000E-01   1.00800           0
       891 MEMB     9        CHL1     C21      CTL3    -0.270000       12.0110           0
       892 MEMB     9        CHL1     H21A     HAL3     0.900000E-01   1.00800           0
       893 MEMB     9        CHL1     H21B     HAL3     0.900000E-01   1.00800           0
       894 MEMB     9        CHL1     H21C     HAL3     0.900000E-01   1.00800           0
       895 MEMB     9        CHL1     C22      CTL2    -0.180000       12.0110           0
       896 MEMB     9        CHL1     H22A     HAL2     0.900000E-01   1.00800           0
       897 MEMB     9        CHL1     H22B     HAL2     0.900000E-01   1.00800           0
       898 MEMB     9        CHL1     C23      CTL2    -0.180000       12.0110           0
       899 MEMB     9        CHL1     H23A     HAL2     0.900000E-01   1.00800           0
       900 MEMB     9        CHL1     H23B     HAL2     0.900000E-01   1.00800           0
       901 MEMB     9        CHL1     C24      CTL2    -0.180000       12.0110           0
       902 MEMB     9        CHL1     H24A     HAL2     0.900000E-01   1.00800           0
       903 MEMB     9        CHL1     H24B     HAL2     0.900000E-01   1.00800           0
       904 MEMB     9        CHL1     C25      CTL1    -0.900000E-01   12.0110           0
       905 MEMB     9        CHL1     H25      HAL1     0.900000E-01   1.00800           0
       906 MEMB     9        CHL1     C26      CTL3    -0.270000       12.0110           0
       907 MEMB     9        CHL1     H26A     HAL3     0.900000E-01   1.00800           0
       908 MEMB     9        CHL1     H26B     HAL3     0.900000E-01   1.00800           0
       909 MEMB     9        CHL1     H26C     HAL3     0.900000E-01   1.00800           0
       910 MEMB     9        CHL1     C27      CTL3    -0.270000       12.0110           0
       911 MEMB     9        CHL1     H27A     HAL3     0.900000E-01   1.00800           0
       912 MEMB     9        CHL1     H27B     HAL3     0.900000E-01   1.00800           0
       913 MEMB     9        CHL1     H27C     HAL3     0.900000E-01   1.00800           0
       914 MEMB     10       CHL1     C3       CRL1     0.140000       12.0110           0
       915 MEMB     10       CHL1     H3       HGA1     0.900000E-01   1.00800           0
       916 MEMB     10       CHL1     O3       OHL     -0.660000       15.9994           0
       917 MEMB     10       CHL1     H3'      HOL      0.430000       1.00800           0
       918 MEMB     10       CHL1     C4       CRL2    -0.180000       12.0110           0
       919 MEMB     10       CHL1     H4A      HGA2     0.900000E-01   1.00800           0
       920 MEMB     10       CHL1     H4B      HGA2     0.900000E-01   1.00800           0
       921 MEMB     10       CHL1     C5       CEL1     0.000000       12.0110           0
       922 MEMB     10       CHL1     C6       CEL1    -0.150000       12.0110           0
       923 MEMB     10       CHL1     H6       HEL1     0.150000       1.00800           0
       924 MEMB     10       CHL1     C7       CRL2    -0.180000       12.0110           0
       925 MEMB     10       CHL1     H7A      HGA2     0.900000E-01   1.00800           0
       926 MEMB     10       CHL1     H7B      HGA2     0.900000E-01   1.00800           0
       927 MEMB     10       CHL1     C8       CRL1    -0.900000E-01   12.0110           0
       928 MEMB     10       CHL1     H8       HGA1     0.900000E-01   1.00800           0
       929 MEMB     10       CHL1     C14      CRL1    -0.900000E-01   12.0110           0
       930 MEMB     10       CHL1     H14      HGA1     0.900000E-01   1.00800           0
       931 MEMB     10       CHL1     C15      CRL2    -0.180000       12.0110           0
       932 MEMB     10       CHL1     H15A     HGA2     0.900000E-01   1.00800           0
       933 MEMB     10       CHL1     H15B     HGA2     0.900000E-01   1.00800           0
       934 MEMB     10       CHL1     C16      CRL2    -0.180000       12.0110           0
       935 MEMB     10       CHL1     H16A     HGA2     0.900000E-01   1.00800           0
       936 MEMB     10       CHL1     H16B     HGA2     0.900000E-01   1.00800           0
       937 MEMB     10       CHL1     C17      CRL1    -0.900000E-01   12.0110           0
       938 MEMB     10       CHL1     H17      HGA1     0.900000E-01   1.00800           0
       939 MEMB     10       CHL1     C13      CRL1     0.000000       12.0110           0
       940 MEMB     10       CHL1     C18      CTL3    -0.270000       12.0110           0
       941 MEMB     10       CHL1     H18A     HAL3     0.900000E-01   1.00800           0
       942 MEMB     10       CHL1     H18B     HAL3     0.900000E-01   1.00800           0
       943 MEMB     10       CHL1     H18C     HAL3     0.900000E-01   1.00800           0
       944 MEMB     10       CHL1     C12      CRL2    -0.180000       12.0110           0
       945 MEMB     10       CHL1     H12A     HGA2     0.900000E-01   1.00800           0
       946 MEMB     10       CHL1     H12B     HGA2     0.900000E-01   1.00800           0
       947 MEMB     10       CHL1     C11      CRL2    -0.180000       12.0110           0
       948 MEMB     10       CHL1     H11A     HGA2     0.900000E-01   1.00800           0
       949 MEMB     10       CHL1     H11B     HGA2     0.900000E-01   1.00800           0
       950 MEMB     10       CHL1     C9       CRL1    -0.900000E-01   12.0110           0
       951 MEMB     10       CHL1     H9       HGA1     0.900000E-01   1.00800           0
       952 MEMB     10       CHL1     C10      CRL1     0.000000       12.0110           0
       953 MEMB     10       CHL1     C19      CTL3    -0.270000       12.0110           0
       954 MEMB     10       CHL1     H19A     HAL3     0.900000E-01   1.00800           0
       955 MEMB     10       CHL1     H19B     HAL3     0.900000E-01   1.00800           0
       956 MEMB     10       CHL1     H19C     HAL3     0.900000E-01   1.00800           0
       957 MEMB     10       CHL1     C1       CRL2    -0.180000       12.0110           0
       958 MEMB     10       CHL1     H1A      HGA2     0.900000E-01   1.00800           0
       959 MEMB     10       CHL1     H1B      HGA2     0.900000E-01   1.00800           0
       960 MEMB     10       CHL1     C2       CRL2    -0.180000       12.0110           0
       961 MEMB     10       CHL1     H2A      HGA2     0.900000E-01   1.00800           0
       962 MEMB     10       CHL1     H2B      HGA2     0.900000E-01   1.00800           0
       963 MEMB     10       CHL1     C20      CTL1    -0.900000E-01   12.0110           0
       964 MEMB     10       CHL1     H20      HAL1     0.900000E-01   1.00800           0
       965 MEMB     10       CHL1     C21      CTL3    -0.270000       12.0110           0
       966 MEMB     10       CHL1     H21A     HAL3     0.900000E-01   1.00800           0
       967 MEMB     10       CHL1     H21B     HAL3     0.900000E-01   1.00800           0
       968 MEMB     10       CHL1     H21C     HAL3     0.900000E-01   1.00800           0
       969 MEMB     10       CHL1     C22      CTL2    -0.180000       12.0110           0
       970 MEMB     10       CHL1     H22A     HAL2     0.900000E-01   1.00800           0
       971 MEMB     10       CHL1     H22B     HAL2     0.900000E-01   1.00800           0
       972 MEMB     10       CHL1     C23      CTL2    -0.180000       12.0110           0
       973 MEMB     10       CHL1     H23A     HAL2     0.900000E-01   1.00800           0
       974 MEMB     10       CHL1     H23B     HAL2     0.900000E-01   1.00800           0
       975 MEMB     10       CHL1     C24      CTL2    -0.180000       12.0110           0
       976 MEMB     10       CHL1     H24A     HAL2     0.900000E-01   1.00800           0
       977 MEMB     10       CHL1     H24B     HAL2     0.900000E-01   1.00800           0
       978 MEMB     10       CHL1     C25      CTL1    -0.900000E-01   12.0110           0
       979 MEMB     10       CHL1     H25      HAL1     0.900000E-01   1.00800           0
       980 MEMB     10       CHL1     C26      CTL3    -0.270000       12.0110           0
       981 MEMB     10       CHL1     H26A     HAL3     0.900000E-01   1.00800           0
       982 MEMB     10       CHL1     H26B     HAL3     0.900000E-01   1.00800           0
       983 MEMB     10       CHL1     H26C     HAL3     0.900000E-01   1.00800           0
       984 MEMB     10       CHL1     C27      CTL3    -0.270000       12.0110           0
       985 MEMB     10       CHL1     H27A     HAL3     0.900000E-01   1.00800           0
       986 MEMB     10       CHL1     H27B     HAL3     0.900000E-01   1.00800           0
       987 MEMB     10       CHL1     H27C     HAL3     0.900000E-01   1.00800           0
       988 MEMB     11       CHL1     C3       CRL1     0.140000       12.0110           0
       989 MEMB     11       CHL1     H3       HGA1     0.900000E-01   1.00800           0
       990 MEMB     11       CHL1     O3       OHL     -0.660000       15.9994           0
       991 MEMB     11       CHL1     H3'      HOL      0.430000       1.00800           0
       992 MEMB     11       CHL1     C4       CRL2    -0.180000       12.0110           0
       993 MEMB     11       CHL1     H4A      HGA2     0.900000E-01   1.00800           0
       994 MEMB     11       CHL1     H4B      HGA2     0.900000E-01   1.00800           0
       995 MEMB     11       CHL1     C5       CEL1     0.000000       12.0110           0
       996 MEMB     11       CHL1     C6       CEL1    -0.150000       12.0110           0
       997 MEMB     11       CHL1     H6       HEL1     0.150000       1.00800           0
       998 MEMB     11       CHL1     C7       CRL2    -0.180000       12.0110           0
       999 MEMB     11       CHL1     H7A      HGA2     0.900000E-01   1.00800           0
      1000 MEMB     11       CHL1     H7B      HGA2     0.900000E-01   1.00800           0
      1001 MEMB     11       CHL1     C8       CRL1    -0.900000E-01   12.0110           0
      1002 MEMB     11       CHL1     H8       HGA1     0.900000E-01   1.00800           0
      1003 MEMB     11       CHL1     C14      CRL1    -0.900000E-01   12.0110           0
      1004 MEMB     11       CHL1     H14      HGA1     0.900000E-01   1.00800           0
      1005 MEMB     11       CHL1     C15      CRL2    -0.180000       12.0110           0
      1006 MEMB     11       CHL1     H15A     HGA2     0.900000E-01   1.00800           0
      1007 MEMB     11       CHL1     H15B     HGA2     0.900000E-01   1.00800           0
      1008 MEMB     11       CHL1     C16      CRL2    -0.180000       12.0110           0
      1009 MEMB     11       CHL1     H16A     HGA2     0.900000E-01   1.00800           0
      1010 MEMB     11       CHL1     H16B     HGA2     0.900000E-01   1.00800           0
      1011 MEMB     11       CHL1     C17      CRL1    -0.900000E-01   12.0110           0
      1012 MEMB     11       CHL1     H17      HGA1     0.900000E-01   1.00800           0
      1013 MEMB     11       CHL1     C13      CRL1     0.000000       12.0110           0
      1014 MEMB     11       CHL1     C18      CTL3    -0.270000       12.0110           0
      1015 MEMB     11       CHL1     H18A     HAL3     0.900000E-01   1.00800           0
      1016 MEMB     11       CHL1     H18B     HAL3     0.900000E-01   1.00800           0
      1017 MEMB     11       CHL1     H18C     HAL3     0.900000E-01   1.00800           0
      1018 MEMB     11       CHL1     C12      CRL2    -0.180000       12.0110           0
      1019 MEMB     11       CHL1     H12A     HGA2     0.900000E-01   1.00800           0
      1020 MEMB     11       CHL1     H12B     HGA2     0.900000E-01   1.00800           0
      1021 MEMB     11       CHL1     C11      CRL2    -0.180000       12.0110           0
      1022 MEMB     11       CHL1     H11A     HGA2     0.900000E-01   1.00800           0
      1023 MEMB     11       CHL1     H11B     HGA2     0.900000E-01   1.00800           0
      1024 MEMB     11       CHL1     C9       CRL1    -0.900000E-01   12.0110           0
      1025 MEMB     11       CHL1     H9       HGA1     0.900000E-01   1.00800           0
      1026 MEMB     11       CHL1     C10      CRL1     0.000000       12.0110           0
      1027 MEMB     11       CHL1     C19      CTL3    -0.270000       12.0110           0
      1028 MEMB     11       CHL1     H19A     HAL3     0.900000E-01   1.00800           0
      1029 MEMB     11       CHL1     H19B     HAL3     0.900000E-01   1.00800           0
      1030 MEMB     11       CHL1     H19C     HAL3     0.900000E-01   1.00800           0
      1031 MEMB     11       CHL1     C1       CRL2    -0.180000       12.0110           0
      1032 MEMB     11       CHL1     H1A      HGA2     0.900000E-01   1.00800           0
      1033 MEMB     11       CHL1     H1B      HGA2     0.900000E-01   1.00800           0
      1034 MEMB     11       CHL1     C2       CRL2    -0.180000       12.0110           0
      1035 MEMB     11       CHL1     H2A      HGA2     0.900000E-01   1.00800           0
      1036 MEMB     11       CHL1     H2B      HGA2     0.900000E-01   1.00800           0
      1037 MEMB     11       CHL1     C20      CTL1    -0.900000E-01   12.0110           0
      1038 MEMB     11       CHL1     H20      HAL1     0.900000E-01   1.00800           0
      1039 MEMB     11       CHL1     C21      CTL3    -0.270000       12.0110           0
      1040 MEMB     11       CHL1     H21A     HAL3     0.900000E-01   1.00800           0
      1041 MEMB     11       CHL1     H21B     HAL3     0.900000E-01   1.00800           0
      1042 MEMB     11       CHL1     H21C     HAL3     0.900000E-01   1.00800           0
      1043 MEMB     11       CHL1     C22      CTL2    -0.180000       12.0110           0
      1044 MEMB     11       CHL1     H22A     HAL2     0.900000E-01   1.00800           0
      1045 MEMB     11       CHL1     H22B     HAL2     0.900000E-01   1.00800           0
      1046 MEMB     11       CHL1     C23      CTL2    -0.180000       12.0110           0
      1047 MEMB     11       CHL1     H23A     HAL2     0.900000E-01   1.00800           0
      1048 MEMB     11       CHL1     H23B     HAL2     0.900000E-01   1.00800           0
      1049 MEMB     11       CHL1     C24      CTL2    -0.180000       12.0110           0
      1050 MEMB     11       CHL1     H24A     HAL2     0.900000E-01   1.00800           0
      1051 MEMB     11       CHL1     H24B     HAL2     0.900000E-01   1.00800           0
      1052 MEMB     11       CHL1     C25      CTL1    -0.900000E-01   12.0110           0
      1053 MEMB     11       CHL1     H25      HAL1     0.900000E-01   1.00800           0
      1054 MEMB     11       CHL1     C26      CTL3    -0.270000       12.0110           0
      1055 MEMB     11       CHL1     H26A     HAL3     0.900000E-01   1.00800           0
      1056 MEMB     11       CHL1     H26B     HAL3     0.900000E-01   1.00800           0
      1057 MEMB     11       CHL1     H26C     HAL3     0.900000E-01   1.00800           0
      1058 MEMB     11       CHL1     C27      CTL3    -0.270000       12.0110           0
      1059 MEMB     11       CHL1     H27A     HAL3     0.900000E-01   1.00800           0
      1060 MEMB     11       CHL1     H27B     HAL3     0.900000E-01   1.00800           0
      1061 MEMB     11       CHL1     H27C     HAL3     0.900000E-01   1.00800           0
      1062 MEMB     12       CHL1     C3       CRL1     0.140000       12.0110           0
      1063 MEMB     12       CHL1     H3       HGA1     0.900000E-01   1.00800           0
      1064 MEMB     12       CHL1     O3       OHL     -0.660000       15.9994           0
      1065 MEMB     12       CHL1     H3'      HOL      0.430000       1.00800           0
      1066 MEMB     12       CHL1     C4       CRL2    -0.180000       12.0110           0
      1067 MEMB     12       CHL1     H4A      HGA2     0.900000E-01   1.00800           0
      1068 MEMB     12       CHL1     H4B      HGA2     0.900000E-01   1.00800           0
      1069 MEMB     12       CHL1     C5       CEL1     0.000000       12.0110           0
      1070 MEMB     12       CHL1     C6       CEL1    -0.150000       12.0110           0
      1071 MEMB     12       CHL1     H6       HEL1     0.150000       1.00800           0
      1072 MEMB     12       CHL1     C7       CRL2    -0.180000       12.0110           0
      1073 MEMB     12       CHL1     H7A      HGA2     0.900000E-01   1.00800           0
      1074 MEMB     12       CHL1     H7B      HGA2     0.900000E-01   1.00800           0
      1075 MEMB     12       CHL1     C8       CRL1    -0.900000E-01   12.0110           0
      1076 MEMB     12       CHL1     H8       HGA1     0.900000E-01   1.00800           0
      1077 MEMB     12       CHL1     C14      CRL1    -0.900000E-01   12.0110           0
      1078 MEMB     12       CHL1     H14      HGA1     0.900000E-01   1.00800           0
      1079 MEMB     12       CHL1     C15      CRL2    -0.180000       12.0110           0
      1080 MEMB     12       CHL1     H15A     HGA2     0.900000E-01   1.00800           0
      1081 MEMB     12       CHL1     H15B     HGA2     0.900000E-01   1.00800           0
      1082 MEMB     12       CHL1     C16      CRL2    -0.180000       12.0110           0
      1083 MEMB     12       CHL1     H16A     HGA2     0.900000E-01   1.00800           0
      1084 MEMB     12       CHL1     H16B     HGA2     0.900000E-01   1.00800           0
      1085 MEMB     12       CHL1     C17      CRL1    -0.900000E-01   12.0110           0
      1086 MEMB     12       CHL1     H17      HGA1     0.900000E-01   1.00800           0
      1087 MEMB     12       CHL1     C13      CRL1     0.000000       12.0110           0
      1088 MEMB     12       CHL1     C18      CTL3    -0.270000       12.0110           0
      1089 MEMB     12       CHL1     H18A     HAL3     0.900000E-01   1.00800           0
      1090 MEMB     12       CHL1     H18B     HAL3     0.900000E-01   1.00800           0
      1091 MEMB     12       CHL1     H18C     HAL3     0.900000E-01   1.00800           0
      1092 MEMB     12       CHL1     C12      CRL2    -0.180000       12.0110           0
      1093 MEMB     12       CHL1     H12A     HGA2     0.900000E-01   1.00800           0
      1094 MEMB     12       CHL1     H12B     HGA2     0.900000E-01   1.00800           0
      1095 MEMB     12       CHL1     C11      CRL2    -0.180000       12.0110           0
      1096 MEMB     12       CHL1     H11A     HGA2     0.900000E-01   1.00800           0
      1097 MEMB     12       CHL1     H11B     HGA2     0.900000E-01   1.00800           0
      1098 MEMB     12       CHL1     C9       CRL1    -0.900000E-01   12.0110           0
      1099 MEMB     12       CHL1     H9       HGA1     0.900000E-01   1.00800           0
      1100 MEMB     12       CHL1     C10      CRL1     0.000000       12.0110           0
      1101 MEMB     12       CHL1     C19      CTL3    -0.270000       12.0110           0
      1102 MEMB     12       CHL1     H19A     HAL3     0.900000E-01   1.00800           0
      1103 MEMB     12       CHL1     H19B     HAL3     0.900000E-01   1.00800           0
      1104 MEMB     12       CHL1     H19C     HAL3     0.900000E-01   1.00800           0
      1105 MEMB     12       CHL1     C1       CRL2    -0.180000       12.0110           0
      1106 MEMB     12       CHL1     H1A      HGA2     0.900000E-01   1.00800           0
      1107 MEMB     12       CHL1     H1B      HGA2     0.900000E-01   1.00800           0
      1108 MEMB     12       CHL1     C2       CRL2    -0.180000       12.0110           0
      1109 MEMB     12       CHL1     H2A      HGA2     0.900000E-01   1.00800           0
      1110 MEMB     12       CHL1     H2B      HGA2     0.900000E-01   1.00800           0
      1111 MEMB     12       CHL1     C20      CTL1    -0.900000E-01   12.0110           0
      1112 MEMB     12       CHL1     H20      HAL1     0.900000E-01   1.00800           0
      1113 MEMB     12       CHL1     C21      CTL3    -0.270000       12.0110           0
      1114 MEMB     12       CHL1     H21A     HAL3     0.900000E-01   1.00800           0
      1115 MEMB     12       CHL1     H21B     HAL3     0.900000E-01   1.00800           0
      1116 MEMB     12       CHL1     H21C     HAL3     0.900000E-01   1.00800           0
      1117 MEMB     12       CHL1     C22      CTL2    -0.180000       12.0110           0
      1118 MEMB     12       CHL1     H22A     HAL2     0.900000E-01   1.00800           0
      1119 MEMB     12       CHL1     H22B     HAL2     0.900000E-01   1.00800           0
      1120 MEMB     12       CHL1     C23      CTL2    -0.180000       12.0110           0
      1121 MEMB     12       CHL1     H23A     HAL2     0.900000E-01   1.00800           0
      1122 MEMB     12       CHL1     H23B     HAL2     0.900000E-01   1.00800           0
      1123 MEMB     12       CHL1     C24      CTL2    -0.180000       12.0110           0
      1124 MEMB     12       CHL1     H24A     HAL2     0.900000E-01   1.00800           0
      1125 MEMB     12       CHL1     H24B     HAL2     0.900000E-01   1.00800           0
      1126 MEMB     12       CHL1     C25      CTL1    -0.900000E-01   12.0110           0
      1127 MEMB     12       CHL1     H25      HAL1     0.900000E-01   1.00800           0
      1128 MEMB     12       CHL1     C26      CTL3    -0.270000       12.0110           0
      1129 MEMB     12       CHL1     H26A     HAL3     0.900000E-01   1.00800           0
      1130 MEMB     12       CHL1     H26B     HAL3     0.900000E-01   1.00800           0
      1131 MEMB     12       CHL1     H26C     HAL3     0.900000E-01   1.00800           0
      1132 MEMB     12       CHL1     C27      CTL3    -0.270000       12.0110           0
      1133 MEMB     12       CHL1     H27A     HAL3     0.900000E-01   1.00800           0
      1134 MEMB     12       CHL1     H27B     HAL3     0.900000E-01   1.00800           0
      1135 MEMB     12       CHL1     H27C     HAL3     0.900000E-01   1.00800           0
      1136 MEMB     13       CHL1     C3       CRL1     0.140000       12.0110           0
      1137 MEMB     13       CHL1     H3       HGA1     0.900000E-01   1.00800           0
      1138 MEMB     13       CHL1     O3       OHL     -0.660000       15.9994           0
      1139 MEMB     13       CHL1     H3'      HOL      0.430000       1.00800           0
      1140 MEMB     13       CHL1     C4       CRL2    -0.180000       12.0110           0
      1141 MEMB     13       CHL1     H4A      HGA2     0.900000E-01   1.00800           0
      1142 MEMB     13       CHL1     H4B      HGA2     0.900000E-01   1.00800           0
      1143 MEMB     13       CHL1     C5       CEL1     0.000000       12.0110           0
      1144 MEMB     13       CHL1     C6       CEL1    -0.150000       12.0110           0
      1145 MEMB     13       CHL1     H6       HEL1     0.150000       1.00800           0
      1146 MEMB     13       CHL1     C7       CRL2    -0.180000       12.0110           0
      1147 MEMB     13       CHL1     H7A      HGA2     0.900000E-01   1.00800           0
      1148 MEMB     13       CHL1     H7B      HGA2     0.900000E-01   1.00800           0
      1149 MEMB     13       CHL1     C8       CRL1    -0.900000E-01   12.0110           0
      1150 MEMB     13       CHL1     H8       HGA1     0.900000E-01   1.00800           0
      1151 MEMB     13       CHL1     C14      CRL1    -0.900000E-01   12.0110           0
      1152 MEMB     13       CHL1     H14      HGA1     0.900000E-01   1.00800           0
      1153 MEMB     13       CHL1     C15      CRL2    -0.180000       12.0110           0
      1154 MEMB     13       CHL1     H15A     HGA2     0.900000E-01   1.00800           0
      1155 MEMB     13       CHL1     H15B     HGA2     0.900000E-01   1.00800           0
      1156 MEMB     13       CHL1     C16      CRL2    -0.180000       12.0110           0
      1157 MEMB     13       CHL1     H16A     HGA2     0.900000E-01   1.00800           0
      1158 MEMB     13       CHL1     H16B     HGA2     0.900000E-01   1.00800           0
      1159 MEMB     13       CHL1     C17      CRL1    -0.900000E-01   12.0110           0
      1160 MEMB     13       CHL1     H17      HGA1     0.900000E-01   1.00800           0
      1161 MEMB     13       CHL1     C13      CRL1     0.000000       12.0110           0
      1162 MEMB     13       CHL1     C18      CTL3    -0.270000       12.0110           0
      1163 MEMB     13       CHL1     H18A     HAL3     0.900000E-01   1.00800           0
      1164 MEMB     13       CHL1     H18B     HAL3     0.900000E-01   1.00800           0
      1165 MEMB     13       CHL1     H18C     HAL3     0.900000E-01   1.00800           0
      1166 MEMB     13       CHL1     C12      CRL2    -0.180000       12.0110           0
      1167 MEMB     13       CHL1     H12A     HGA2     0.900000E-01   1.00800           0
      1168 MEMB     13       CHL1     H12B     HGA2     0.900000E-01   1.00800           0
      1169 MEMB     13       CHL1     C11      CRL2    -0.180000       12.0110           0
      1170 MEMB     13       CHL1     H11A     HGA2     0.900000E-01   1.00800           0
      1171 MEMB     13       CHL1     H11B     HGA2     0.900000E-01   1.00800           0
      1172 MEMB     13       CHL1     C9       CRL1    -0.900000E-01   12.0110           0
      1173 MEMB     13       CHL1     H9       HGA1     0.900000E-01   1.00800           0
      1174 MEMB     13       CHL1     C10      CRL1     0.000000       12.0110           0
      1175 MEMB     13       CHL1     C19      CTL3    -0.270000       12.0110           0
      1176 MEMB     13       CHL1     H19A     HAL3     0.900000E-01   1.00800           0
      1177 MEMB     13       CHL1     H19B     HAL3     0.900000E-01   1.00800           0
      1178 MEMB     13       CHL1     H19C     HAL3     0.900000E-01   1.00800           0
      1179 MEMB     13       CHL1     C1       CRL2    -0.180000       12.0110           0
      1180 MEMB     13       CHL1     H1A      HGA2     0.900000E-01   1.00800           0
      1181 MEMB     13       CHL1     H1B      HGA2     0.900000E-01   1.00800           0
      1182 MEMB     13       CHL1     C2       CRL2    -0.180000       12.0110           0
      1183 MEMB     13       CHL1     H2A      HGA2     0.900000E-01   1.00800           0
      1184 MEMB     13       CHL1     H2B      HGA2     0.900000E-01   1.00800           0
      1185 MEMB     13       CHL1     C20      CTL1    -0.900000E-01   12.0110           0
      1186 MEMB     13       CHL1     H20      HAL1     0.900000E-01   1.00800           0
      1187 MEMB     13       CHL1     C21      CTL3    -0.270000       12.0110           0
      1188 MEMB     13       CHL1     H21A     HAL3     0.900000E-01   1.00800           0
      1189 MEMB     13       CHL1     H21B     HAL3     0.900000E-01   1.00800           0
      1190 MEMB     13       CHL1     H21C     HAL3     0.900000E-01   1.00800           0
      1191 MEMB     13       CHL1     C22      CTL2    -0.180000       12.0110           0
      1192 MEMB     13       CHL1     H22A     HAL2     0.900000E-01   1.00800           0
      1193 MEMB     13       CHL1     H22B     HAL2     0.900000E-01   1.00800           0
      1194 MEMB     13       CHL1     C23      CTL2    -0.180000       12.0110           0
      1195 MEMB     13       CHL1     H23A     HAL2     0.900000E-01   1.00800           0
      1196 MEMB     13       CHL1     H23B     HAL2     0.900000E-01   1.00800           0
      1197 MEMB     13       CHL1     C24      CTL2    -0.180000       12.0110           0
      1198 MEMB     13       CHL1     H24A     HAL2     0.900000E-01   1.00800           0
      1199 MEMB     13       CHL1     H24B     HAL2     0.900000E-01   1.00800           0
      1200 MEMB     13       CHL1     C25      CTL1    -0.900000E-01   12.0110           0
      1201 MEMB     13       CHL1     H25      HAL1     0.900000E-01   1.00800           0
      1202 MEMB     13       CHL1     C26      CTL3    -0.270000       12.0110           0
      1203 MEMB     13       CHL1     H26A     HAL3     0.900000E-01   1.00800           0
      1204 MEMB     13       CHL1     H26B     HAL3     0.900000E-01   1.00800           0
      1205 MEMB     13       CHL1     H26C     HAL3     0.900000E-01   1.00800           0
      1206 MEMB     13       CHL1     C27      CTL3    -0.270000       12.0110           0
      1207 MEMB     13       CHL1     H27A     HAL3     0.900000E-01   1.00800           0
      1208 MEMB     13       CHL1     H27B     HAL3     0.900000E-01   1.00800           0
      1209 MEMB     13       CHL1     H27C     HAL3     0.900000E-01   1.00800           0
      1210 MEMB     14       CHL1     C3       CRL1     0.140000       12.0110           0
      1211 MEMB     14       CHL1     H3       HGA1     0.900000E-01   1.00800           0
      1212 MEMB     14       CHL1     O3       OHL     -0.660000       15.9994           0
      1213 MEMB     14       CHL1     H3'      HOL      0.430000       1.00800           0
      1214 MEMB     14       CHL1     C4       CRL2    -0.180000       12.0110           0
      1215 MEMB     14       CHL1     H4A      HGA2     0.900000E-01   1.00800           0
      1216 MEMB     14       CHL1     H4B      HGA2     0.900000E-01   1.00800           0
      1217 MEMB     14       CHL1     C5       CEL1     0.000000       12.0110           0
      1218 MEMB     14       CHL1     C6       CEL1    -0.150000       12.0110           0
      1219 MEMB     14       CHL1     H6       HEL1     0.150000       1.00800           0
      1220 MEMB     14       CHL1     C7       CRL2    -0.180000       12.0110           0
      1221 MEMB     14       CHL1     H7A      HGA2     0.900000E-01   1.00800           0
      1222 MEMB     14       CHL1     H7B      HGA2     0.900000E-01   1.00800           0
      1223 MEMB     14       CHL1     C8       CRL1    -0.900000E-01   12.0110           0
      1224 MEMB     14       CHL1     H8       HGA1     0.900000E-01   1.00800           0
      1225 MEMB     14       CHL1     C14      CRL1    -0.900000E-01   12.0110           0
      1226 MEMB     14       CHL1     H14      HGA1     0.900000E-01   1.00800           0
      1227 MEMB     14       CHL1     C15      CRL2    -0.180000       12.0110           0
      1228 MEMB     14       CHL1     H15A     HGA2     0.900000E-01   1.00800           0
      1229 MEMB     14       CHL1     H15B     HGA2     0.900000E-01   1.00800           0
      1230 MEMB     14       CHL1     C16      CRL2    -0.180000       12.0110           0
      1231 MEMB     14       CHL1     H16A     HGA2     0.900000E-01   1.00800           0
      1232 MEMB     14       CHL1     H16B     HGA2     0.900000E-01   1.00800           0
      1233 MEMB     14       CHL1     C17      CRL1    -0.900000E-01   12.0110           0
      1234 MEMB     14       CHL1     H17      HGA1     0.900000E-01   1.00800           0
      1235 MEMB     14       CHL1     C13      CRL1     0.000000       12.0110           0
      1236 MEMB     14       CHL1     C18      CTL3    -0.270000       12.0110           0
      1237 MEMB     14       CHL1     H18A     HAL3     0.900000E-01   1.00800           0
      1238 MEMB     14       CHL1     H18B     HAL3     0.900000E-01   1.00800           0
      1239 MEMB     14       CHL1     H18C     HAL3     0.900000E-01   1.00800           0
      1240 MEMB     14       CHL1     C12      CRL2    -0.180000       12.0110           0
      1241 MEMB     14       CHL1     H12A     HGA2     0.900000E-01   1.00800           0
      1242 MEMB     14       CHL1     H12B     HGA2     0.900000E-01   1.00800           0
      1243 MEMB     14       CHL1     C11      CRL2    -0.180000       12.0110           0
      1244 MEMB     14       CHL1     H11A     HGA2     0.900000E-01   1.00800           0
      1245 MEMB     14       CHL1     H11B     HGA2     0.900000E-01   1.00800           0
      1246 MEMB     14       CHL1     C9       CRL1    -0.900000E-01   12.0110           0
      1247 MEMB     14       CHL1     H9       HGA1     0.900000E-01   1.00800           0
      1248 MEMB     14       CHL1     C10      CRL1     0.000000       12.0110           0
      1249 MEMB     14       CHL1     C19      CTL3    -0.270000       12.0110           0
      1250 MEMB     14       CHL1     H19A     HAL3     0.900000E-01   1.00800           0
      1251 MEMB     14       CHL1     H19B     HAL3     0.900000E-01   1.00800           0
      1252 MEMB     14       CHL1     H19C     HAL3     0.900000E-01   1.00800           0
      1253 MEMB     14       CHL1     C1       CRL2    -0.180000       12.0110           0
      1254 MEMB     14       CHL1     H1A      HGA2     0.900000E-01   1.00800           0
      1255 MEMB     14       CHL1     H1B      HGA2     0.900000E-01   1.00800           0
      1256 MEMB     14       CHL1     C2       CRL2    -0.180000       12.0110           0
      1257 MEMB     14       CHL1     H2A      HGA2     0.900000E-01   1.00800           0
      1258 MEMB     14       CHL1     H2B      HGA2     0.900000E-01   1.00800           0
      1259 MEMB     14       CHL1     C20      CTL1    -0.900000E-01   12.0110           0
      1260 MEMB     14       CHL1     H20      HAL1     0.900000E-01   1.00800           0
      1261 MEMB     14       CHL1     C21      CTL3    -0.270000       12.0110           0
      1262 MEMB     14       CHL1     H21A     HAL3     0.900000E-01   1.00800           0
      1263 MEMB     14       CHL1     H21B     HAL3     0.900000E-01   1.00800           0
      1264 MEMB     14       CHL1     H21C     HAL3     0.900000E-01   1.00800           0
      1265 MEMB     14       CHL1     C22      CTL2    -0.180000       12.0110           0
      1266 MEMB     14       CHL1     H22A     HAL2     0.900000E-01   1.00800           0
      1267 MEMB     14       CHL1     H22B     HAL2     0.900000E-01   1.00800           0
      1268 MEMB     14       CHL1     C23      CTL2    -0.180000       12.0110           0
      1269 MEMB     14       CHL1     H23A     HAL2     0.900000E-01   1.00800           0
      1270 MEMB     14       CHL1     H23B     HAL2     0.900000E-01   1.00800           0
      1271 MEMB     14       CHL1     C24      CTL2    -0.180000       12.0110           0
      1272 MEMB     14       CHL1     H24A     HAL2     0.900000E-01   1.00800           0
      1273 MEMB     14       CHL1     H24B     HAL2     0.900000E-01   1.00800           0
      1274 MEMB     14       CHL1     C25      CTL1    -0.900000E-01   12.0110           0
      1275 MEMB     14       CHL1     H25      HAL1     0.900000E-01   1.00800           0
      1276 MEMB     14       CHL1     C26      CTL3    -0.270000       12.0110           0
      1277 MEMB     14       CHL1     H26A     HAL3     0.900000E-01   1.00800           0
      1278 MEMB     14       CHL1     H26B     HAL3     0.900000E-01   1.00800           0
      1279 MEMB     14       CHL1     H26C     HAL3     0.900000E-01   1.00800           0
      1280 MEMB     14       CHL1     C27      CTL3    -0.270000       12.0110           0
      1281 MEMB     14       CHL1     H27A     HAL3     0.900000E-01   1.00800           0
      1282 MEMB     14       CHL1     H27B     HAL3     0.900000E-01   1.00800           0
      1283 MEMB     14       CHL1     H27C     HAL3     0.900000E-01   1.00800           0
      1284 MEMB     15       CHL1     C3       CRL1     0.140000       12.0110           0
      1285 MEMB     15       CHL1     H3       HGA1     0.900000E-01   1.00800           0
      1286 MEMB     15       CHL1     O3       OHL     -0.660000       15.9994           0
      1287 MEMB     15       CHL1     H3'      HOL      0.430000       1.00800           0
      1288 MEMB     15       CHL1     C4       CRL2    -0.180000       12.0110           0
      1289 MEMB     15       CHL1     H4A      HGA2     0.900000E-01   1.00800           0
      1290 MEMB     15       CHL1     H4B      HGA2     0.900000E-01   1.00800           0
      1291 MEMB     15       CHL1     C5       CEL1     0.000000       12.0110           0
      1292 MEMB     15       CHL1     C6       CEL1    -0.150000       12.0110           0
      1293 MEMB     15       CHL1     H6       HEL1     0.150000       1.00800           0
      1294 MEMB     15       CHL1     C7       CRL2    -0.180000       12.0110           0
      1295 MEMB     15       CHL1     H7A      HGA2     0.900000E-01   1.00800           0
      1296 MEMB     15       CHL1     H7B      HGA2     0.900000E-01   1.00800           0
      1297 MEMB     15       CHL1     C8       CRL1    -0.900000E-01   12.0110           0
      1298 MEMB     15       CHL1     H8       HGA1     0.900000E-01   1.00800           0
      1299 MEMB     15       CHL1     C14      CRL1    -0.900000E-01   12.0110           0
      1300 MEMB     15       CHL1     H14      HGA1     0.900000E-01   1.00800           0
      1301 MEMB     15       CHL1     C15      CRL2    -0.180000       12.0110           0
      1302 MEMB     15       CHL1     H15A     HGA2     0.900000E-01   1.00800           0
      1303 MEMB     15       CHL1     H15B     HGA2     0.900000E-01   1.00800           0
      1304 MEMB     15       CHL1     C16      CRL2    -0.180000       12.0110           0
      1305 MEMB     15       CHL1     H16A     HGA2     0.900000E-01   1.00800           0
      1306 MEMB     15       CHL1     H16B     HGA2     0.900000E-01   1.00800           0
      1307 MEMB     15       CHL1     C17      CRL1    -0.900000E-01   12.0110           0
      1308 MEMB     15       CHL1     H17      HGA1     0.900000E-01   1.00800           0
      1309 MEMB     15       CHL1     C13      CRL1     0.000000       12.0110           0
      1310 MEMB     15       CHL1     C18      CTL3    -0.270000       12.0110           0
      1311 MEMB     15       CHL1     H18A     HAL3     0.900000E-01   1.00800           0
      1312 MEMB     15       CHL1     H18B     HAL3     0.900000E-01   1.00800           0
      1313 MEMB     15       CHL1     H18C     HAL3     0.900000E-01   1.00800           0
      1314 MEMB     15       CHL1     C12      CRL2    -0.180000       12.0110           0
      1315 MEMB     15       CHL1     H12A     HGA2     0.900000E-01   1.00800           0
      1316 MEMB     15       CHL1     H12B     HGA2     0.900000E-01   1.00800           0
      1317 MEMB     15       CHL1     C11      CRL2    -0.180000       12.0110           0
      1318 MEMB     15       CHL1     H11A     HGA2     0.900000E-01   1.00800           0
      1319 MEMB     15       CHL1     H11B     HGA2     0.900000E-01   1.00800           0
      1320 MEMB     15       CHL1     C9       CRL1    -0.900000E-01   12.0110           0
      1321 MEMB     15       CHL1     H9       HGA1     0.900000E-01   1.00800           0
      1322 MEMB     15       CHL1     C10      CRL1     0.000000       12.0110           0
      1323 MEMB     15       CHL1     C19      CTL3    -0.270000       12.0110           0
      1324 MEMB     15       CHL1     H19A     HAL3     0.900000E-01   1.00800           0
      1325 MEMB     15       CHL1     H19B     HAL3     0.900000E-01   1.00800           0
      1326 MEMB     15       CHL1     H19C     HAL3     0.900000E-01   1.00800           0
      1327 MEMB     15       CHL1     C1       CRL2    -0.180000       12.0110           0
      1328 MEMB     15       CHL1     H1A      HGA2     0.900000E-01   1.00800           0
      1329 MEMB     15       CHL1     H1B      HGA2     0.900000E-01   1.00800           0
      1330 MEMB     15       CHL1     C2       CRL2    -0.180000       12.0110           0
      1331 MEMB     15       CHL1     H2A      HGA2     0.900000E-01   1.00800           0
      1332 MEMB     15       CHL1     H2B      HGA2     0.900000E-01   1.00800           0
      1333 MEMB     15       CHL1     C20      CTL1    -0.900000E-01   12.0110           0
      1334 MEMB     15       CHL1     H20      HAL1     0.900000E-01   1.00800           0
      1335 MEMB     15       CHL1     C21      CTL3    -0.270000       12.0110           0
      1336 MEMB     15       CHL1     H21A     HAL3     0.900000E-01   1.00800           0
      1337 MEMB     15       CHL1     H21B     HAL3     0.900000E-01   1.00800           0
      1338 MEMB     15       CHL1     H21C     HAL3     0.900000E-01   1.00800           0
      1339 MEMB     15       CHL1     C22      CTL2    -0.180000       12.0110           0
      1340 MEMB     15       CHL1     H22A     HAL2     0.900000E-01   1.00800           0
      1341 MEMB     15       CHL1     H22B     HAL2     0.900000E-01   1.00800           0
      1342 MEMB     15       CHL1     C23      CTL2    -0.180000       12.0110           0
      1343 MEMB     15       CHL1     H23A     HAL2     0.900000E-01   1.00800           0
      1344 MEMB     15       CHL1     H23B     HAL2     0.900000E-01   1.00800           0
      1345 MEMB     15       CHL1     C24      CTL2    -0.180000       12.0110           0
      1346 MEMB     15       CHL1     H24A     HAL2     0.900000E-01   1.00800           0
      1347 MEMB     15       CHL1     H24B     HAL2     0.900000E-01   1.00800           0
      1348 MEMB     15       CHL1     C25      CTL1    -0.900000E-01   12.0110           0
      1349 MEMB     15       CHL1     H25      HAL1     0.900000E-01   1.00800           0
      1350 MEMB     15       CHL1     C26      CTL3    -0.270000       12.0110           0
      1351 MEMB     15       CHL1     H26A     HAL3     0.900000E-01   1.00800           0
      1352 MEMB     15       CHL1     H26B     HAL3     0.900000E-01   1.00800           0
      1353 MEMB     15       CHL1     H26C     HAL3     0.900000E-01   1.00800           0
      1354 MEMB     15       CHL1     C27      CTL3    -0.270000       12.0110           0
      1355 MEMB     15       CHL1     H27A     HAL3     0.900000E-01   1.00800           0
      1356 MEMB     15       CHL1     H27B     HAL3     0.900000E-01   1.00800           0
      1357 MEMB     15       CHL1     H27C     HAL3     0.900000E-01   1.00800           0
      1358 MEMB     16       CHL1     C3       CRL1     0.140000       12.0110           0
      1359 MEMB     16       CHL1     H3       HGA1     0.900000E-01   1.00800           0
      1360 MEMB     16       CHL1     O3       OHL     -0.660000       15.9994           0
      1361 MEMB     16       CHL1     H3'      HOL      0.430000       1.00800           0
      1362 MEMB     16       CHL1     C4       CRL2    -0.180000       12.0110           0
      1363 MEMB     16       CHL1     H4A      HGA2     0.900000E-01   1.00800           0
      1364 MEMB     16       CHL1     H4B      HGA2     0.900000E-01   1.00800           0
      1365 MEMB     16       CHL1     C5       CEL1     0.000000       12.0110           0
      1366 MEMB     16       CHL1     C6       CEL1    -0.150000       12.0110           0
      1367 MEMB     16       CHL1     H6       HEL1     0.150000       1.00800           0
      1368 MEMB     16       CHL1     C7       CRL2    -0.180000       12.0110           0
      1369 MEMB     16       CHL1     H7A      HGA2     0.900000E-01   1.00800           0
      1370 MEMB     16       CHL1     H7B      HGA2     0.900000E-01   1.00800           0
      1371 MEMB     16       CHL1     C8       CRL1    -0.900000E-01   12.0110           0
      1372 MEMB     16       CHL1     H8       HGA1     0.900000E-01   1.00800           0
      1373 MEMB     16       CHL1     C14      CRL1    -0.900000E-01   12.0110           0
      1374 MEMB     16       CHL1     H14      HGA1     0.900000E-01   1.00800           0
      1375 MEMB     16       CHL1     C15      CRL2    -0.180000       12.0110           0
      1376 MEMB     16       CHL1     H15A     HGA2     0.900000E-01   1.00800           0
      1377 MEMB     16       CHL1     H15B     HGA2     0.900000E-01   1.00800           0
      1378 MEMB     16       CHL1     C16      CRL2    -0.180000       12.0110           0
      1379 MEMB     16       CHL1     H16A     HGA2     0.900000E-01   1.00800           0
      1380 MEMB     16       CHL1     H16B     HGA2     0.900000E-01   1.00800           0
      1381 MEMB     16       CHL1     C17      CRL1    -0.900000E-01   12.0110           0
      1382 MEMB     16       CHL1     H17      HGA1     0.900000E-01   1.00800           0
      1383 MEMB     16       CHL1     C13      CRL1     0.000000       12.0110           0
      1384 MEMB     16       CHL1     C18      CTL3    -0.270000       12.0110           0
      1385 MEMB     16       CHL1     H18A     HAL3     0.900000E-01   1.00800           0
      1386 MEMB     16       CHL1     H18B     HAL3     0.900000E-01   1.00800           0
      1387 MEMB     16       CHL1     H18C     HAL3     0.900000E-01   1.00800           0
      1388 MEMB     16       CHL1     C12      CRL2    -0.180000       12.0110           0
      1389 MEMB     16       CHL1     H12A     HGA2     0.900000E-01   1.00800           0
      1390 MEMB     16       CHL1     H12B     HGA2     0.900000E-01   1.00800           0
      1391 MEMB     16       CHL1     C11      CRL2    -0.180000       12.0110           0
      1392 MEMB     16       CHL1     H11A     HGA2     0.900000E-01   1.00800           0
      1393 MEMB     16       CHL1     H11B     HGA2     0.900000E-01   1.00800           0
      1394 MEMB     16       CHL1     C9       CRL1    -0.900000E-01   12.0110           0
      1395 MEMB     16       CHL1     H9       HGA1     0.900000E-01   1.00800           0
      1396 MEMB     16       CHL1     C10      CRL1     0.000000       12.0110           0
      1397 MEMB     16       CHL1     C19      CTL3    -0.270000       12.0110           0
      1398 MEMB     16       CHL1     H19A     HAL3     0.900000E-01   1.00800           0
      1399 MEMB     16       CHL1     H19B     HAL3     0.900000E-01   1.00800           0
      1400 MEMB     16       CHL1     H19C     HAL3     0.900000E-01   1.00800           0
      1401 MEMB     16       CHL1     C1       CRL2    -0.180000       12.0110           0
      1402 MEMB     16       CHL1     H1A      HGA2     0.900000E-01   1.00800           0
      1403 MEMB     16       CHL1     H1B      HGA2     0.900000E-01   1.00800           0
      1404 MEMB     16       CHL1     C2       CRL2    -0.180000       12.0110           0
      1405 MEMB     16       CHL1     H2A      HGA2     0.900000E-01   1.00800           0
      1406 MEMB     16       CHL1     H2B      HGA2     0.900000E-01   1.00800           0
      1407 MEMB     16       CHL1     C20      CTL1    -0.900000E-01   12.0110           0
      1408 MEMB     16       CHL1     H20      HAL1     0.900000E-01   1.00800           0
      1409 MEMB     16       CHL1     C21      CTL3    -0.270000       12.0110           0
      1410 MEMB     16       CHL1     H21A     HAL3     0.900000E-01   1.00800           0
      1411 MEMB     16       CHL1     H21B     HAL3     0.900000E-01   1.00800           0
      1412 MEMB     16       CHL1     H21C     HAL3     0.900000E-01   1.00800           0
      1413 MEMB     16       CHL1     C22      CTL2    -0.180000       12.0110           0
      1414 MEMB     16       CHL1     H22A     HAL2     0.900000E-01   1.00800           0
      1415 MEMB     16       CHL1     H22B     HAL2     0.900000E-01   1.00800           0
      1416 MEMB     16       CHL1     C23      CTL2    -0.180000       12.0110           0
      1417 MEMB     16       CHL1     H23A     HAL2     0.900000E-01   1.00800           0
      1418 MEMB     16       CHL1     H23B     HAL2     0.900000E-01   1.00800           0
      1419 MEMB     16       CHL1     C24      CTL2    -0.180000       12.0110           0
      1420 MEMB     16       CHL1     H24A     HAL2     0.900000E-01   1.00800           0
      1421 MEMB     16       CHL1     H24B     HAL2     0.900000E-01   1.00800           0
      1422 MEMB     16       CHL1     C25      CTL1    -0.900000E-01   12.0110           0
      1423 MEMB     16       CHL1     H25      HAL1     0.900000E-01   1.00800           0
      1424 MEMB     16       CHL1     C26      CTL3    -0.270000       12.0110           0
      1425 MEMB     16       CHL1     H26A     HAL3     0.900000E-01   1.00800           0
      1426 MEMB     16       CHL1     H26B     HAL3     0.900000E-01   1.00800           0
      1427 MEMB     16       CHL1     H26C     HAL3     0.900000E-01   1.00800           0
      1428 MEMB     16       CHL1     C27      CTL3    -0.270000       12.0110           0
      1429 MEMB     16       CHL1     H27A     HAL3     0.900000E-01   1.00800           0
      1430 MEMB     16       CHL1     H27B     HAL3     0.900000E-01   1.00800           0
      1431 MEMB     16       CHL1     H27C     HAL3     0.900000E-01   1.00800           0
      1432 MEMB     17       CHL1     C3       CRL1     0.140000       12.0110           0
      1433 MEMB     17       CHL1     H3       HGA1     0.900000E-01   1.00800           0
      1434 MEMB     17       CHL1     O3       OHL     -0.660000       15.9994           0
      1435 MEMB     17       CHL1     H3'      HOL      0.430000       1.00800           0
      1436 MEMB     17       CHL1     C4       CRL2    -0.180000       12.0110           0
      1437 MEMB     17       CHL1     H4A      HGA2     0.900000E-01   1.00800           0
      1438 MEMB     17       CHL1     H4B      HGA2     0.900000E-01   1.00800           0
      1439 MEMB     17       CHL1     C5       CEL1     0.000000       12.0110           0
      1440 MEMB     17       CHL1     C6       CEL1    -0.150000       12.0110           0
      1441 MEMB     17       CHL1     H6       HEL1     0.150000       1.00800           0
      1442 MEMB     17       CHL1     C7       CRL2    -0.180000       12.0110           0
      1443 MEMB     17       CHL1     H7A      HGA2     0.900000E-01   1.00800           0
      1444 MEMB     17       CHL1     H7B      HGA2     0.900000E-01   1.00800           0
      1445 MEMB     17       CHL1     C8       CRL1    -0.900000E-01   12.0110           0
      1446 MEMB     17       CHL1     H8       HGA1     0.900000E-01   1.00800           0
      1447 MEMB     17       CHL1     C14      CRL1    -0.900000E-01   12.0110           0
      1448 MEMB     17       CHL1     H14      HGA1     0.900000E-01   1.00800           0
      1449 MEMB     17       CHL1     C15      CRL2    -0.180000       12.0110           0
      1450 MEMB     17       CHL1     H15A     HGA2     0.900000E-01   1.00800           0
      1451 MEMB     17       CHL1     H15B     HGA2     0.900000E-01   1.00800           0
      1452 MEMB     17       CHL1     C16      CRL2    -0.180000       12.0110           0
      1453 MEMB     17       CHL1     H16A     HGA2     0.900000E-01   1.00800           0
      1454 MEMB     17       CHL1     H16B     HGA2     0.900000E-01   1.00800           0
      1455 MEMB     17       CHL1     C17      CRL1    -0.900000E-01   12.0110           0
      1456 MEMB     17       CHL1     H17      HGA1     0.900000E-01   1.00800           0
      1457 MEMB     17       CHL1     C13      CRL1     0.000000       12.0110           0
      1458 MEMB     17       CHL1     C18      CTL3    -0.270000       12.0110           0
      1459 MEMB     17       CHL1     H18A     HAL3     0.900000E-01   1.00800           0
      1460 MEMB     17       CHL1     H18B     HAL3     0.900000E-01   1.00800           0
      1461 MEMB     17       CHL1     H18C     HAL3     0.900000E-01   1.00800           0
      1462 MEMB     17       CHL1     C12      CRL2    -0.180000       12.0110           0
      1463 MEMB     17       CHL1     H12A     HGA2     0.900000E-01   1.00800           0
      1464 MEMB     17       CHL1     H12B     HGA2     0.900000E-01   1.00800           0
      1465 MEMB     17       CHL1     C11      CRL2    -0.180000       12.0110           0
      1466 MEMB     17       CHL1     H11A     HGA2     0.900000E-01   1.00800           0
      1467 MEMB     17       CHL1     H11B     HGA2     0.900000E-01   1.00800           0
      1468 MEMB     17       CHL1     C9       CRL1    -0.900000E-01   12.0110           0
      1469 MEMB     17       CHL1     H9       HGA1     0.900000E-01   1.00800           0
      1470 MEMB     17       CHL1     C10      CRL1     0.000000       12.0110           0
      1471 MEMB     17       CHL1     C19      CTL3    -0.270000       12.0110           0
      1472 MEMB     17       CHL1     H19A     HAL3     0.900000E-01   1.00800           0
      1473 MEMB     17       CHL1     H19B     HAL3     0.900000E-01   1.00800           0
      1474 MEMB     17       CHL1     H19C     HAL3     0.900000E-01   1.00800           0
      1475 MEMB     17       CHL1     C1       CRL2    -0.180000       12.0110           0
      1476 MEMB     17       CHL1     H1A      HGA2     0.900000E-01   1.00800           0
      1477 MEMB     17       CHL1     H1B      HGA2     0.900000E-01   1.00800           0
      1478 MEMB     17       CHL1     C2       CRL2    -0.180000       12.0110           0
      1479 MEMB     17       CHL1     H2A      HGA2     0.900000E-01   1.00800           0
      1480 MEMB     17       CHL1     H2B      HGA2     0.900000E-01   1.00800           0
      1481 MEMB     17       CHL1     C20      CTL1    -0.900000E-01   12.0110           0
      1482 MEMB     17       CHL1     H20      HAL1     0.900000E-01   1.00800           0
      1483 MEMB     17       CHL1     C21      CTL3    -0.270000       12.0110           0
      1484 MEMB     17       CHL1     H21A     HAL3     0.900000E-01   1.00800           0
      1485 MEMB     17       CHL1     H21B     HAL3     0.900000E-01   1.00800           0
      1486 MEMB     17       CHL1     H21C     HAL3     0.900000E-01   1.00800           0
      1487 MEMB     17       CHL1     C22      CTL2    -0.180000       12.0110           0
      1488 MEMB     17       CHL1     H22A     HAL2     0.900000E-01   1.00800           0
      1489 MEMB     17       CHL1     H22B     HAL2     0.900000E-01   1.00800           0
      1490 MEMB     17       CHL1     C23      CTL2    -0.180000       12.0110           0
      1491 MEMB     17       CHL1     H23A     HAL2     0.900000E-01   1.00800           0
      1492 MEMB     17       CHL1     H23B     HAL2     0.900000E-01   1.00800           0
      1493 MEMB     17       CHL1     C24      CTL2    -0.180000       12.0110           0
      1494 MEMB     17       CHL1     H24A     HAL2     0.900000E-01   1.00800           0
      1495 MEMB     17       CHL1     H24B     HAL2     0.900000E-01   1.00800           0
      1496 MEMB     17       CHL1     C25      CTL1    -0.900000E-01   12.0110           0
      1497 MEMB     17       CHL1     H25      HAL1     0.900000E-01   1.00800           0
      1498 MEMB     17       CHL1     C26      CTL3    -0.270000       12.0110           0
      1499 MEMB     17       CHL1     H26A     HAL3     0.900000E-01   1.00800           0
      1500 MEMB     17       CHL1     H26B     HAL3     0.900000E-01   1.00800           0
      1501 MEMB     17       CHL1     H26C     HAL3     0.900000E-01   1.00800           0
      1502 MEMB     17       CHL1     C27      CTL3    -0.270000       12.0110           0
      1503 MEMB     17       CHL1     H27A     HAL3     0.900000E-01   1.00800           0
      1504 MEMB     17       CHL1     H27B     HAL3     0.900000E-01   1.00800           0
      1505 MEMB     17       CHL1     H27C     HAL3     0.900000E-01   1.00800           0
      1506 MEMB     18       CHL1     C3       CRL1     0.140000       12.0110           0
      1507 MEMB     18       CHL1     H3       HGA1     0.900000E-01   1.00800           0
      1508 MEMB     18       CHL1     O3       OHL     -0.660000       15.9994           0
      1509 MEMB     18       CHL1     H3'      HOL      0.430000       1.00800           0
      1510 MEMB     18       CHL1     C4       CRL2    -0.180000       12.0110           0
      1511 MEMB     18       CHL1     H4A      HGA2     0.900000E-01   1.00800           0
      1512 MEMB     18       CHL1     H4B      HGA2     0.900000E-01   1.00800           0
      1513 MEMB     18       CHL1     C5       CEL1     0.000000       12.0110           0
      1514 MEMB     18       CHL1     C6       CEL1    -0.150000       12.0110           0
      1515 MEMB     18       CHL1     H6       HEL1     0.150000       1.00800           0
      1516 MEMB     18       CHL1     C7       CRL2    -0.180000       12.0110           0
      1517 MEMB     18       CHL1     H7A      HGA2     0.900000E-01   1.00800           0
      1518 MEMB     18       CHL1     H7B      HGA2     0.900000E-01   1.00800           0
      1519 MEMB     18       CHL1     C8       CRL1    -0.900000E-01   12.0110           0
      1520 MEMB     18       CHL1     H8       HGA1     0.900000E-01   1.00800           0
      1521 MEMB     18       CHL1     C14      CRL1    -0.900000E-01   12.0110           0
      1522 MEMB     18       CHL1     H14      HGA1     0.900000E-01   1.00800           0
      1523 MEMB     18       CHL1     C15      CRL2    -0.180000       12.0110           0
      1524 MEMB     18       CHL1     H15A     HGA2     0.900000E-01   1.00800           0
      1525 MEMB     18       CHL1     H15B     HGA2     0.900000E-01   1.00800           0
      1526 MEMB     18       CHL1     C16      CRL2    -0.180000       12.0110           0
      1527 MEMB     18       CHL1     H16A     HGA2     0.900000E-01   1.00800           0
      1528 MEMB     18       CHL1     H16B     HGA2     0.900000E-01   1.00800           0
      1529 MEMB     18       CHL1     C17      CRL1    -0.900000E-01   12.0110           0
      1530 MEMB     18       CHL1     H17      HGA1     0.900000E-01   1.00800           0
      1531 MEMB     18       CHL1     C13      CRL1     0.000000       12.0110           0
      1532 MEMB     18       CHL1     C18      CTL3    -0.270000       12.0110           0
      1533 MEMB     18       CHL1     H18A     HAL3     0.900000E-01   1.00800           0
      1534 MEMB     18       CHL1     H18B     HAL3     0.900000E-01   1.00800           0
      1535 MEMB     18       CHL1     H18C     HAL3     0.900000E-01   1.00800           0
      1536 MEMB     18       CHL1     C12      CRL2    -0.180000       12.0110           0
      1537 MEMB     18       CHL1     H12A     HGA2     0.900000E-01   1.00800           0
      1538 MEMB     18       CHL1     H12B     HGA2     0.900000E-01   1.00800           0
      1539 MEMB     18       CHL1     C11      CRL2    -0.180000       12.0110           0
      1540 MEMB     18       CHL1     H11A     HGA2     0.900000E-01   1.00800           0
      1541 MEMB     18       CHL1     H11B     HGA2     0.900000E-01   1.00800           0
      1542 MEMB     18       CHL1     C9       CRL1    -0.900000E-01   12.0110           0
      1543 MEMB     18       CHL1     H9       HGA1     0.900000E-01   1.00800           0
      1544 MEMB     18       CHL1     C10      CRL1     0.000000       12.0110           0
      1545 MEMB     18       CHL1     C19      CTL3    -0.270000       12.0110           0
      1546 MEMB     18       CHL1     H19A     HAL3     0.900000E-01   1.00800           0
      1547 MEMB     18       CHL1     H19B     HAL3     0.900000E-01   1.00800           0
      1548 MEMB     18       CHL1     H19C     HAL3     0.900000E-01   1.00800           0
      1549 MEMB     18       CHL1     C1       CRL2    -0.180000       12.0110           0
      1550 MEMB     18       CHL1     H1A      HGA2     0.900000E-01   1.00800           0
      1551 MEMB     18       CHL1     H1B      HGA2     0.900000E-01   1.00800           0
      1552 MEMB     18       CHL1     C2       CRL2    -0.180000       12.0110           0
      1553 MEMB     18       CHL1     H2A      HGA2     0.900000E-01   1.00800           0
      1554 MEMB     18       CHL1     H2B      HGA2     0.900000E-01   1.00800           0
      1555 MEMB     18       CHL1     C20      CTL1    -0.900000E-01   12.0110           0
      1556 MEMB     18       CHL1     H20      HAL1     0.900000E-01   1.00800           0
      1557 MEMB     18       CHL1     C21      CTL3    -0.270000       12.0110           0
      1558 MEMB     18       CHL1     H21A     HAL3     0.900000E-01   1.00800           0
      1559 MEMB     18       CHL1     H21B     HAL3     0.900000E-01   1.00800           0
      1560 MEMB     18       CHL1     H21C     HAL3     0.900000E-01   1.00800           0
      1561 MEMB     18       CHL1     C22      CTL2    -0.180000       12.0110           0
      1562 MEMB     18       CHL1     H22A     HAL2     0.900000E-01   1.00800           0
      1563 MEMB     18       CHL1     H22B     HAL2     0.900000E-01   1.00800           0
      1564 MEMB     18       CHL1     C23      CTL2    -0.180000       12.0110           0
      1565 MEMB     18       CHL1     H23A     HAL2     0.900000E-01   1.00800           0
      1566 MEMB     18       CHL1     H23B     HAL2     0.900000E-01   1.00800           0
      1567 MEMB     18       CHL1     C24      CTL2    -0.180000       12.0110           0
      1568 MEMB     18       CHL1     H24A     HAL2     0.900000E-01   1.00800           0
      1569 MEMB     18       CHL1     H24B     HAL2     0.900000E-01   1.00800           0
      1570 MEMB     18       CHL1     C25      CTL1    -0.900000E-01   12.0110           0
      1571 MEMB     18       CHL1     H25      HAL1     0.900000E-01   1.00800           0
      1572 MEMB     18       CHL1     C26      CTL3    -0.270000       12.0110           0
      1573 MEMB     18       CHL1     H26A     HAL3     0.900000E-01   1.00800           0
      1574 MEMB     18       CHL1     H26B     HAL3     0.900000E-01   1.00800           0
      1575 MEMB     18       CHL1     H26C     HAL3     0.900000E-01   1.00800           0
      1576 MEMB     18       CHL1     C27      CTL3    -0.270000       12.0110           0
      1577 MEMB     18       CHL1     H27A     HAL3     0.900000E-01   1.00800           0
      1578 MEMB     18       CHL1     H27B     HAL3     0.900000E-01   1.00800           0
      1579 MEMB     18       CHL1     H27C     HAL3     0.900000E-01   1.00800           0
      1580 MEMB     19       CHL1     C3       CRL1     0.140000       12.0110           0
      1581 MEMB     19       CHL1     H3       HGA1     0.900000E-01   1.00800           0
      1582 MEMB     19       CHL1     O3       OHL     -0.660000       15.9994           0
      1583 MEMB     19       CHL1     H3'      HOL      0.430000       1.00800           0
      1584 MEMB     19       CHL1     C4       CRL2    -0.180000       12.0110           0
      1585 MEMB     19       CHL1     H4A      HGA2     0.900000E-01   1.00800           0
      1586 MEMB     19       CHL1     H4B      HGA2     0.900000E-01   1.00800           0
      1587 MEMB     19       CHL1     C5       CEL1     0.000000       12.0110           0
      1588 MEMB     19       CHL1     C6       CEL1    -0.150000       12.0110           0
      1589 MEMB     19       CHL1     H6       HEL1     0.150000       1.00800           0
      1590 MEMB     19       CHL1     C7       CRL2    -0.180000       12.0110           0
      1591 MEMB     19       CHL1     H7A      HGA2     0.900000E-01   1.00800           0
      1592 MEMB     19       CHL1     H7B      HGA2     0.900000E-01   1.00800           0
      1593 MEMB     19       CHL1     C8       CRL1    -0.900000E-01   12.0110           0
      1594 MEMB     19       CHL1     H8       HGA1     0.900000E-01   1.00800           0
      1595 MEMB     19       CHL1     C14      CRL1    -0.900000E-01   12.0110           0
      1596 MEMB     19       CHL1     H14      HGA1     0.900000E-01   1.00800           0
      1597 MEMB     19       CHL1     C15      CRL2    -0.180000       12.0110           0
      1598 MEMB     19       CHL1     H15A     HGA2     0.900000E-01   1.00800           0
      1599 MEMB     19       CHL1     H15B     HGA2     0.900000E-01   1.00800           0
      1600 MEMB     19       CHL1     C16      CRL2    -0.180000       12.0110           0
      1601 MEMB     19       CHL1     H16A     HGA2     0.900000E-01   1.00800           0
      1602 MEMB     19       CHL1     H16B     HGA2     0.900000E-01   1.00800           0
      1603 MEMB     19       CHL1     C17      CRL1    -0.900000E-01   12.0110           0
      1604 MEMB     19       CHL1     H17      HGA1     0.900000E-01   1.00800           0
      1605 MEMB     19       CHL1     C13      CRL1     0.000000       12.0110           0
      1606 MEMB     19       CHL1     C18      CTL3    -0.270000       12.0110           0
      1607 MEMB     19       CHL1     H18A     HAL3     0.900000E-01   1.00800           0
      1608 MEMB     19       CHL1     H18B     HAL3     0.900000E-01   1.00800           0
      1609 MEMB     19       CHL1     H18C     HAL3     0.900000E-01   1.00800           0
      1610 MEMB     19       CHL1     C12      CRL2    -0.180000       12.0110           0
      1611 MEMB     19       CHL1     H12A     HGA2     0.900000E-01   1.00800           0
      1612 MEMB     19       CHL1     H12B     HGA2     0.900000E-01   1.00800           0
      1613 MEMB     19       CHL1     C11      CRL2    -0.180000       12.0110           0
      1614 MEMB     19       CHL1     H11A     HGA2     0.900000E-01   1.00800           0
      1615 MEMB     19       CHL1     H11B     HGA2     0.900000E-01   1.00800           0
      1616 MEMB     19       CHL1     C9       CRL1    -0.900000E-01   12.0110           0
      1617 MEMB     19       CHL1     H9       HGA1     0.900000E-01   1.00800           0
      1618 MEMB     19       CHL1     C10      CRL1     0.000000       12.0110           0
      1619 MEMB     19       CHL1     C19      CTL3    -0.270000       12.0110           0
      1620 MEMB     19       CHL1     H19A     HAL3     0.900000E-01   1.00800           0
      1621 MEMB     19       CHL1     H19B     HAL3     0.900000E-01   1.00800           0
      1622 MEMB     19       CHL1     H19C     HAL3     0.900000E-01   1.00800           0
      1623 MEMB     19       CHL1     C1       CRL2    -0.180000       12.0110           0
      1624 MEMB     19       CHL1     H1A      HGA2     0.900000E-01   1.00800           0
      1625 MEMB     19       CHL1     H1B      HGA2     0.900000E-01   1.00800           0
      1626 MEMB     19       CHL1     C2       CRL2    -0.180000       12.0110           0
      1627 MEMB     19       CHL1     H2A      HGA2     0.900000E-01   1.00800           0
      1628 MEMB     19       CHL1     H2B      HGA2     0.900000E-01   1.00800           0
      1629 MEMB     19       CHL1     C20      CTL1    -0.900000E-01   12.0110           0
      1630 MEMB     19       CHL1     H20      HAL1     0.900000E-01   1.00800           0
      1631 MEMB     19       CHL1     C21      CTL3    -0.270000       12.0110           0
      1632 MEMB     19       CHL1     H21A     HAL3     0.900000E-01   1.00800           0
      1633 MEMB     19       CHL1     H21B     HAL3     0.900000E-01   1.00800           0
      1634 MEMB     19       CHL1     H21C     HAL3     0.900000E-01   1.00800           0
      1635 MEMB     19       CHL1     C22      CTL2    -0.180000       12.0110           0
      1636 MEMB     19       CHL1     H22A     HAL2     0.900000E-01   1.00800           0
      1637 MEMB     19       CHL1     H22B     HAL2     0.900000E-01   1.00800           0
      1638 MEMB     19       CHL1     C23      CTL2    -0.180000       12.0110           0
      1639 MEMB     19       CHL1     H23A     HAL2     0.900000E-01   1.00800           0
      1640 MEMB     19       CHL1     H23B     HAL2     0.900000E-01   1.00800           0
      1641 MEMB     19       CHL1     C24      CTL2    -0.180000       12.0110           0
      1642 MEMB     19       CHL1     H24A     HAL2     0.900000E-01   1.00800           0
      1643 MEMB     19       CHL1     H24B     HAL2     0.900000E-01   1.00800           0
      1644 MEMB     19       CHL1     C25      CTL1    -0.900000E-01   12.0110           0
      1645 MEMB     19       CHL1     H25      HAL1     0.900000E-01   1.00800           0
      1646 MEMB     19       CHL1     C26      CTL3    -0.270000       12.0110           0
      1647 MEMB     19       CHL1     H26A     HAL3     0.900000E-01   1.00800           0
      1648 MEMB     19       CHL1     H26B     HAL3     0.900000E-01   1.00800           0
      1649 MEMB     19       CHL1     H26C     HAL3     0.900000E-01   1.00800           0
      1650 MEMB     19       CHL1     C27      CTL3    -0.270000       12.0110           0
      1651 MEMB     19       CHL1     H27A     HAL3     0.900000E-01   1.00800           0
      1652 MEMB     19       CHL1     H27B     HAL3     0.900000E-01   1.00800           0
      1653 MEMB     19       CHL1     H27C     HAL3     0.900000E-01   1.00800           0
      1654 MEMB     20       CHL1     C3       CRL1     0.140000       12.0110           0
      1655 MEMB     20       CHL1     H3       HGA1     0.900000E-01   1.00800           0
      1656 MEMB     20       CHL1     O3       OHL     -0.660000       15.9994           0
      1657 MEMB     20       CHL1     H3'      HOL      0.430000       1.00800           0
      1658 MEMB     20       CHL1     C4       CRL2    -0.180000       12.0110           0
      1659 MEMB     20       CHL1     H4A      HGA2     0.900000E-01   1.00800           0
      1660 MEMB     20       CHL1     H4B      HGA2     0.900000E-01   1.00800           0
      1661 MEMB     20       CHL1     C5       CEL1     0.000000       12.0110           0
      1662 MEMB     20       CHL1     C6       CEL1    -0.150000       12.0110           0
      1663 MEMB     20       CHL1     H6       HEL1     0.150000       1.00800           0
      1664 MEMB     20       CHL1     C7       CRL2    -0.180000       12.0110           0
      1665 MEMB     20       CHL1     H7A      HGA2     0.900000E-01   1.00800           0
      1666 MEMB     20       CHL1     H7B      HGA2     0.900000E-01   1.00800           0
      1667 MEMB     20       CHL1     C8       CRL1    -0.900000E-01   12.0110           0
      1668 MEMB     20       CHL1     H8       HGA1     0.900000E-01   1.00800           0
      1669 MEMB     20       CHL1     C14      CRL1    -0.900000E-01   12.0110           0
      1670 MEMB     20       CHL1     H14      HGA1     0.900000E-01   1.00800           0
      1671 MEMB     20       CHL1     C15      CRL2    -0.180000       12.0110           0
      1672 MEMB     20       CHL1     H15A     HGA2     0.900000E-01   1.00800           0
      1673 MEMB     20       CHL1     H15B     HGA2     0.900000E-01   1.00800           0
      1674 MEMB     20       CHL1     C16      CRL2    -0.180000       12.0110           0
      1675 MEMB     20       CHL1     H16A     HGA2     0.900000E-01   1.00800           0
      1676 MEMB     20       CHL1     H16B     HGA2     0.900000E-01   1.00800           0
      1677 MEMB     20       CHL1     C17      CRL1    -0.900000E-01   12.0110           0
      1678 MEMB     20       CHL1     H17      HGA1     0.900000E-01   1.00800           0
      1679 MEMB     20       CHL1     C13      CRL1     0.000000       12.0110           0
      1680 MEMB     20       CHL1     C18      CTL3    -0.270000       12.0110           0
      1681 MEMB     20       CHL1     H18A     HAL3     0.900000E-01   1.00800           0
      1682 MEMB     20       CHL1     H18B     HAL3     0.900000E-01   1.00800           0
      1683 MEMB     20       CHL1     H18C     HAL3     0.900000E-01   1.00800           0
      1684 MEMB     20       CHL1     C12      CRL2    -0.180000       12.0110           0
      1685 MEMB     20       CHL1     H12A     HGA2     0.900000E-01   1.00800           0
      1686 MEMB     20       CHL1     H12B     HGA2     0.900000E-01   1.00800           0
      1687 MEMB     20       CHL1     C11      CRL2    -0.180000       12.0110           0
      1688 MEMB     20       CHL1     H11A     HGA2     0.900000E-01   1.00800           0
      1689 MEMB     20       CHL1     H11B     HGA2     0.900000E-01   1.00800           0
      1690 MEMB     20       CHL1     C9       CRL1    -0.900000E-01   12.0110           0
      1691 MEMB     20       CHL1     H9       HGA1     0.900000E-01   1.00800           0
      1692 MEMB     20       CHL1     C10      CRL1     0.000000       12.0110           0
      1693 MEMB     20       CHL1     C19      CTL3    -0.270000       12.0110           0
      1694 MEMB     20       CHL1     H19A     HAL3     0.900000E-01   1.00800           0
      1695 MEMB     20       CHL1     H19B     HAL3     0.900000E-01   1.00800           0
      1696 MEMB     20       CHL1     H19C     HAL3     0.900000E-01   1.00800           0
      1697 MEMB     20       CHL1     C1       CRL2    -0.180000       12.0110           0
      1698 MEMB     20       CHL1     H1A      HGA2     0.900000E-01   1.00800           0
      1699 MEMB     20       CHL1     H1B      HGA2     0.900000E-01   1.00800           0
      1700 MEMB     20       CHL1     C2       CRL2    -0.180000       12.0110           0
      1701 MEMB     20       CHL1     H2A      HGA2     0.900000E-01   1.00800           0
      1702 MEMB     20       CHL1     H2B      HGA2     0.900000E-01   1.00800           0
      1703 MEMB     20       CHL1     C20      CTL1    -0.900000E-01   12.0110           0
      1704 MEMB     20       CHL1     H20      HAL1     0.900000E-01   1.00800           0
      1705 MEMB     20       CHL1     C21      CTL3    -0.270000       12.0110           0
      1706 MEMB     20       CHL1     H21A     HAL3     0.900000E-01   1.00800           0
      1707 MEMB     20       CHL1     H21B     HAL3     0.900000E-01   1.00800           0
      1708 MEMB     20       CHL1     H21C     HAL3     0.900000E-01   1.00800           0
      1709 MEMB     20       CHL1     C22      CTL2    -0.180000       12.0110           0
      1710 MEMB     20       CHL1     H22A     HAL2     0.900000E-01   1.00800           0
      1711 MEMB     20       CHL1     H22B     HAL2     0.900000E-01   1.00800           0
      1712 MEMB     20       CHL1     C23      CTL2    -0.180000       12.0110           0
      1713 MEMB     20       CHL1     H23A     HAL2     0.900000E-01   1.00800           0
      1714 MEMB     20       CHL1     H23B     HAL2     0.900000E-01   1.00800           0
      1715 MEMB     20       CHL1     C24      CTL2    -0.180000       12.0110           0
      1716 MEMB     20       CHL1     H24A     HAL2     0.900000E-01   1.00800           0
      1717 MEMB     20       CHL1     H24B     HAL2     0.900000E-01   1.00800           0
      1718 MEMB     20       CHL1     C25      CTL1    -0.900000E-01   12.0110           0
      1719 MEMB     20       CHL1     H25      HAL1     0.900000E-01   1.00800           0
      1720 MEMB     20       CHL1     C26      CTL3    -0.270000       12.0110           0
      1721 MEMB     20       CHL1     H26A     HAL3     0.900000E-01   1.00800           0
      1722 MEMB     20       CHL1     H26B     HAL3     0.900000E-01   1.00800           0
      1723 MEMB     20       CHL1     H26C     HAL3     0.900000E-01   1.00800           0
      1724 MEMB     20       CHL1     C27      CTL3    -0.270000       12.0110           0
      1725 MEMB     20       CHL1     H27A     HAL3     0.900000E-01   1.00800           0
      1726 MEMB     20       CHL1     H27B     HAL3     0.900000E-01   1.00800           0
      1727 MEMB     20       CHL1     H27C     HAL3     0.900000E-01   1.00800           0
      1728 MEMB     21       CHL1     C3       CRL1     0.140000       12.0110           0
      1729 MEMB     21       CHL1     H3       HGA1     0.900000E-01   1.00800           0
      1730 MEMB     21       CHL1     O3       OHL     -0.660000       15.9994           0
      1731 MEMB     21       CHL1     H3'      HOL      0.430000       1.00800           0
      1732 MEMB     21       CHL1     C4       CRL2    -0.180000       12.0110           0
      1733 MEMB     21       CHL1     H4A      HGA2     0.900000E-01   1.00800           0
      1734 MEMB     21       CHL1     H4B      HGA2     0.900000E-01   1.00800           0
      1735 MEMB     21       CHL1     C5       CEL1     0.000000       12.0110           0
      1736 MEMB     21       CHL1     C6       CEL1    -0.150000       12.0110           0
      1737 MEMB     21       CHL1     H6       HEL1     0.150000       1.00800           0
      1738 MEMB     21       CHL1     C7       CRL2    -0.180000       12.0110           0
      1739 MEMB     21       CHL1     H7A      HGA2     0.900000E-01   1.00800           0
      1740 MEMB     21       CHL1     H7B      HGA2     0.900000E-01   1.00800           0
      1741 MEMB     21       CHL1     C8       CRL1    -0.900000E-01   12.0110           0
      1742 MEMB     21       CHL1     H8       HGA1     0.900000E-01   1.00800           0
      1743 MEMB     21       CHL1     C14      CRL1    -0.900000E-01   12.0110           0
      1744 MEMB     21       CHL1     H14      HGA1     0.900000E-01   1.00800           0
      1745 MEMB     21       CHL1     C15      CRL2    -0.180000       12.0110           0
      1746 MEMB     21       CHL1     H15A     HGA2     0.900000E-01   1.00800           0
      1747 MEMB     21       CHL1     H15B     HGA2     0.900000E-01   1.00800           0
      1748 MEMB     21       CHL1     C16      CRL2    -0.180000       12.0110           0
      1749 MEMB     21       CHL1     H16A     HGA2     0.900000E-01   1.00800           0
      1750 MEMB     21       CHL1     H16B     HGA2     0.900000E-01   1.00800           0
      1751 MEMB     21       CHL1     C17      CRL1    -0.900000E-01   12.0110           0
      1752 MEMB     21       CHL1     H17      HGA1     0.900000E-01   1.00800           0
      1753 MEMB     21       CHL1     C13      CRL1     0.000000       12.0110           0
      1754 MEMB     21       CHL1     C18      CTL3    -0.270000       12.0110           0
      1755 MEMB     21       CHL1     H18A     HAL3     0.900000E-01   1.00800           0
      1756 MEMB     21       CHL1     H18B     HAL3     0.900000E-01   1.00800           0
      1757 MEMB     21       CHL1     H18C     HAL3     0.900000E-01   1.00800           0
      1758 MEMB     21       CHL1     C12      CRL2    -0.180000       12.0110           0
      1759 MEMB     21       CHL1     H12A     HGA2     0.900000E-01   1.00800           0
      1760 MEMB     21       CHL1     H12B     HGA2     0.900000E-01   1.00800           0
      1761 MEMB     21       CHL1     C11      CRL2    -0.180000       12.0110           0
      1762 MEMB     21       CHL1     H11A     HGA2     0.900000E-01   1.00800           0
      1763 MEMB     21       CHL1     H11B     HGA2     0.900000E-01   1.00800           0
      1764 MEMB     21       CHL1     C9       CRL1    -0.900000E-01   12.0110           0
      1765 MEMB     21       CHL1     H9       HGA1     0.900000E-01   1.00800           0
      1766 MEMB     21       CHL1     C10      CRL1     0.000000       12.0110           0
      1767 MEMB     21       CHL1     C19      CTL3    -0.270000       12.0110           0
      1768 MEMB     21       CHL1     H19A     HAL3     0.900000E-01   1.00800           0
      1769 MEMB     21       CHL1     H19B     HAL3     0.900000E-01   1.00800           0
      1770 MEMB     21       CHL1     H19C     HAL3     0.900000E-01   1.00800           0
      1771 MEMB     21       CHL1     C1       CRL2    -0.180000       12.0110           0
      1772 MEMB     21       CHL1     H1A      HGA2     0.900000E-01   1.00800           0
      1773 MEMB     21       CHL1     H1B      HGA2     0.900000E-01   1.00800           0
      1774 MEMB     21       CHL1     C2       CRL2    -0.180000       12.0110           0
      1775 MEMB     21       CHL1     H2A      HGA2     0.900000E-01   1.00800           0
      1776 MEMB     21       CHL1     H2B      HGA2     0.900000E-01   1.00800           0
      1777 MEMB     21       CHL1     C20      CTL1    -0.900000E-01   12.0110           0
      1778 MEMB     21       CHL1     H20      HAL1     0.900000E-01   1.00800           0
      1779 MEMB     21       CHL1     C21      CTL3    -0.270000       12.0110           0
      1780 MEMB     21       CHL1     H21A     HAL3     0.900000E-01   1.00800           0
      1781 MEMB     21       CHL1     H21B     HAL3     0.900000E-01   1.00800           0
      1782 MEMB     21       CHL1     H21C     HAL3     0.900000E-01   1.00800           0
      1783 MEMB     21       CHL1     C22      CTL2    -0.180000       12.0110           0
      1784 MEMB     21       CHL1     H22A     HAL2     0.900000E-01   1.00800           0
      1785 MEMB     21       CHL1     H22B     HAL2     0.900000E-01   1.00800           0
      1786 MEMB     21       CHL1     C23      CTL2    -0.180000       12.0110           0
      1787 MEMB     21       CHL1     H23A     HAL2     0.900000E-01   1.00800           0
      1788 MEMB     21       CHL1     H23B     HAL2     0.900000E-01   1.00800           0
      1789 MEMB     21       CHL1     C24      CTL2    -0.180000       12.0110           0
      1790 MEMB     21       CHL1     H24A     HAL2     0.900000E-01   1.00800           0
      1791 MEMB     21       CHL1     H24B     HAL2     0.900000E-01   1.00800           0
      1792 MEMB     21       CHL1     C25      CTL1    -0.900000E-01   12.0110           0
      1793 MEMB     21       CHL1     H25      HAL1     0.900000E-01   1.00800           0
      1794 MEMB     21       CHL1     C26      CTL3    -0.270000       12.0110           0
      1795 MEMB     21       CHL1     H26A     HAL3     0.900000E-01   1.00800           0
      1796 MEMB     21       CHL1     H26B     HAL3     0.900000E-01   1.00800           0
      1797 MEMB     21       CHL1     H26C     HAL3     0.900000E-01   1.00800           0
      1798 MEMB     21       CHL1     C27      CTL3    -0.270000       12.0110           0
      1799 MEMB     21       CHL1     H27A     HAL3     0.900000E-01   1.00800           0
      1800 MEMB     21       CHL1     H27B     HAL3     0.900000E-01   1.00800           0
      1801 MEMB     21       CHL1     H27C     HAL3     0.900000E-01   1.00800           0
      1802 MEMB     22       PSM      N        NTL     -0.600000       14.0070           0
      1803 MEMB     22       PSM      C15      CTL5    -0.350000       12.0110           0
      1804 MEMB     22       PSM      H15A     HL       0.250000       1.00800           0
      1805 MEMB     22       PSM      H15B     HL       0.250000       1.00800           0
      1806 MEMB     22       PSM      H15C     HL       0.250000       1.00800           0
      1807 MEMB     22       PSM      C14      CTL5    -0.350000       12.0110           0
      1808 MEMB     22       PSM      H14A     HL       0.250000       1.00800           0
      1809 MEMB     22       PSM      H14B     HL       0.250000       1.00800           0
      1810 MEMB     22       PSM      H14C     HL       0.250000       1.00800           0
      1811 MEMB     22       PSM      C13      CTL5    -0.350000       12.0110           0
      1812 MEMB     22       PSM      H13A     HL       0.250000       1.00800           0
      1813 MEMB     22       PSM      H13B     HL       0.250000       1.00800           0
      1814 MEMB     22       PSM      H13C     HL       0.250000       1.00800           0
      1815 MEMB     22       PSM      C12      CTL2    -0.100000       12.0110           0
      1816 MEMB     22       PSM      H12A     HL       0.250000       1.00800           0
      1817 MEMB     22       PSM      H12B     HL       0.250000       1.00800           0
      1818 MEMB     22       PSM      C11      CTL2    -0.800000E-01   12.0110           0
      1819 MEMB     22       PSM      H11A     HAL2     0.900000E-01   1.00800           0
      1820 MEMB     22       PSM      H11B     HAL2     0.900000E-01   1.00800           0
      1821 MEMB     22       PSM      P        PL       1.500000       30.9740           0
      1822 MEMB     22       PSM      O13      O2L     -0.780000       15.9994           0
      1823 MEMB     22       PSM      O14      O2L     -0.780000       15.9994           0
      1824 MEMB     22       PSM      O11      OSLP    -0.570000       15.9994           0
      1825 MEMB     22       PSM      O12      OSLP    -0.570000       15.9994           0
      1826 MEMB     22       PSM      C1S      CTL2    -0.800000E-01   12.0110           0
      1827 MEMB     22       PSM      H1S      HAL2     0.900000E-01   1.00800           0
      1828 MEMB     22       PSM      H1T      HAL2     0.900000E-01   1.00800           0
      1829 MEMB     22       PSM      NF       NHL     -0.700000       14.0070           0
      1830 MEMB     22       PSM      HNF      H        0.350000       1.00800           0
      1831 MEMB     22       PSM      C2S      CTL1     0.300000       12.0110           0
      1832 MEMB     22       PSM      H2S      HAL1     0.500000E-01   1.00800           0
      1833 MEMB     22       PSM      C3S      CTO1     0.500000       12.0110           0
      1834 MEMB     22       PSM      H3S      HAL1    -0.110000       1.00800           0
      1835 MEMB     22       PSM      O3       OHL     -0.690000       15.9994           0
      1836 MEMB     22       PSM      HO3      HOL      0.300000       1.00800           0
      1837 MEMB     22       PSM      C4S      CEL3    -0.150000       12.0110           0
      1838 MEMB     22       PSM      H4S      HEL1     0.150000       1.00800           0
      1839 MEMB     22       PSM      C5S      CEL3    -0.150000       12.0110           0
      1840 MEMB     22       PSM      H5S      HEL1     0.150000       1.00800           0
      1841 MEMB     22       PSM      C6S      CTL2    -0.180000       12.0110           0
      1842 MEMB     22       PSM      H6S      HAL2     0.900000E-01   1.00800           0
      1843 MEMB     22       PSM      H6T      HAL2     0.900000E-01   1.00800           0
      1844 MEMB     22       PSM      C7S      CTL2    -0.180000       12.0110           0
      1845 MEMB     22       PSM      H7S      HAL2     0.900000E-01   1.00800           0
      1846 MEMB     22       PSM      H7T      HAL2     0.900000E-01   1.00800           0
      1847 MEMB     22       PSM      C8S      CTL2    -0.180000       12.0110           0
      1848 MEMB     22       PSM      H8S      HAL2     0.900000E-01   1.00800           0
      1849 MEMB     22       PSM      H8T      HAL2     0.900000E-01   1.00800           0
      1850 MEMB     22       PSM      C9S      CTL2    -0.180000       12.0110           0
      1851 MEMB     22       PSM      H9S      HAL2     0.900000E-01   1.00800           0
      1852 MEMB     22       PSM      H9T      HAL2     0.900000E-01   1.00800           0
      1853 MEMB     22       PSM      C10S     CTL2    -0.180000       12.0110           0
      1854 MEMB     22       PSM      H10S     HAL2     0.900000E-01   1.00800           0
      1855 MEMB     22       PSM      H10T     HAL2     0.900000E-01   1.00800           0
      1856 MEMB     22       PSM      C11S     CTL2    -0.180000       12.0110           0
      1857 MEMB     22       PSM      H11S     HAL2     0.900000E-01   1.00800           0
      1858 MEMB     22       PSM      H11T     HAL2     0.900000E-01   1.00800           0
      1859 MEMB     22       PSM      C12S     CTL2    -0.180000       12.0110           0
      1860 MEMB     22       PSM      H12S     HAL2     0.900000E-01   1.00800           0
      1861 MEMB     22       PSM      H12T     HAL2     0.900000E-01   1.00800           0
      1862 MEMB     22       PSM      C13S     CTL2    -0.180000       12.0110           0
      1863 MEMB     22       PSM      H13S     HAL2     0.900000E-01   1.00800           0
      1864 MEMB     22       PSM      H13T     HAL2     0.900000E-01   1.00800           0
      1865 MEMB     22       PSM      C14S     CTL2    -0.180000       12.0110           0
      1866 MEMB     22       PSM      H14S     HAL2     0.900000E-01   1.00800           0
      1867 MEMB     22       PSM      H14T     HAL2     0.900000E-01   1.00800           0
      1868 MEMB     22       PSM      C15S     CTL2    -0.180000       12.0110           0
      1869 MEMB     22       PSM      H15S     HAL2     0.900000E-01   1.00800           0
      1870 MEMB     22       PSM      H15T     HAL2     0.900000E-01   1.00800           0
      1871 MEMB     22       PSM      C16S     CTL2    -0.180000       12.0110           0
      1872 MEMB     22       PSM      H16S     HAL2     0.900000E-01   1.00800           0
      1873 MEMB     22       PSM      H16T     HAL2     0.900000E-01   1.00800           0
      1874 MEMB     22       PSM      C17S     CTL2    -0.180000       12.0110           0
      1875 MEMB     22       PSM      H17S     HAL2     0.900000E-01   1.00800           0
      1876 MEMB     22       PSM      H17T     HAL2     0.900000E-01   1.00800           0
      1877 MEMB     22       PSM      C18S     CTL3    -0.270000       12.0110           0
      1878 MEMB     22       PSM      H18S     HAL3     0.900000E-01   1.00800           0
      1879 MEMB     22       PSM      H18T     HAL3     0.900000E-01   1.00800           0
      1880 MEMB     22       PSM      H18U     HAL3     0.900000E-01   1.00800           0
      1881 MEMB     22       PSM      C1F      C        0.550000       12.0110           0
      1882 MEMB     22       PSM      OF       O       -0.600000       15.9994           0
      1883 MEMB     22       PSM      C2F      CTL2    -0.700000E-01   12.0110           0
      1884 MEMB     22       PSM      H2F      HAL2     0.600000E-01   1.00800           0
      1885 MEMB     22       PSM      H2G      HAL2     0.600000E-01   1.00800           0
      1886 MEMB     22       PSM      C3F      CTL2    -0.180000       12.0110           0
      1887 MEMB     22       PSM      H3F      HAL2     0.900000E-01   1.00800           0
      1888 MEMB     22       PSM      H3G      HAL2     0.900000E-01   1.00800           0
      1889 MEMB     22       PSM      C4F      CTL2    -0.180000       12.0110           0
      1890 MEMB     22       PSM      H4F      HAL2     0.900000E-01   1.00800           0
      1891 MEMB     22       PSM      H4G      HAL2     0.900000E-01   1.00800           0
      1892 MEMB     22       PSM      C5F      CTL2    -0.180000       12.0110           0
      1893 MEMB     22       PSM      H5F      HAL2     0.900000E-01   1.00800           0
      1894 MEMB     22       PSM      H5G      HAL2     0.900000E-01   1.00800           0
      1895 MEMB     22       PSM      C6F      CTL2    -0.180000       12.0110           0
      1896 MEMB     22       PSM      H6F      HAL2     0.900000E-01   1.00800           0
      1897 MEMB     22       PSM      H6G      HAL2     0.900000E-01   1.00800           0
      1898 MEMB     22       PSM      C7F      CTL2    -0.180000       12.0110           0
      1899 MEMB     22       PSM      H7F      HAL2     0.900000E-01   1.00800           0
      1900 MEMB     22       PSM      H7G      HAL2     0.900000E-01   1.00800           0
      1901 MEMB     22       PSM      C8F      CTL2    -0.180000       12.0110           0
      1902 MEMB     22       PSM      H8F      HAL2     0.900000E-01   1.00800           0
      1903 MEMB     22       PSM      H8G      HAL2     0.900000E-01   1.00800           0
      1904 MEMB     22       PSM      C9F      CTL2    -0.180000       12.0110           0
      1905 MEMB     22       PSM      H9F      HAL2     0.900000E-01   1.00800           0
      1906 MEMB     22       PSM      H9G      HAL2     0.900000E-01   1.00800           0
      1907 MEMB     22       PSM      C10F     CTL2    -0.180000       12.0110           0
      1908 MEMB     22       PSM      H10F     HAL2     0.900000E-01   1.00800           0
      1909 MEMB     22       PSM      H10G     HAL2     0.900000E-01   1.00800           0
      1910 MEMB     22       PSM      C11F     CTL2    -0.180000       12.0110           0
      1911 MEMB     22       PSM      H11F     HAL2     0.900000E-01   1.00800           0
      1912 MEMB     22       PSM      H11G     HAL2     0.900000E-01   1.00800           0
      1913 MEMB     22       PSM      C12F     CTL2    -0.180000       12.0110           0
      1914 MEMB     22       PSM      H12F     HAL2     0.900000E-01   1.00800           0
      1915 MEMB     22       PSM      H12G     HAL2     0.900000E-01   1.00800           0
      1916 MEMB     22       PSM      C13F     CTL2    -0.180000       12.0110           0
      1917 MEMB     22       PSM      H13F     HAL2     0.900000E-01   1.00800           0
      1918 MEMB     22       PSM      H13G     HAL2     0.900000E-01   1.00800           0
      1919 MEMB     22       PSM      C14F     CTL2    -0.180000       12.0110           0
      1920 MEMB     22       PSM      H14F     HAL2     0.900000E-01   1.00800           0
      1921 MEMB     22       PSM      H14G     HAL2     0.900000E-01   1.00800           0
      1922 MEMB     22       PSM      C15F     CTL2    -0.180000       12.0110           0
      1923 MEMB     22       PSM      H15F     HAL2     0.900000E-01   1.00800           0
      1924 MEMB     22       PSM      H15G     HAL2     0.900000E-01   1.00800           0
      1925 MEMB     22       PSM      C16F     CTL3    -0.270000       12.0110           0
      1926 MEMB     22       PSM      H16F     HAL3     0.900000E-01   1.00800           0
      1927 MEMB     22       PSM      H16G     HAL3     0.900000E-01   1.00800           0
      1928 MEMB     22       PSM      H16H     HAL3     0.900000E-01   1.00800           0
      1929 MEMB     23       POPC     N        NTL     -0.600000       14.0070           0
      1930 MEMB     23       POPC     C12      CTL2    -0.100000       12.0110           0
      1931 MEMB     23       POPC     H12A     HL       0.250000       1.00800           0
      1932 MEMB     23       POPC     H12B     HL       0.250000       1.00800           0
      1933 MEMB     23       POPC     C13      CTL5    -0.350000       12.0110           0
      1934 MEMB     23       POPC     H13A     HL       0.250000       1.00800           0
      1935 MEMB     23       POPC     H13B     HL       0.250000       1.00800           0
      1936 MEMB     23       POPC     H13C     HL       0.250000       1.00800           0
      1937 MEMB     23       POPC     C14      CTL5    -0.350000       12.0110           0
      1938 MEMB     23       POPC     H14A     HL       0.250000       1.00800           0
      1939 MEMB     23       POPC     H14B     HL       0.250000       1.00800           0
      1940 MEMB     23       POPC     H14C     HL       0.250000       1.00800           0
      1941 MEMB     23       POPC     C15      CTL5    -0.350000       12.0110           0
      1942 MEMB     23       POPC     H15A     HL       0.250000       1.00800           0
      1943 MEMB     23       POPC     H15B     HL       0.250000       1.00800           0
      1944 MEMB     23       POPC     H15C     HL       0.250000       1.00800           0
      1945 MEMB     23       POPC     C11      CTL2    -0.800000E-01   12.0110           0
      1946 MEMB     23       POPC     H11A     HAL2     0.900000E-01   1.00800           0
      1947 MEMB     23       POPC     H11B     HAL2     0.900000E-01   1.00800           0
      1948 MEMB     23       POPC     P        PL       1.500000       30.9740           0
      1949 MEMB     23       POPC     O13      O2L     -0.780000       15.9994           0
      1950 MEMB     23       POPC     O14      O2L     -0.780000       15.9994           0
      1951 MEMB     23       POPC     O12      OSLP    -0.570000       15.9994           0
      1952 MEMB     23       POPC     O11      OSLP    -0.570000       15.9994           0
      1953 MEMB     23       POPC     C1       CTL2    -0.800000E-01   12.0110           0
      1954 MEMB     23       POPC     HA       HAL2     0.900000E-01   1.00800           0
      1955 MEMB     23       POPC     HB       HAL2     0.900000E-01   1.00800           0
      1956 MEMB     23       POPC     C2       CTL1     0.170000       12.0110           0
      1957 MEMB     23       POPC     HS       HAL1     0.900000E-01   1.00800           0
      1958 MEMB     23       POPC     O21      OSL     -0.490000       15.9994           0
      1959 MEMB     23       POPC     C21      CL       0.900000       12.0110           0
      1960 MEMB     23       POPC     O22      OBL     -0.630000       15.9994           0
      1961 MEMB     23       POPC     C22      CTL2    -0.220000       12.0110           0
      1962 MEMB     23       POPC     H2R      HAL2     0.900000E-01   1.00800           0
      1963 MEMB     23       POPC     H2S      HAL2     0.900000E-01   1.00800           0
      1964 MEMB     23       POPC     C3       CTL2     0.800000E-01   12.0110           0
      1965 MEMB     23       POPC     HX       HAL2     0.900000E-01   1.00800           0
      1966 MEMB     23       POPC     HY       HAL2     0.900000E-01   1.00800           0
      1967 MEMB     23       POPC     O31      OSL     -0.490000       15.9994           0
      1968 MEMB     23       POPC     C31      CL       0.900000       12.0110           0
      1969 MEMB     23       POPC     O32      OBL     -0.630000       15.9994           0
      1970 MEMB     23       POPC     C32      CTL2    -0.220000       12.0110           0
      1971 MEMB     23       POPC     H2X      HAL2     0.900000E-01   1.00800           0
      1972 MEMB     23       POPC     H2Y      HAL2     0.900000E-01   1.00800           0
      1973 MEMB     23       POPC     C23      CTL2    -0.180000       12.0110           0
      1974 MEMB     23       POPC     H3R      HAL2     0.900000E-01   1.00800           0
      1975 MEMB     23       POPC     H3S      HAL2     0.900000E-01   1.00800           0
      1976 MEMB     23       POPC     C24      CTL2    -0.180000       12.0110           0
      1977 MEMB     23       POPC     H4R      HAL2     0.900000E-01   1.00800           0
      1978 MEMB     23       POPC     H4S      HAL2     0.900000E-01   1.00800           0
      1979 MEMB     23       POPC     C25      CTL2    -0.180000       12.0110           0
      1980 MEMB     23       POPC     H5R      HAL2     0.900000E-01   1.00800           0
      1981 MEMB     23       POPC     H5S      HAL2     0.900000E-01   1.00800           0
      1982 MEMB     23       POPC     C26      CTL2    -0.180000       12.0110           0
      1983 MEMB     23       POPC     H6R      HAL2     0.900000E-01   1.00800           0
      1984 MEMB     23       POPC     H6S      HAL2     0.900000E-01   1.00800           0
      1985 MEMB     23       POPC     C27      CTL2    -0.180000       12.0110           0
      1986 MEMB     23       POPC     H7R      HAL2     0.900000E-01   1.00800           0
      1987 MEMB     23       POPC     H7S      HAL2     0.900000E-01   1.00800           0
      1988 MEMB     23       POPC     C28      CTL2    -0.180000       12.0110           0
      1989 MEMB     23       POPC     H8R      HAL2     0.900000E-01   1.00800           0
      1990 MEMB     23       POPC     H8S      HAL2     0.900000E-01   1.00800           0
      1991 MEMB     23       POPC     C29      CEL1    -0.150000       12.0110           0
      1992 MEMB     23       POPC     H91      HEL1     0.150000       1.00800           0
      1993 MEMB     23       POPC     C210     CEL1    -0.150000       12.0110           0
      1994 MEMB     23       POPC     H101     HEL1     0.150000       1.00800           0
      1995 MEMB     23       POPC     C211     CTL2    -0.180000       12.0110           0
      1996 MEMB     23       POPC     H11R     HAL2     0.900000E-01   1.00800           0
      1997 MEMB     23       POPC     H11S     HAL2     0.900000E-01   1.00800           0
      1998 MEMB     23       POPC     C212     CTL2    -0.180000       12.0110           0
      1999 MEMB     23       POPC     H12R     HAL2     0.900000E-01   1.00800           0
      2000 MEMB     23       POPC     H12S     HAL2     0.900000E-01   1.00800           0
      2001 MEMB     23       POPC     C213     CTL2    -0.180000       12.0110           0
      2002 MEMB     23       POPC     H13R     HAL2     0.900000E-01   1.00800           0
      2003 MEMB     23       POPC     H13S     HAL2     0.900000E-01   1.00800           0
      2004 MEMB     23       POPC     C214     CTL2    -0.180000       12.0110           0
      2005 MEMB     23       POPC     H14R     HAL2     0.900000E-01   1.00800           0
      2006 MEMB     23       POPC     H14S     HAL2     0.900000E-01   1.00800           0
      2007 MEMB     23       POPC     C215     CTL2    -0.180000       12.0110           0
      2008 MEMB     23       POPC     H15R     HAL2     0.900000E-01   1.00800           0
      2009 MEMB     23       POPC     H15S     HAL2     0.900000E-01   1.00800           0
      2010 MEMB     23       POPC     C216     CTL2    -0.180000       12.0110           0
      2011 MEMB     23       POPC     H16R     HAL2     0.900000E-01   1.00800           0
      2012 MEMB     23       POPC     H16S     HAL2     0.900000E-01   1.00800           0
      2013 MEMB     23       POPC     C217     CTL2    -0.180000       12.0110           0
      2014 MEMB     23       POPC     H17R     HAL2     0.900000E-01   1.00800           0
      2015 MEMB     23       POPC     H17S     HAL2     0.900000E-01   1.00800           0
      2016 MEMB     23       POPC     C218     CTL3    -0.270000       12.0110           0
      2017 MEMB     23       POPC     H18R     HAL3     0.900000E-01   1.00800           0
      2018 MEMB     23       POPC     H18S     HAL3     0.900000E-01   1.00800           0
      2019 MEMB     23       POPC     H18T     HAL3     0.900000E-01   1.00800           0
      2020 MEMB     23       POPC     C33      CTL2    -0.180000       12.0110           0
      2021 MEMB     23       POPC     H3X      HAL2     0.900000E-01   1.00800           0
      2022 MEMB     23       POPC     H3Y      HAL2     0.900000E-01   1.00800           0
      2023 MEMB     23       POPC     C34      CTL2    -0.180000       12.0110           0
      2024 MEMB     23       POPC     H4X      HAL2     0.900000E-01   1.00800           0
      2025 MEMB     23       POPC     H4Y      HAL2     0.900000E-01   1.00800           0
      2026 MEMB     23       POPC     C35      CTL2    -0.180000       12.0110           0
      2027 MEMB     23       POPC     H5X      HAL2     0.900000E-01   1.00800           0
      2028 MEMB     23       POPC     H5Y      HAL2     0.900000E-01   1.00800           0
      2029 MEMB     23       POPC     C36      CTL2    -0.180000       12.0110           0
      2030 MEMB     23       POPC     H6X      HAL2     0.900000E-01   1.00800           0
      2031 MEMB     23       POPC     H6Y      HAL2     0.900000E-01   1.00800           0
      2032 MEMB     23       POPC     C37      CTL2    -0.180000       12.0110           0
      2033 MEMB     23       POPC     H7X      HAL2     0.900000E-01   1.00800           0
      2034 MEMB     23       POPC     H7Y      HAL2     0.900000E-01   1.00800           0
      2035 MEMB     23       POPC     C38      CTL2    -0.180000       12.0110           0
      2036 MEMB     23       POPC     H8X      HAL2     0.900000E-01   1.00800           0
      2037 MEMB     23       POPC     H8Y      HAL2     0.900000E-01   1.00800           0
      2038 MEMB     23       POPC     C39      CTL2    -0.180000       12.0110           0
      2039 MEMB     23       POPC     H9X      HAL2     0.900000E-01   1.00800           0
      2040 MEMB     23       POPC     H9Y      HAL2     0.900000E-01   1.00800           0
      2041 MEMB     23       POPC     C310     CTL2    -0.180000       12.0110           0
      2042 MEMB     23       POPC     H10X     HAL2     0.900000E-01   1.00800           0
      2043 MEMB     23       POPC     H10Y     HAL2     0.900000E-01   1.00800           0
      2044 MEMB     23       POPC     C311     CTL2    -0.180000       12.0110           0
      2045 MEMB     23       POPC     H11X     HAL2     0.900000E-01   1.00800           0
      2046 MEMB     23       POPC     H11Y     HAL2     0.900000E-01   1.00800           0
      2047 MEMB     23       POPC     C312     CTL2    -0.180000       12.0110           0
      2048 MEMB     23       POPC     H12X     HAL2     0.900000E-01   1.00800           0
      2049 MEMB     23       POPC     H12Y     HAL2     0.900000E-01   1.00800           0
      2050 MEMB     23       POPC     C313     CTL2    -0.180000       12.0110           0
      2051 MEMB     23       POPC     H13X     HAL2     0.900000E-01   1.00800           0
      2052 MEMB     23       POPC     H13Y     HAL2     0.900000E-01   1.00800           0
      2053 MEMB     23       POPC     C314     CTL2    -0.180000       12.0110           0
      2054 MEMB     23       POPC     H14X     HAL2     0.900000E-01   1.00800           0
      2055 MEMB     23       POPC     H14Y     HAL2     0.900000E-01   1.00800           0
      2056 MEMB     23       POPC     C315     CTL2    -0.180000       12.0110           0
      2057 MEMB     23       POPC     H15X     HAL2     0.900000E-01   1.00800           0
      2058 MEMB     23       POPC     H15Y     HAL2     0.900000E-01   1.00800           0
      2059 MEMB     23       POPC     C316     CTL3    -0.270000       12.0110           0
      2060 MEMB     23       POPC     H16X     HAL3     0.900000E-01   1.00800           0
      2061 MEMB     23       POPC     H16Y     HAL3     0.900000E-01   1.00800           0
      2062 MEMB     23       POPC     H16Z     HAL3     0.900000E-01   1.00800           0
      2063 MEMB     24       POPS     N        NH3L    -0.300000       14.0070           0
      2064 MEMB     24       POPS     HN1      HCL      0.330000       1.00800           0
      2065 MEMB     24       POPS     HN2      HCL      0.330000       1.00800           0
      2066 MEMB     24       POPS     HN3      HCL      0.330000       1.00800           0
      2067 MEMB     24       POPS     C12      CTL1     0.210000       12.0110           0
      2068 MEMB     24       POPS     H12A     HBL      0.100000       1.00800           0
      2069 MEMB     24       POPS     C13      CCL      0.340000       12.0110           0
      2070 MEMB     24       POPS     O13A     OCL     -0.670000       15.9994           0
      2071 MEMB     24       POPS     O13B     OCL     -0.670000       15.9994           0
      2072 MEMB     24       POPS     C11      CTL2    -0.800000E-01   12.0110           0
      2073 MEMB     24       POPS     H11A     HAL2     0.900000E-01   1.00800           0
      2074 MEMB     24       POPS     H11B     HAL2     0.900000E-01   1.00800           0
      2075 MEMB     24       POPS     P        PL       1.500000       30.9740           0
      2076 MEMB     24       POPS     O13      O2L     -0.780000       15.9994           0
      2077 MEMB     24       POPS     O14      O2L     -0.780000       15.9994           0
      2078 MEMB     24       POPS     O12      OSLP    -0.570000       15.9994           0
      2079 MEMB     24       POPS     O11      OSLP    -0.570000       15.9994           0
      2080 MEMB     24       POPS     C1       CTL2    -0.800000E-01   12.0110           0
      2081 MEMB     24       POPS     HA       HAL2     0.900000E-01   1.00800           0
      2082 MEMB     24       POPS     HB       HAL2     0.900000E-01   1.00800           0
      2083 MEMB     24       POPS     C2       CTL1     0.170000       12.0110           0
      2084 MEMB     24       POPS     HS       HAL1     0.900000E-01   1.00800           0
      2085 MEMB     24       POPS     O21      OSL     -0.490000       15.9994           0
      2086 MEMB     24       POPS     C21      CL       0.900000       12.0110           0
      2087 MEMB     24       POPS     O22      OBL     -0.630000       15.9994           0
      2088 MEMB     24       POPS     C22      CTL2    -0.220000       12.0110           0
      2089 MEMB     24       POPS     H2R      HAL2     0.900000E-01   1.00800           0
      2090 MEMB     24       POPS     H2S      HAL2     0.900000E-01   1.00800           0
      2091 MEMB     24       POPS     C3       CTL2     0.800000E-01   12.0110           0
      2092 MEMB     24       POPS     HX       HAL2     0.900000E-01   1.00800           0
      2093 MEMB     24       POPS     HY       HAL2     0.900000E-01   1.00800           0
      2094 MEMB     24       POPS     O31      OSL     -0.490000       15.9994           0
      2095 MEMB     24       POPS     C31      CL       0.900000       12.0110           0
      2096 MEMB     24       POPS     O32      OBL     -0.630000       15.9994           0
      2097 MEMB     24       POPS     C32      CTL2    -0.220000       12.0110           0
      2098 MEMB     24       POPS     H2X      HAL2     0.900000E-01   1.00800           0
      2099 MEMB     24       POPS     H2Y      HAL2     0.900000E-01   1.00800           0
      2100 MEMB     24       POPS     C23      CTL2    -0.180000       12.0110           0
      2101 MEMB     24       POPS     H3R      HAL2     0.900000E-01   1.00800           0
      2102 MEMB     24       POPS     H3S      HAL2     0.900000E-01   1.00800           0
      2103 MEMB     24       POPS     C24      CTL2    -0.180000       12.0110           0
      2104 MEMB     24       POPS     H4R      HAL2     0.900000E-01   1.00800           0
      2105 MEMB     24       POPS     H4S      HAL2     0.900000E-01   1.00800           0
      2106 MEMB     24       POPS     C25      CTL2    -0.180000       12.0110           0
      2107 MEMB     24       POPS     H5R      HAL2     0.900000E-01   1.00800           0
      2108 MEMB     24       POPS     H5S      HAL2     0.900000E-01   1.00800           0
      2109 MEMB     24       POPS     C26      CTL2    -0.180000       12.0110           0
      2110 MEMB     24       POPS     H6R      HAL2     0.900000E-01   1.00800           0
      2111 MEMB     24       POPS     H6S      HAL2     0.900000E-01   1.00800           0
      2112 MEMB     24       POPS     C27      CTL2    -0.180000       12.0110           0
      2113 MEMB     24       POPS     H7R      HAL2     0.900000E-01   1.00800           0
      2114 MEMB     24       POPS     H7S      HAL2     0.900000E-01   1.00800           0
      2115 MEMB     24       POPS     C28      CTL2    -0.180000       12.0110           0
      2116 MEMB     24       POPS     H8R      HAL2     0.900000E-01   1.00800           0
      2117 MEMB     24       POPS     H8S      HAL2     0.900000E-01   1.00800           0
      2118 MEMB     24       POPS     C29      CEL1    -0.150000       12.0110           0
      2119 MEMB     24       POPS     H91      HEL1     0.150000       1.00800           0
      2120 MEMB     24       POPS     C210     CEL1    -0.150000       12.0110           0
      2121 MEMB     24       POPS     H101     HEL1     0.150000       1.00800           0
      2122 MEMB     24       POPS     C211     CTL2    -0.180000       12.0110           0
      2123 MEMB     24       POPS     H11R     HAL2     0.900000E-01   1.00800           0
      2124 MEMB     24       POPS     H11S     HAL2     0.900000E-01   1.00800           0
      2125 MEMB     24       POPS     C212     CTL2    -0.180000       12.0110           0
      2126 MEMB     24       POPS     H12R     HAL2     0.900000E-01   1.00800           0
      2127 MEMB     24       POPS     H12S     HAL2     0.900000E-01   1.00800           0
      2128 MEMB     24       POPS     C213     CTL2    -0.180000       12.0110           0
      2129 MEMB     24       POPS     H13R     HAL2     0.900000E-01   1.00800           0
      2130 MEMB     24       POPS     H13S     HAL2     0.900000E-01   1.00800           0
      2131 MEMB     24       POPS     C214     CTL2    -0.180000       12.0110           0
      2132 MEMB     24       POPS     H14R     HAL2     0.900000E-01   1.00800           0
      2133 MEMB     24       POPS     H14S     HAL2     0.900000E-01   1.00800           0
      2134 MEMB     24       POPS     C215     CTL2    -0.180000       12.0110           0
      2135 MEMB     24       POPS     H15R     HAL2     0.900000E-01   1.00800           0
      2136 MEMB     24       POPS     H15S     HAL2     0.900000E-01   1.00800           0
      2137 MEMB     24       POPS     C216     CTL2    -0.180000       12.0110           0
      2138 MEMB     24       POPS     H16R     HAL2     0.900000E-01   1.00800           0
      2139 MEMB     24       POPS     H16S     HAL2     0.900000E-01   1.00800           0
      2140 MEMB     24       POPS     C217     CTL2    -0.180000       12.0110           0
      2141 MEMB     24       POPS     H17R     HAL2     0.900000E-01   1.00800           0
      2142 MEMB     24       POPS     H17S     HAL2     0.900000E-01   1.00800           0
      2143 MEMB     24       POPS     C218     CTL3    -0.270000       12.0110           0
      2144 MEMB     24       POPS     H18R     HAL3     0.900000E-01   1.00800           0
      2145 MEMB     24       POPS     H18S     HAL3     0.900000E-01   1.00800           0
      2146 MEMB     24       POPS     H18T     HAL3     0.900000E-01   1.00800           0
      2147 MEMB     24       POPS     C33      CTL2    -0.180000       12.0110           0
      2148 MEMB     24       POPS     H3X      HAL2     0.900000E-01   1.00800           0
      2149 MEMB     24       POPS     H3Y      HAL2     0.900000E-01   1.00800           0
      2150 MEMB     24       POPS     C34      CTL2    -0.180000       12.0110           0
      2151 MEMB     24       POPS     H4X      HAL2     0.900000E-01   1.00800           0
      2152 MEMB     24       POPS     H4Y      HAL2     0.900000E-01   1.00800           0
      2153 MEMB     24       POPS     C35      CTL2    -0.180000       12.0110           0
      2154 MEMB     24       POPS     H5X      HAL2     0.900000E-01   1.00800           0
      2155 MEMB     24       POPS     H5Y      HAL2     0.900000E-01   1.00800           0
      2156 MEMB     24       POPS     C36      CTL2    -0.180000       12.0110           0
      2157 MEMB     24       POPS     H6X      HAL2     0.900000E-01   1.00800           0
      2158 MEMB     24       POPS     H6Y      HAL2     0.900000E-01   1.00800           0
      2159 MEMB     24       POPS     C37      CTL2    -0.180000       12.0110           0
      2160 MEMB     24       POPS     H7X      HAL2     0.900000E-01   1.00800           0
      2161 MEMB     24       POPS     H7Y      HAL2     0.900000E-01   1.00800           0
      2162 MEMB     24       POPS     C38      CTL2    -0.180000       12.0110           0
      2163 MEMB     24       POPS     H8X      HAL2     0.900000E-01   1.00800           0
      2164 MEMB     24       POPS     H8Y      HAL2     0.900000E-01   1.00800           0
      2165 MEMB     24       POPS     C39      CTL2    -0.180000       12.0110           0
      2166 MEMB     24       POPS     H9X      HAL2     0.900000E-01   1.00800           0
      2167 MEMB     24       POPS     H9Y      HAL2     0.900000E-01   1.00800           0
      2168 MEMB     24       POPS     C310     CTL2    -0.180000       12.0110           0
      2169 MEMB     24       POPS     H10X     HAL2     0.900000E-01   1.00800           0
      2170 MEMB     24       POPS     H10Y     HAL2     0.900000E-01   1.00800           0
      2171 MEMB     24       POPS     C311     CTL2    -0.180000       12.0110           0
      2172 MEMB     24       POPS     H11X     HAL2     0.900000E-01   1.00800           0
      2173 MEMB     24       POPS     H11Y     HAL2     0.900000E-01   1.00800           0
      2174 MEMB     24       POPS     C312     CTL2    -0.180000       12.0110           0
      2175 MEMB     24       POPS     H12X     HAL2     0.900000E-01   1.00800           0
      2176 MEMB     24       POPS     H12Y     HAL2     0.900000E-01   1.00800           0
      2177 MEMB     24       POPS     C313     CTL2    -0.180000       12.0110           0
      2178 MEMB     24       POPS     H13X     HAL2     0.900000E-01   1.00800           0
      2179 MEMB     24       POPS     H13Y     HAL2     0.900000E-01   1.00800           0
      2180 MEMB     24       POPS     C314     CTL2    -0.180000       12.0110           0
      2181 MEMB     24       POPS     H14X     HAL2     0.900000E-01   1.00800           0
      2182 MEMB     24       POPS     H14Y     HAL2     0.900000E-01   1.00800           0
      2183 MEMB     24       POPS     C315     CTL2    -0.180000       12.0110           0
      2184 MEMB     24       POPS     H15X     HAL2     0.900000E-01   1.00800           0
      2185 MEMB     24       POPS     H15Y     HAL2     0.900000E-01   1.00800           0
      2186 MEMB     24       POPS     C316     CTL3    -0.270000       12.0110           0
      2187 MEMB     24       POPS     H16X     HAL3     0.900000E-01   1.00800           0
      2188 MEMB     24       POPS     H16Y     HAL3     0.900000E-01   1.00800           0
      2189 MEMB     24       POPS     H16Z     HAL3     0.900000E-01   1.00800           0
      2190 MEMB     25       PSM      N        NTL     -0.600000       14.0070           0
      2191 MEMB     25       PSM      C15      CTL5    -0.350000       12.0110           0
      2192 MEMB     25       PSM      H15A     HL       0.250000       1.00800           0
      2193 MEMB     25       PSM      H15B     HL       0.250000       1.00800           0
      2194 MEMB     25       PSM      H15C     HL       0.250000       1.00800           0
      2195 MEMB     25       PSM      C14      CTL5    -0.350000       12.0110           0
      2196 MEMB     25       PSM      H14A     HL       0.250000       1.00800           0
      2197 MEMB     25       PSM      H14B     HL       0.250000       1.00800           0
      2198 MEMB     25       PSM      H14C     HL       0.250000       1.00800           0
      2199 MEMB     25       PSM      C13      CTL5    -0.350000       12.0110           0
      2200 MEMB     25       PSM      H13A     HL       0.250000       1.00800           0
      2201 MEMB     25       PSM      H13B     HL       0.250000       1.00800           0
      2202 MEMB     25       PSM      H13C     HL       0.250000       1.00800           0
      2203 MEMB     25       PSM      C12      CTL2    -0.100000       12.0110           0
      2204 MEMB     25       PSM      H12A     HL       0.250000       1.00800           0
      2205 MEMB     25       PSM      H12B     HL       0.250000       1.00800           0
      2206 MEMB     25       PSM      C11      CTL2    -0.800000E-01   12.0110           0
      2207 MEMB     25       PSM      H11A     HAL2     0.900000E-01   1.00800           0
      2208 MEMB     25       PSM      H11B     HAL2     0.900000E-01   1.00800           0
      2209 MEMB     25       PSM      P        PL       1.500000       30.9740           0
      2210 MEMB     25       PSM      O13      O2L     -0.780000       15.9994           0
      2211 MEMB     25       PSM      O14      O2L     -0.780000       15.9994           0
      2212 MEMB     25       PSM      O11      OSLP    -0.570000       15.9994           0
      2213 MEMB     25       PSM      O12      OSLP    -0.570000       15.9994           0
      2214 MEMB     25       PSM      C1S      CTL2    -0.800000E-01   12.0110           0
      2215 MEMB     25       PSM      H1S      HAL2     0.900000E-01   1.00800           0
      2216 MEMB     25       PSM      H1T      HAL2     0.900000E-01   1.00800           0
      2217 MEMB     25       PSM      NF       NHL     -0.700000       14.0070           0
      2218 MEMB     25       PSM      HNF      H        0.350000       1.00800           0
      2219 MEMB     25       PSM      C2S      CTL1     0.300000       12.0110           0
      2220 MEMB     25       PSM      H2S      HAL1     0.500000E-01   1.00800           0
      2221 MEMB     25       PSM      C3S      CTO1     0.500000       12.0110           0
      2222 MEMB     25       PSM      H3S      HAL1    -0.110000       1.00800           0
      2223 MEMB     25       PSM      O3       OHL     -0.690000       15.9994           0
      2224 MEMB     25       PSM      HO3      HOL      0.300000       1.00800           0
      2225 MEMB     25       PSM      C4S      CEL3    -0.150000       12.0110           0
      2226 MEMB     25       PSM      H4S      HEL1     0.150000       1.00800           0
      2227 MEMB     25       PSM      C5S      CEL3    -0.150000       12.0110           0
      2228 MEMB     25       PSM      H5S      HEL1     0.150000       1.00800           0
      2229 MEMB     25       PSM      C6S      CTL2    -0.180000       12.0110           0
      2230 MEMB     25       PSM      H6S      HAL2     0.900000E-01   1.00800           0
      2231 MEMB     25       PSM      H6T      HAL2     0.900000E-01   1.00800           0
      2232 MEMB     25       PSM      C7S      CTL2    -0.180000       12.0110           0
      2233 MEMB     25       PSM      H7S      HAL2     0.900000E-01   1.00800           0
      2234 MEMB     25       PSM      H7T      HAL2     0.900000E-01   1.00800           0
      2235 MEMB     25       PSM      C8S      CTL2    -0.180000       12.0110           0
      2236 MEMB     25       PSM      H8S      HAL2     0.900000E-01   1.00800           0
      2237 MEMB     25       PSM      H8T      HAL2     0.900000E-01   1.00800           0
      2238 MEMB     25       PSM      C9S      CTL2    -0.180000       12.0110           0
      2239 MEMB     25       PSM      H9S      HAL2     0.900000E-01   1.00800           0
      2240 MEMB     25       PSM      H9T      HAL2     0.900000E-01   1.00800           0
      2241 MEMB     25       PSM      C10S     CTL2    -0.180000       12.0110           0
      2242 MEMB     25       PSM      H10S     HAL2     0.900000E-01   1.00800           0
      2243 MEMB     25       PSM      H10T     HAL2     0.900000E-01   1.00800           0
      2244 MEMB     25       PSM      C11S     CTL2    -0.180000       12.0110           0
      2245 MEMB     25       PSM      H11S     HAL2     0.900000E-01   1.00800           0
      2246 MEMB     25       PSM      H11T     HAL2     0.900000E-01   1.00800           0
      2247 MEMB     25       PSM      C12S     CTL2    -0.180000       12.0110           0
      2248 MEMB     25       PSM      H12S     HAL2     0.900000E-01   1.00800           0
      2249 MEMB     25       PSM      H12T     HAL2     0.900000E-01   1.00800           0
      2250 MEMB     25       PSM      C13S     CTL2    -0.180000       12.0110           0
      2251 MEMB     25       PSM      H13S     HAL2     0.900000E-01   1.00800           0
      2252 MEMB     25       PSM      H13T     HAL2     0.900000E-01   1.00800           0
      2253 MEMB     25       PSM      C14S     CTL2    -0.180000       12.0110           0
      2254 MEMB     25       PSM      H14S     HAL2     0.900000E-01   1.00800           0
      2255 MEMB     25       PSM      H14T     HAL2     0.900000E-01   1.00800           0
      2256 MEMB     25       PSM      C15S     CTL2    -0.180000       12.0110           0
      2257 MEMB     25       PSM      H15S     HAL2     0.900000E-01   1.00800           0
      2258 MEMB     25       PSM      H15T     HAL2     0.900000E-01   1.00800           0
      2259 MEMB     25       PSM      C16S     CTL2    -0.180000       12.0110           0
      2260 MEMB     25       PSM      H16S     HAL2     0.900000E-01   1.00800           0
      2261 MEMB     25       PSM      H16T     HAL2     0.900000E-01   1.00800           0
      2262 MEMB     25       PSM      C17S     CTL2    -0.180000       12.0110           0
      2263 MEMB     25       PSM      H17S     HAL2     0.900000E-01   1.00800           0
      2264 MEMB     25       PSM      H17T     HAL2     0.900000E-01   1.00800           0
      2265 MEMB     25       PSM      C18S     CTL3    -0.270000       12.0110           0
      2266 MEMB     25       PSM      H18S     HAL3     0.900000E-01   1.00800           0
      2267 MEMB     25       PSM      H18T     HAL3     0.900000E-01   1.00800           0
      2268 MEMB     25       PSM      H18U     HAL3     0.900000E-01   1.00800           0
      2269 MEMB     25       PSM      C1F      C        0.550000       12.0110           0
      2270 MEMB     25       PSM      OF       O       -0.600000       15.9994           0
      2271 MEMB     25       PSM      C2F      CTL2    -0.700000E-01   12.0110           0
      2272 MEMB     25       PSM      H2F      HAL2     0.600000E-01   1.00800           0
      2273 MEMB     25       PSM      H2G      HAL2     0.600000E-01   1.00800           0
      2274 MEMB     25       PSM      C3F      CTL2    -0.180000       12.0110           0
      2275 MEMB     25       PSM      H3F      HAL2     0.900000E-01   1.00800           0
      2276 MEMB     25       PSM      H3G      HAL2     0.900000E-01   1.00800           0
      2277 MEMB     25       PSM      C4F      CTL2    -0.180000       12.0110           0
      2278 MEMB     25       PSM      H4F      HAL2     0.900000E-01   1.00800           0
      2279 MEMB     25       PSM      H4G      HAL2     0.900000E-01   1.00800           0
      2280 MEMB     25       PSM      C5F      CTL2    -0.180000       12.0110           0
      2281 MEMB     25       PSM      H5F      HAL2     0.900000E-01   1.00800           0
      2282 MEMB     25       PSM      H5G      HAL2     0.900000E-01   1.00800           0
      2283 MEMB     25       PSM      C6F      CTL2    -0.180000       12.0110           0
      2284 MEMB     25       PSM      H6F      HAL2     0.900000E-01   1.00800           0
      2285 MEMB     25       PSM      H6G      HAL2     0.900000E-01   1.00800           0
      2286 MEMB     25       PSM      C7F      CTL2    -0.180000       12.0110           0
      2287 MEMB     25       PSM      H7F      HAL2     0.900000E-01   1.00800           0
      2288 MEMB     25       PSM      H7G      HAL2     0.900000E-01   1.00800           0
      2289 MEMB     25       PSM      C8F      CTL2    -0.180000       12.0110           0
      2290 MEMB     25       PSM      H8F      HAL2     0.900000E-01   1.00800           0
      2291 MEMB     25       PSM      H8G      HAL2     0.900000E-01   1.00800           0
      2292 MEMB     25       PSM      C9F      CTL2    -0.180000       12.0110           0
      2293 MEMB     25       PSM      H9F      HAL2     0.900000E-01   1.00800           0
      2294 MEMB     25       PSM      H9G      HAL2     0.900000E-01   1.00800           0
      2295 MEMB     25       PSM      C10F     CTL2    -0.180000       12.0110           0
      2296 MEMB     25       PSM      H10F     HAL2     0.900000E-01   1.00800           0
      2297 MEMB     25       PSM      H10G     HAL2     0.900000E-01   1.00800           0
      2298 MEMB     25       PSM      C11F     CTL2    -0.180000       12.0110           0
      2299 MEMB     25       PSM      H11F     HAL2     0.900000E-01   1.00800           0
      2300 MEMB     25       PSM      H11G     HAL2     0.900000E-01   1.00800           0
      2301 MEMB     25       PSM      C12F     CTL2    -0.180000       12.0110           0
      2302 MEMB     25       PSM      H12F     HAL2     0.900000E-01   1.00800           0
      2303 MEMB     25       PSM      H12G     HAL2     0.900000E-01   1.00800           0
      2304 MEMB     25       PSM      C13F     CTL2    -0.180000       12.0110           0
      2305 MEMB     25       PSM      H13F     HAL2     0.900000E-01   1.00800           0
      2306 MEMB     25       PSM      H13G     HAL2     0.900000E-01   1.00800           0
      2307 MEMB     25       PSM      C14F     CTL2    -0.180000       12.0110           0
      2308 MEMB     25       PSM      H14F     HAL2     0.900000E-01   1.00800           0
      2309 MEMB     25       PSM      H14G     HAL2     0.900000E-01   1.00800           0
      2310 MEMB     25       PSM      C15F     CTL2    -0.180000       12.0110           0
      2311 MEMB     25       PSM      H15F     HAL2     0.900000E-01   1.00800           0
      2312 MEMB     25       PSM      H15G     HAL2     0.900000E-01   1.00800           0
      2313 MEMB     25       PSM      C16F     CTL3    -0.270000       12.0110           0
      2314 MEMB     25       PSM      H16F     HAL3     0.900000E-01   1.00800           0
      2315 MEMB     25       PSM      H16G     HAL3     0.900000E-01   1.00800           0
      2316 MEMB     25       PSM      H16H     HAL3     0.900000E-01   1.00800           0
      2317 MEMB     26       POPC     N        NTL     -0.600000       14.0070           0
      2318 MEMB     26       POPC     C12      CTL2    -0.100000       12.0110           0
      2319 MEMB     26       POPC     H12A     HL       0.250000       1.00800           0
      2320 MEMB     26       POPC     H12B     HL       0.250000       1.00800           0
      2321 MEMB     26       POPC     C13      CTL5    -0.350000       12.0110           0
      2322 MEMB     26       POPC     H13A     HL       0.250000       1.00800           0
      2323 MEMB     26       POPC     H13B     HL       0.250000       1.00800           0
      2324 MEMB     26       POPC     H13C     HL       0.250000       1.00800           0
      2325 MEMB     26       POPC     C14      CTL5    -0.350000       12.0110           0
      2326 MEMB     26       POPC     H14A     HL       0.250000       1.00800           0
      2327 MEMB     26       POPC     H14B     HL       0.250000       1.00800           0
      2328 MEMB     26       POPC     H14C     HL       0.250000       1.00800           0
      2329 MEMB     26       POPC     C15      CTL5    -0.350000       12.0110           0
      2330 MEMB     26       POPC     H15A     HL       0.250000       1.00800           0
      2331 MEMB     26       POPC     H15B     HL       0.250000       1.00800           0
      2332 MEMB     26       POPC     H15C     HL       0.250000       1.00800           0
      2333 MEMB     26       POPC     C11      CTL2    -0.800000E-01   12.0110           0
      2334 MEMB     26       POPC     H11A     HAL2     0.900000E-01   1.00800           0
      2335 MEMB     26       POPC     H11B     HAL2     0.900000E-01   1.00800           0
      2336 MEMB     26       POPC     P        PL       1.500000       30.9740           0
      2337 MEMB     26       POPC     O13      O2L     -0.780000       15.9994           0
      2338 MEMB     26       POPC     O14      O2L     -0.780000       15.9994           0
      2339 MEMB     26       POPC     O12      OSLP    -0.570000       15.9994           0
      2340 MEMB     26       POPC     O11      OSLP    -0.570000       15.9994           0
      2341 MEMB     26       POPC     C1       CTL2    -0.800000E-01   12.0110           0
      2342 MEMB     26       POPC     HA       HAL2     0.900000E-01   1.00800           0
      2343 MEMB     26       POPC     HB       HAL2     0.900000E-01   1.00800           0
      2344 MEMB     26       POPC     C2       CTL1     0.170000       12.0110           0
      2345 MEMB     26       POPC     HS       HAL1     0.900000E-01   1.00800           0
      2346 MEMB     26       POPC     O21      OSL     -0.490000       15.9994           0
      2347 MEMB     26       POPC     C21      CL       0.900000       12.0110           0
      2348 MEMB     26       POPC     O22      OBL     -0.630000       15.9994           0
      2349 MEMB     26       POPC     C22      CTL2    -0.220000       12.0110           0
      2350 MEMB     26       POPC     H2R      HAL2     0.900000E-01   1.00800           0
      2351 MEMB     26       POPC     H2S      HAL2     0.900000E-01   1.00800           0
      2352 MEMB     26       POPC     C3       CTL2     0.800000E-01   12.0110           0
      2353 MEMB     26       POPC     HX       HAL2     0.900000E-01   1.00800           0
      2354 MEMB     26       POPC     HY       HAL2     0.900000E-01   1.00800           0
      2355 MEMB     26       POPC     O31      OSL     -0.490000       15.9994           0
      2356 MEMB     26       POPC     C31      CL       0.900000       12.0110           0
      2357 MEMB     26       POPC     O32      OBL     -0.630000       15.9994           0
      2358 MEMB     26       POPC     C32      CTL2    -0.220000       12.0110           0
      2359 MEMB     26       POPC     H2X      HAL2     0.900000E-01   1.00800           0
      2360 MEMB     26       POPC     H2Y      HAL2     0.900000E-01   1.00800           0
      2361 MEMB     26       POPC     C23      CTL2    -0.180000       12.0110           0
      2362 MEMB     26       POPC     H3R      HAL2     0.900000E-01   1.00800           0
      2363 MEMB     26       POPC     H3S      HAL2     0.900000E-01   1.00800           0
      2364 MEMB     26       POPC     C24      CTL2    -0.180000       12.0110           0
      2365 MEMB     26       POPC     H4R      HAL2     0.900000E-01   1.00800           0
      2366 MEMB     26       POPC     H4S      HAL2     0.900000E-01   1.00800           0
      2367 MEMB     26       POPC     C25      CTL2    -0.180000       12.0110           0
      2368 MEMB     26       POPC     H5R      HAL2     0.900000E-01   1.00800           0
      2369 MEMB     26       POPC     H5S      HAL2     0.900000E-01   1.00800           0
      2370 MEMB     26       POPC     C26      CTL2    -0.180000       12.0110           0
      2371 MEMB     26       POPC     H6R      HAL2     0.900000E-01   1.00800           0
      2372 MEMB     26       POPC     H6S      HAL2     0.900000E-01   1.00800           0
      2373 MEMB     26       POPC     C27      CTL2    -0.180000       12.0110           0
      2374 MEMB     26       POPC     H7R      HAL2     0.900000E-01   1.00800           0
      2375 MEMB     26       POPC     H7S      HAL2     0.900000E-01   1.00800           0
      2376 MEMB     26       POPC     C28      CTL2    -0.180000       12.0110           0
      2377 MEMB     26       POPC     H8R      HAL2     0.900000E-01   1.00800           0
      2378 MEMB     26       POPC     H8S      HAL2     0.900000E-01   1.00800           0
      2379 MEMB     26       POPC     C29      CEL1    -0.150000       12.0110           0
      2380 MEMB     26       POPC     H91      HEL1     0.150000       1.00800           0
      2381 MEMB     26       POPC     C210     CEL1    -0.150000       12.0110           0
      2382 MEMB     26       POPC     H101     HEL1     0.150000       1.00800           0
      2383 MEMB     26       POPC     C211     CTL2    -0.180000       12.0110           0
      2384 MEMB     26       POPC     H11R     HAL2     0.900000E-01   1.00800           0
      2385 MEMB     26       POPC     H11S     HAL2     0.900000E-01   1.00800           0
      2386 MEMB     26       POPC     C212     CTL2    -0.180000       12.0110           0
      2387 MEMB     26       POPC     H12R     HAL2     0.900000E-01   1.00800           0
      2388 MEMB     26       POPC     H12S     HAL2     0.900000E-01   1.00800           0
      2389 MEMB     26       POPC     C213     CTL2    -0.180000       12.0110           0
      2390 MEMB     26       POPC     H13R     HAL2     0.900000E-01   1.00800           0
      2391 MEMB     26       POPC     H13S     HAL2     0.900000E-01   1.00800           0
      2392 MEMB     26       POPC     C214     CTL2    -0.180000       12.0110           0
      2393 MEMB     26       POPC     H14R     HAL2     0.900000E-01   1.00800           0
      2394 MEMB     26       POPC     H14S     HAL2     0.900000E-01   1.00800           0
      2395 MEMB     26       POPC     C215     CTL2    -0.180000       12.0110           0
      2396 MEMB     26       POPC     H15R     HAL2     0.900000E-01   1.00800           0
      2397 MEMB     26       POPC     H15S     HAL2     0.900000E-01   1.00800           0
      2398 MEMB     26       POPC     C216     CTL2    -0.180000       12.0110           0
      2399 MEMB     26       POPC     H16R     HAL2     0.900000E-01   1.00800           0
      2400 MEMB     26       POPC     H16S     HAL2     0.900000E-01   1.00800           0
      2401 MEMB     26       POPC     C217     CTL2    -0.180000       12.0110           0
      2402 MEMB     26       POPC     H17R     HAL2     0.900000E-01   1.00800           0
      2403 MEMB     26       POPC     H17S     HAL2     0.900000E-01   1.00800           0
      2404 MEMB     26       POPC     C218     CTL3    -0.270000       12.0110           0
      2405 MEMB     26       POPC     H18R     HAL3     0.900000E-01   1.00800           0
      2406 MEMB     26       POPC     H18S     HAL3     0.900000E-01   1.00800           0
      2407 MEMB     26       POPC     H18T     HAL3     0.900000E-01   1.00800           0
      2408 MEMB     26       POPC     C33      CTL2    -0.180000       12.0110           0
      2409 MEMB     26       POPC     H3X      HAL2     0.900000E-01   1.00800           0
      2410 MEMB     26       POPC     H3Y      HAL2     0.900000E-01   1.00800           0
      2411 MEMB     26       POPC     C34      CTL2    -0.180000       12.0110           0
      2412 MEMB     26       POPC     H4X      HAL2     0.900000E-01   1.00800           0
      2413 MEMB     26       POPC     H4Y      HAL2     0.900000E-01   1.00800           0
      2414 MEMB     26       POPC     C35      CTL2    -0.180000       12.0110           0
      2415 MEMB     26       POPC     H5X      HAL2     0.900000E-01   1.00800           0
      2416 MEMB     26       POPC     H5Y      HAL2     0.900000E-01   1.00800           0
      2417 MEMB     26       POPC     C36      CTL2    -0.180000       12.0110           0
      2418 MEMB     26       POPC     H6X      HAL2     0.900000E-01   1.00800           0
      2419 MEMB     26       POPC     H6Y      HAL2     0.900000E-01   1.00800           0
      2420 MEMB     26       POPC     C37      CTL2    -0.180000       12.0110           0
      2421 MEMB     26       POPC     H7X      HAL2     0.900000E-01   1.00800           0
      2422 MEMB     26       POPC     H7Y      HAL2     0.900000E-01   1.00800           0
      2423 MEMB     26       POPC     C38      CTL2    -0.180000       12.0110           0
      2424 MEMB     26       POPC     H8X      HAL2     0.900000E-01   1.00800           0
      2425 MEMB     26       POPC     H8Y      HAL2     0.900000E-01   1.00800           0
      2426 MEMB     26       POPC     C39      CTL2    -0.180000       12.0110           0
      2427 MEMB     26       POPC     H9X      HAL2     0.900000E-01   1.00800           0
      2428 MEMB     26       POPC     H9Y      HAL2     0.900000E-01   1.00800           0
      2429 MEMB     26       POPC     C310     CTL2    -0.180000       12.0110           0
      2430 MEMB     26       POPC     H10X     HAL2     0.900000E-01   1.00800           0
      2431 MEMB     26       POPC     H10Y     HAL2     0.900000E-01   1.00800           0
      2432 MEMB     26       POPC     C311     CTL2    -0.180000       12.0110           0
      2433 MEMB     26       POPC     H11X     HAL2     0.900000E-01   1.00800           0
      2434 MEMB     26       POPC     H11Y     HAL2     0.900000E-01   1.00800           0
      2435 MEMB     26       POPC     C312     CTL2    -0.180000       12.0110           0
      2436 MEMB     26       POPC     H12X     HAL2     0.900000E-01   1.00800           0
      2437 MEMB     26       POPC     H12Y     HAL2     0.900000E-01   1.00800           0
      2438 MEMB     26       POPC     C313     CTL2    -0.180000       12.0110           0
      2439 MEMB     26       POPC     H13X     HAL2     0.900000E-01   1.00800           0
      2440 MEMB     26       POPC     H13Y     HAL2     0.900000E-01   1.00800           0
      2441 MEMB     26       POPC     C314     CTL2    -0.180000       12.0110           0
      2442 MEMB     26       POPC     H14X     HAL2     0.900000E-01   1.00800           0
      2443 MEMB     26       POPC     H14Y     HAL2     0.900000E-01   1.00800           0
      2444 MEMB     26       POPC     C315     CTL2    -0.180000       12.0110           0
      2445 MEMB     26       POPC     H15X     HAL2     0.900000E-01   1.00800           0
      2446 MEMB     26       POPC     H15Y     HAL2     0.900000E-01   1.00800           0
      2447 MEMB     26       POPC     C316     CTL3    -0.270000       12.0110           0
      2448 MEMB     26       POPC     H16X     HAL3     0.900000E-01   1.00800           0
      2449 MEMB     26       POPC     H16Y     HAL3     0.900000E-01   1.00800           0
      2450 MEMB     26       POPC     H16Z     HAL3     0.900000E-01   1.00800           0
      2451 MEMB     27       POPE     N        NH3L    -0.300000       14.0070           0
      2452 MEMB     27       POPE     HN1      HCL      0.330000       1.00800           0
      2453 MEMB     27       POPE     HN2      HCL      0.330000       1.00800           0
      2454 MEMB     27       POPE     HN3      HCL      0.330000       1.00800           0
      2455 MEMB     27       POPE     C12      CTL2     0.130000       12.0110           0
      2456 MEMB     27       POPE     H12A     HAL2     0.900000E-01   1.00800           0
      2457 MEMB     27       POPE     H12B     HAL2     0.900000E-01   1.00800           0
      2458 MEMB     27       POPE     C11      CTL2    -0.800000E-01   12.0110           0
      2459 MEMB     27       POPE     H11A     HAL2     0.900000E-01   1.00800           0
      2460 MEMB     27       POPE     H11B     HAL2     0.900000E-01   1.00800           0
      2461 MEMB     27       POPE     P        PL       1.500000       30.9740           0
      2462 MEMB     27       POPE     O13      O2L     -0.780000       15.9994           0
      2463 MEMB     27       POPE     O14      O2L     -0.780000       15.9994           0
      2464 MEMB     27       POPE     O11      OSLP    -0.570000       15.9994           0
      2465 MEMB     27       POPE     O12      OSLP    -0.570000       15.9994           0
      2466 MEMB     27       POPE     C1       CTL2    -0.800000E-01   12.0110           0
      2467 MEMB     27       POPE     HA       HAL2     0.900000E-01   1.00800           0
      2468 MEMB     27       POPE     HB       HAL2     0.900000E-01   1.00800           0
      2469 MEMB     27       POPE     C2       CTL1     0.170000       12.0110           0
      2470 MEMB     27       POPE     HS       HAL1     0.900000E-01   1.00800           0
      2471 MEMB     27       POPE     O21      OSL     -0.490000       15.9994           0
      2472 MEMB     27       POPE     C21      CL       0.900000       12.0110           0
      2473 MEMB     27       POPE     O22      OBL     -0.630000       15.9994           0
      2474 MEMB     27       POPE     C22      CTL2    -0.220000       12.0110           0
      2475 MEMB     27       POPE     H2R      HAL2     0.900000E-01   1.00800           0
      2476 MEMB     27       POPE     H2S      HAL2     0.900000E-01   1.00800           0
      2477 MEMB     27       POPE     C3       CTL2     0.800000E-01   12.0110           0
      2478 MEMB     27       POPE     HX       HAL2     0.900000E-01   1.00800           0
      2479 MEMB     27       POPE     HY       HAL2     0.900000E-01   1.00800           0
      2480 MEMB     27       POPE     O31      OSL     -0.490000       15.9994           0
      2481 MEMB     27       POPE     C31      CL       0.900000       12.0110           0
      2482 MEMB     27       POPE     O32      OBL     -0.630000       15.9994           0
      2483 MEMB     27       POPE     C32      CTL2    -0.220000       12.0110           0
      2484 MEMB     27       POPE     H2X      HAL2     0.900000E-01   1.00800           0
      2485 MEMB     27       POPE     H2Y      HAL2     0.900000E-01   1.00800           0
      2486 MEMB     27       POPE     C23      CTL2    -0.180000       12.0110           0
      2487 MEMB     27       POPE     H3R      HAL2     0.900000E-01   1.00800           0
      2488 MEMB     27       POPE     H3S      HAL2     0.900000E-01   1.00800           0
      2489 MEMB     27       POPE     C24      CTL2    -0.180000       12.0110           0
      2490 MEMB     27       POPE     H4R      HAL2     0.900000E-01   1.00800           0
      2491 MEMB     27       POPE     H4S      HAL2     0.900000E-01   1.00800           0
      2492 MEMB     27       POPE     C25      CTL2    -0.180000       12.0110           0
      2493 MEMB     27       POPE     H5R      HAL2     0.900000E-01   1.00800           0
      2494 MEMB     27       POPE     H5S      HAL2     0.900000E-01   1.00800           0
      2495 MEMB     27       POPE     C26      CTL2    -0.180000       12.0110           0
      2496 MEMB     27       POPE     H6R      HAL2     0.900000E-01   1.00800           0
      2497 MEMB     27       POPE     H6S      HAL2     0.900000E-01   1.00800           0
      2498 MEMB     27       POPE     C27      CTL2    -0.180000       12.0110           0
      2499 MEMB     27       POPE     H7R      HAL2     0.900000E-01   1.00800           0
      2500 MEMB     27       POPE     H7S      HAL2     0.900000E-01   1.00800           0
      2501 MEMB     27       POPE     C28      CTL2    -0.180000       12.0110           0
      2502 MEMB     27       POPE     H8R      HAL2     0.900000E-01   1.00800           0
      2503 MEMB     27       POPE     H8S      HAL2     0.900000E-01   1.00800           0
      2504 MEMB     27       POPE     C29      CEL1    -0.150000       12.0110           0
      2505 MEMB     27       POPE     H91      HEL1     0.150000       1.00800           0
      2506 MEMB     27       POPE     C210     CEL1    -0.150000       12.0110           0
      2507 MEMB     27       POPE     H101     HEL1     0.150000       1.00800           0
      2508 MEMB     27       POPE     C211     CTL2    -0.180000       12.0110           0
      2509 MEMB     27       POPE     H11R     HAL2     0.900000E-01   1.00800           0
      2510 MEMB     27       POPE     H11S     HAL2     0.900000E-01   1.00800           0
      2511 MEMB     27       POPE     C212     CTL2    -0.180000       12.0110           0
      2512 MEMB     27       POPE     H12R     HAL2     0.900000E-01   1.00800           0
      2513 MEMB     27       POPE     H12S     HAL2     0.900000E-01   1.00800           0
      2514 MEMB     27       POPE     C213     CTL2    -0.180000       12.0110           0
      2515 MEMB     27       POPE     H13R     HAL2     0.900000E-01   1.00800           0
      2516 MEMB     27       POPE     H13S     HAL2     0.900000E-01   1.00800           0
      2517 MEMB     27       POPE     C214     CTL2    -0.180000       12.0110           0
      2518 MEMB     27       POPE     H14R     HAL2     0.900000E-01   1.00800           0
      2519 MEMB     27       POPE     H14S     HAL2     0.900000E-01   1.00800           0
      2520 MEMB     27       POPE     C215     CTL2    -0.180000       12.0110           0
      2521 MEMB     27       POPE     H15R     HAL2     0.900000E-01   1.00800           0
      2522 MEMB     27       POPE     H15S     HAL2     0.900000E-01   1.00800           0
      2523 MEMB     27       POPE     C216     CTL2    -0.180000       12.0110           0
      2524 MEMB     27       POPE     H16R     HAL2     0.900000E-01   1.00800           0
      2525 MEMB     27       POPE     H16S     HAL2     0.900000E-01   1.00800           0
      2526 MEMB     27       POPE     C217     CTL2    -0.180000       12.0110           0
      2527 MEMB     27       POPE     H17R     HAL2     0.900000E-01   1.00800           0
      2528 MEMB     27       POPE     H17S     HAL2     0.900000E-01   1.00800           0
      2529 MEMB     27       POPE     C218     CTL3    -0.270000       12.0110           0
      2530 MEMB     27       POPE     H18R     HAL3     0.900000E-01   1.00800           0
      2531 MEMB     27       POPE     H18S     HAL3     0.900000E-01   1.00800           0
      2532 MEMB     27       POPE     H18T     HAL3     0.900000E-01   1.00800           0
      2533 MEMB     27       POPE     C33      CTL2    -0.180000       12.0110           0
      2534 MEMB     27       POPE     H3X      HAL2     0.900000E-01   1.00800           0
      2535 MEMB     27       POPE     H3Y      HAL2     0.900000E-01   1.00800           0
      2536 MEMB     27       POPE     C34      CTL2    -0.180000       12.0110           0
      2537 MEMB     27       POPE     H4X      HAL2     0.900000E-01   1.00800           0
      2538 MEMB     27       POPE     H4Y      HAL2     0.900000E-01   1.00800           0
      2539 MEMB     27       POPE     C35      CTL2    -0.180000       12.0110           0
      2540 MEMB     27       POPE     H5X      HAL2     0.900000E-01   1.00800           0
      2541 MEMB     27       POPE     H5Y      HAL2     0.900000E-01   1.00800           0
      2542 MEMB     27       POPE     C36      CTL2    -0.180000       12.0110           0
      2543 MEMB     27       POPE     H6X      HAL2     0.900000E-01   1.00800           0
      2544 MEMB     27       POPE     H6Y      HAL2     0.900000E-01   1.00800           0
      2545 MEMB     27       POPE     C37      CTL2    -0.180000       12.0110           0
      2546 MEMB     27       POPE     H7X      HAL2     0.900000E-01   1.00800           0
      2547 MEMB     27       POPE     H7Y      HAL2     0.900000E-01   1.00800           0
      2548 MEMB     27       POPE     C38      CTL2    -0.180000       12.0110           0
      2549 MEMB     27       POPE     H8X      HAL2     0.900000E-01   1.00800           0
      2550 MEMB     27       POPE     H8Y      HAL2     0.900000E-01   1.00800           0
      2551 MEMB     27       POPE     C39      CTL2    -0.180000       12.0110           0
      2552 MEMB     27       POPE     H9X      HAL2     0.900000E-01   1.00800           0
      2553 MEMB     27       POPE     H9Y      HAL2     0.900000E-01   1.00800           0
      2554 MEMB     27       POPE     C310     CTL2    -0.180000       12.0110           0
      2555 MEMB     27       POPE     H10X     HAL2     0.900000E-01   1.00800           0
      2556 MEMB     27       POPE     H10Y     HAL2     0.900000E-01   1.00800           0
      2557 MEMB     27       POPE     C311     CTL2    -0.180000       12.0110           0
      2558 MEMB     27       POPE     H11X     HAL2     0.900000E-01   1.00800           0
      2559 MEMB     27       POPE     H11Y     HAL2     0.900000E-01   1.00800           0
      2560 MEMB     27       POPE     C312     CTL2    -0.180000       12.0110           0
      2561 MEMB     27       POPE     H12X     HAL2     0.900000E-01   1.00800           0
      2562 MEMB     27       POPE     H12Y     HAL2     0.900000E-01   1.00800           0
      2563 MEMB     27       POPE     C313     CTL2    -0.180000       12.0110           0
      2564 MEMB     27       POPE     H13X     HAL2     0.900000E-01   1.00800           0
      2565 MEMB     27       POPE     H13Y     HAL2     0.900000E-01   1.00800           0
      2566 MEMB     27       POPE     C314     CTL2    -0.180000       12.0110           0
      2567 MEMB     27       POPE     H14X     HAL2     0.900000E-01   1.00800           0
      2568 MEMB     27       POPE     H14Y     HAL2     0.900000E-01   1.00800           0
      2569 MEMB     27       POPE     C315     CTL2    -0.180000       12.0110           0
      2570 MEMB     27       POPE     H15X     HAL2     0.900000E-01   1.00800           0
      2571 MEMB     27       POPE     H15Y     HAL2     0.900000E-01   1.00800           0
      2572 MEMB     27       POPE     C316     CTL3    -0.270000       12.0110           0
      2573 MEMB     27       POPE     H16X     HAL3     0.900000E-01   1.00800           0
      2574 MEMB     27       POPE     H16Y     HAL3     0.900000E-01   1.00800           0
      2575 MEMB     27       POPE     H16Z     HAL3     0.900000E-01   1.00800           0
      2576 MEMB     28       POPS     N        NH3L    -0.300000       14.0070           0
      2577 MEMB     28       POPS     HN1      HCL      0.330000       1.00800           0
      2578 MEMB     28       POPS     HN2      HCL      0.330000       1.00800           0
      2579 MEMB     28       POPS     HN3      HCL      0.330000       1.00800           0
      2580 MEMB     28       POPS     C12      CTL1     0.210000       12.0110           0
      2581 MEMB     28       POPS     H12A     HBL      0.100000       1.00800           0
      2582 MEMB     28       POPS     C13      CCL      0.340000       12.0110           0
      2583 MEMB     28       POPS     O13A     OCL     -0.670000       15.9994           0
      2584 MEMB     28       POPS     O13B     OCL     -0.670000       15.9994           0
      2585 MEMB     28       POPS     C11      CTL2    -0.800000E-01   12.0110           0
      2586 MEMB     28       POPS     H11A     HAL2     0.900000E-01   1.00800           0
      2587 MEMB     28       POPS     H11B     HAL2     0.900000E-01   1.00800           0
      2588 MEMB     28       POPS     P        PL       1.500000       30.9740           0
      2589 MEMB     28       POPS     O13      O2L     -0.780000       15.9994           0
      2590 MEMB     28       POPS     O14      O2L     -0.780000       15.9994           0
      2591 MEMB     28       POPS     O12      OSLP    -0.570000       15.9994           0
      2592 MEMB     28       POPS     O11      OSLP    -0.570000       15.9994           0
      2593 MEMB     28       POPS     C1       CTL2    -0.800000E-01   12.0110           0
      2594 MEMB     28       POPS     HA       HAL2     0.900000E-01   1.00800           0
      2595 MEMB     28       POPS     HB       HAL2     0.900000E-01   1.00800           0
      2596 MEMB     28       POPS     C2       CTL1     0.170000       12.0110           0
      2597 MEMB     28       POPS     HS       HAL1     0.900000E-01   1.00800           0
      2598 MEMB     28       POPS     O21      OSL     -0.490000       15.9994           0
      2599 MEMB     28       POPS     C21      CL       0.900000       12.0110           0
      2600 MEMB     28       POPS     O22      OBL     -0.630000       15.9994           0
      2601 MEMB     28       POPS     C22      CTL2    -0.220000       12.0110           0
      2602 MEMB     28       POPS     H2R      HAL2     0.900000E-01   1.00800           0
      2603 MEMB     28       POPS     H2S      HAL2     0.900000E-01   1.00800           0
      2604 MEMB     28       POPS     C3       CTL2     0.800000E-01   12.0110           0
      2605 MEMB     28       POPS     HX       HAL2     0.900000E-01   1.00800           0
      2606 MEMB     28       POPS     HY       HAL2     0.900000E-01   1.00800           0
      2607 MEMB     28       POPS     O31      OSL     -0.490000       15.9994           0
      2608 MEMB     28       POPS     C31      CL       0.900000       12.0110           0
      2609 MEMB     28       POPS     O32      OBL     -0.630000       15.9994           0
      2610 MEMB     28       POPS     C32      CTL2    -0.220000       12.0110           0
      2611 MEMB     28       POPS     H2X      HAL2     0.900000E-01   1.00800           0
      2612 MEMB     28       POPS     H2Y      HAL2     0.900000E-01   1.00800           0
      2613 MEMB     28       POPS     C23      CTL2    -0.180000       12.0110           0
      2614 MEMB     28       POPS     H3R      HAL2     0.900000E-01   1.00800           0
      2615 MEMB     28       POPS     H3S      HAL2     0.900000E-01   1.00800           0
      2616 MEMB     28       POPS     C24      CTL2    -0.180000       12.0110           0
      2617 MEMB     28       POPS     H4R      HAL2     0.900000E-01   1.00800           0
      2618 MEMB     28       POPS     H4S      HAL2     0.900000E-01   1.00800           0
      2619 MEMB     28       POPS     C25      CTL2    -0.180000       12.0110           0
      2620 MEMB     28       POPS     H5R      HAL2     0.900000E-01   1.00800           0
      2621 MEMB     28       POPS     H5S      HAL2     0.900000E-01   1.00800           0
      2622 MEMB     28       POPS     C26      CTL2    -0.180000       12.0110           0
      2623 MEMB     28       POPS     H6R      HAL2     0.900000E-01   1.00800           0
      2624 MEMB     28       POPS     H6S      HAL2     0.900000E-01   1.00800           0
      2625 MEMB     28       POPS     C27      CTL2    -0.180000       12.0110           0
      2626 MEMB     28       POPS     H7R      HAL2     0.900000E-01   1.00800           0
      2627 MEMB     28       POPS     H7S      HAL2     0.900000E-01   1.00800           0
      2628 MEMB     28       POPS     C28      CTL2    -0.180000       12.0110           0
      2629 MEMB     28       POPS     H8R      HAL2     0.900000E-01   1.00800           0
      2630 MEMB     28       POPS     H8S      HAL2     0.900000E-01   1.00800           0
      2631 MEMB     28       POPS     C29      CEL1    -0.150000       12.0110           0
      2632 MEMB     28       POPS     H91      HEL1     0.150000       1.00800           0
      2633 MEMB     28       POPS     C210     CEL1    -0.150000       12.0110           0
      2634 MEMB     28       POPS     H101     HEL1     0.150000       1.00800           0
      2635 MEMB     28       POPS     C211     CTL2    -0.180000       12.0110           0
      2636 MEMB     28       POPS     H11R     HAL2     0.900000E-01   1.00800           0
      2637 MEMB     28       POPS     H11S     HAL2     0.900000E-01   1.00800           0
      2638 MEMB     28       POPS     C212     CTL2    -0.180000       12.0110           0
      2639 MEMB     28       POPS     H12R     HAL2     0.900000E-01   1.00800           0
      2640 MEMB     28       POPS     H12S     HAL2     0.900000E-01   1.00800           0
      2641 MEMB     28       POPS     C213     CTL2    -0.180000       12.0110           0
      2642 MEMB     28       POPS     H13R     HAL2     0.900000E-01   1.00800           0
      2643 MEMB     28       POPS     H13S     HAL2     0.900000E-01   1.00800           0
      2644 MEMB     28       POPS     C214     CTL2    -0.180000       12.0110           0
      2645 MEMB     28       POPS     H14R     HAL2     0.900000E-01   1.00800           0
      2646 MEMB     28       POPS     H14S     HAL2     0.900000E-01   1.00800           0
      2647 MEMB     28       POPS     C215     CTL2    -0.180000       12.0110           0
      2648 MEMB     28       POPS     H15R     HAL2     0.900000E-01   1.00800           0
      2649 MEMB     28       POPS     H15S     HAL2     0.900000E-01   1.00800           0
      2650 MEMB     28       POPS     C216     CTL2    -0.180000       12.0110           0
      2651 MEMB     28       POPS     H16R     HAL2     0.900000E-01   1.00800           0
      2652 MEMB     28       POPS     H16S     HAL2     0.900000E-01   1.00800           0
      2653 MEMB     28       POPS     C217     CTL2    -0.180000       12.0110           0
      2654 MEMB     28       POPS     H17R     HAL2     0.900000E-01   1.00800           0
      2655 MEMB     28       POPS     H17S     HAL2     0.900000E-01   1.00800           0
      2656 MEMB     28       POPS     C218     CTL3    -0.270000       12.0110           0
      2657 MEMB     28       POPS     H18R     HAL3     0.900000E-01   1.00800           0
      2658 MEMB     28       POPS     H18S     HAL3     0.900000E-01   1.00800           0
      2659 MEMB     28       POPS     H18T     HAL3     0.900000E-01   1.00800           0
      2660 MEMB     28       POPS     C33      CTL2    -0.180000       12.0110           0
      2661 MEMB     28       POPS     H3X      HAL2     0.900000E-01   1.00800           0
      2662 MEMB     28       POPS     H3Y      HAL2     0.900000E-01   1.00800           0
      2663 MEMB     28       POPS     C34      CTL2    -0.180000       12.0110           0
      2664 MEMB     28       POPS     H4X      HAL2     0.900000E-01   1.00800           0
      2665 MEMB     28       POPS     H4Y      HAL2     0.900000E-01   1.00800           0
      2666 MEMB     28       POPS     C35      CTL2    -0.180000       12.0110           0
      2667 MEMB     28       POPS     H5X      HAL2     0.900000E-01   1.00800           0
      2668 MEMB     28       POPS     H5Y      HAL2     0.900000E-01   1.00800           0
      2669 MEMB     28       POPS     C36      CTL2    -0.180000       12.0110           0
      2670 MEMB     28       POPS     H6X      HAL2     0.900000E-01   1.00800           0
      2671 MEMB     28       POPS     H6Y      HAL2     0.900000E-01   1.00800           0
      2672 MEMB     28       POPS     C37      CTL2    -0.180000       12.0110           0
      2673 MEMB     28       POPS     H7X      HAL2     0.900000E-01   1.00800           0
      2674 MEMB     28       POPS     H7Y      HAL2     0.900000E-01   1.00800           0
      2675 MEMB     28       POPS     C38      CTL2    -0.180000       12.0110           0
      2676 MEMB     28       POPS     H8X      HAL2     0.900000E-01   1.00800           0
      2677 MEMB     28       POPS     H8Y      HAL2     0.900000E-01   1.00800           0
      2678 MEMB     28       POPS     C39      CTL2    -0.180000       12.0110           0
      2679 MEMB     28       POPS     H9X      HAL2     0.900000E-01   1.00800           0
      2680 MEMB     28       POPS     H9Y      HAL2     0.900000E-01   1.00800           0
      2681 MEMB     28       POPS     C310     CTL2    -0.180000       12.0110           0
      2682 MEMB     28       POPS     H10X     HAL2     0.900000E-01   1.00800           0
      2683 MEMB     28       POPS     H10Y     HAL2     0.900000E-01   1.00800           0
      2684 MEMB     28       POPS     C311     CTL2    -0.180000       12.0110           0
      2685 MEMB     28       POPS     H11X     HAL2     0.900000E-01   1.00800           0
      2686 MEMB     28       POPS     H11Y     HAL2     0.900000E-01   1.00800           0
      2687 MEMB     28       POPS     C312     CTL2    -0.180000       12.0110           0
      2688 MEMB     28       POPS     H12X     HAL2     0.900000E-01   1.00800           0
      2689 MEMB     28       POPS     H12Y     HAL2     0.900000E-01   1.00800           0
      2690 MEMB     28       POPS     C313     CTL2    -0.180000       12.0110           0
      2691 MEMB     28       POPS     H13X     HAL2     0.900000E-01   1.00800           0
      2692 MEMB     28       POPS     H13Y     HAL2     0.900000E-01   1.00800           0
      2693 MEMB     28       POPS     C314     CTL2    -0.180000       12.0110           0
      2694 MEMB     28       POPS     H14X     HAL2     0.900000E-01   1.00800           0
      2695 MEMB     28       POPS     H14Y     HAL2     0.900000E-01   1.00800           0
      2696 MEMB     28       POPS     C315     CTL2    -0.180000       12.0110           0
      2697 MEMB     28       POPS     H15X     HAL2     0.900000E-01   1.00800           0
      2698 MEMB     28       POPS     H15Y     HAL2     0.900000E-01   1.00800           0
      2699 MEMB     28       POPS     C316     CTL3    -0.270000       12.0110           0
      2700 MEMB     28       POPS     H16X     HAL3     0.900000E-01   1.00800           0
      2701 MEMB     28       POPS     H16Y     HAL3     0.900000E-01   1.00800           0
      2702 MEMB     28       POPS     H16Z     HAL3     0.900000E-01   1.00800           0
      2703 MEMB     29       POPE     N        NH3L    -0.300000       14.0070           0
      2704 MEMB     29       POPE     HN1      HCL      0.330000       1.00800           0
      2705 MEMB     29       POPE     HN2      HCL      0.330000       1.00800           0
      2706 MEMB     29       POPE     HN3      HCL      0.330000       1.00800           0
      2707 MEMB     29       POPE     C12      CTL2     0.130000       12.0110           0
      2708 MEMB     29       POPE     H12A     HAL2     0.900000E-01   1.00800           0
      2709 MEMB     29       POPE     H12B     HAL2     0.900000E-01   1.00800           0
      2710 MEMB     29       POPE     C11      CTL2    -0.800000E-01   12.0110           0
      2711 MEMB     29       POPE     H11A     HAL2     0.900000E-01   1.00800           0
      2712 MEMB     29       POPE     H11B     HAL2     0.900000E-01   1.00800           0
      2713 MEMB     29       POPE     P        PL       1.500000       30.9740           0
      2714 MEMB     29       POPE     O13      O2L     -0.780000       15.9994           0
      2715 MEMB     29       POPE     O14      O2L     -0.780000       15.9994           0
      2716 MEMB     29       POPE     O11      OSLP    -0.570000       15.9994           0
      2717 MEMB     29       POPE     O12      OSLP    -0.570000       15.9994           0
      2718 MEMB     29       POPE     C1       CTL2    -0.800000E-01   12.0110           0
      2719 MEMB     29       POPE     HA       HAL2     0.900000E-01   1.00800           0
      2720 MEMB     29       POPE     HB       HAL2     0.900000E-01   1.00800           0
      2721 MEMB     29       POPE     C2       CTL1     0.170000       12.0110           0
      2722 MEMB     29       POPE     HS       HAL1     0.900000E-01   1.00800           0
      2723 MEMB     29       POPE     O21      OSL     -0.490000       15.9994           0
      2724 MEMB     29       POPE     C21      CL       0.900000       12.0110           0
      2725 MEMB     29       POPE     O22      OBL     -0.630000       15.9994           0
      2726 MEMB     29       POPE     C22      CTL2    -0.220000       12.0110           0
      2727 MEMB     29       POPE     H2R      HAL2     0.900000E-01   1.00800           0
      2728 MEMB     29       POPE     H2S      HAL2     0.900000E-01   1.00800           0
      2729 MEMB     29       POPE     C3       CTL2     0.800000E-01   12.0110           0
      2730 MEMB     29       POPE     HX       HAL2     0.900000E-01   1.00800           0
      2731 MEMB     29       POPE     HY       HAL2     0.900000E-01   1.00800           0
      2732 MEMB     29       POPE     O31      OSL     -0.490000       15.9994           0
      2733 MEMB     29       POPE     C31      CL       0.900000       12.0110           0
      2734 MEMB     29       POPE     O32      OBL     -0.630000       15.9994           0
      2735 MEMB     29       POPE     C32      CTL2    -0.220000       12.0110           0
      2736 MEMB     29       POPE     H2X      HAL2     0.900000E-01   1.00800           0
      2737 MEMB     29       POPE     H2Y      HAL2     0.900000E-01   1.00800           0
      2738 MEMB     29       POPE     C23      CTL2    -0.180000       12.0110           0
      2739 MEMB     29       POPE     H3R      HAL2     0.900000E-01   1.00800           0
      2740 MEMB     29       POPE     H3S      HAL2     0.900000E-01   1.00800           0
      2741 MEMB     29       POPE     C24      CTL2    -0.180000       12.0110           0
      2742 MEMB     29       POPE     H4R      HAL2     0.900000E-01   1.00800           0
      2743 MEMB     29       POPE     H4S      HAL2     0.900000E-01   1.00800           0
      2744 MEMB     29       POPE     C25      CTL2    -0.180000       12.0110           0
      2745 MEMB     29       POPE     H5R      HAL2     0.900000E-01   1.00800           0
      2746 MEMB     29       POPE     H5S      HAL2     0.900000E-01   1.00800           0
      2747 MEMB     29       POPE     C26      CTL2    -0.180000       12.0110           0
      2748 MEMB     29       POPE     H6R      HAL2     0.900000E-01   1.00800           0
      2749 MEMB     29       POPE     H6S      HAL2     0.900000E-01   1.00800           0
      2750 MEMB     29       POPE     C27      CTL2    -0.180000       12.0110           0
      2751 MEMB     29       POPE     H7R      HAL2     0.900000E-01   1.00800           0
      2752 MEMB     29       POPE     H7S      HAL2     0.900000E-01   1.00800           0
      2753 MEMB     29       POPE     C28      CTL2    -0.180000       12.0110           0
      2754 MEMB     29       POPE     H8R      HAL2     0.900000E-01   1.00800           0
      2755 MEMB     29       POPE     H8S      HAL2     0.900000E-01   1.00800           0
      2756 MEMB     29       POPE     C29      CEL1    -0.150000       12.0110           0
      2757 MEMB     29       POPE     H91      HEL1     0.150000       1.00800           0
      2758 MEMB     29       POPE     C210     CEL1    -0.150000       12.0110           0
      2759 MEMB     29       POPE     H101     HEL1     0.150000       1.00800           0
      2760 MEMB     29       POPE     C211     CTL2    -0.180000       12.0110           0
      2761 MEMB     29       POPE     H11R     HAL2     0.900000E-01   1.00800           0
      2762 MEMB     29       POPE     H11S     HAL2     0.900000E-01   1.00800           0
      2763 MEMB     29       POPE     C212     CTL2    -0.180000       12.0110           0
      2764 MEMB     29       POPE     H12R     HAL2     0.900000E-01   1.00800           0
      2765 MEMB     29       POPE     H12S     HAL2     0.900000E-01   1.00800           0
      2766 MEMB     29       POPE     C213     CTL2    -0.180000       12.0110           0
      2767 MEMB     29       POPE     H13R     HAL2     0.900000E-01   1.00800           0
      2768 MEMB     29       POPE     H13S     HAL2     0.900000E-01   1.00800           0
      2769 MEMB     29       POPE     C214     CTL2    -0.180000       12.0110           0
      2770 MEMB     29       POPE     H14R     HAL2     0.900000E-01   1.00800           0
      2771 MEMB     29       POPE     H14S     HAL2     0.900000E-01   1.00800           0
      2772 MEMB     29       POPE     C215     CTL2    -0.180000       12.0110           0
      2773 MEMB     29       POPE     H15R     HAL2     0.900000E-01   1.00800           0
      2774 MEMB     29       POPE     H15S     HAL2     0.900000E-01   1.00800           0
      2775 MEMB     29       POPE     C216     CTL2    -0.180000       12.0110           0
      2776 MEMB     29       POPE     H16R     HAL2     0.900000E-01   1.00800           0
      2777 MEMB     29       POPE     H16S     HAL2     0.900000E-01   1.00800           0
      2778 MEMB     29       POPE     C217     CTL2    -0.180000       12.0110           0
      2779 MEMB     29       POPE     H17R     HAL2     0.900000E-01   1.00800           0
      2780 MEMB     29       POPE     H17S     HAL2     0.900000E-01   1.00800           0
      2781 MEMB     29       POPE     C218     CTL3    -0.270000       12.0110           0
      2782 MEMB     29       POPE     H18R     HAL3     0.900000E-01   1.00800           0
      2783 MEMB     29       POPE     H18S     HAL3     0.900000E-01   1.00800           0
      2784 MEMB     29       POPE     H18T     HAL3     0.900000E-01   1.00800           0
      2785 MEMB     29       POPE     C33      CTL2    -0.180000       12.0110           0
      2786 MEMB     29       POPE     H3X      HAL2     0.900000E-01   1.00800           0
      2787 MEMB     29       POPE     H3Y      HAL2     0.900000E-01   1.00800           0
      2788 MEMB     29       POPE     C34      CTL2    -0.180000       12.0110           0
      2789 MEMB     29       POPE     H4X      HAL2     0.900000E-01   1.00800           0
      2790 MEMB     29       POPE     H4Y      HAL2     0.900000E-01   1.00800           0
      2791 MEMB     29       POPE     C35      CTL2    -0.180000       12.0110           0
      2792 MEMB     29       POPE     H5X      HAL2     0.900000E-01   1.00800           0
      2793 MEMB     29       POPE     H5Y      HAL2     0.900000E-01   1.00800           0
      2794 MEMB     29       POPE     C36      CTL2    -0.180000       12.0110           0
      2795 MEMB     29       POPE     H6X      HAL2     0.900000E-01   1.00800           0
      2796 MEMB     29       POPE     H6Y      HAL2     0.900000E-01   1.00800           0
      2797 MEMB     29       POPE     C37      CTL2    -0.180000       12.0110           0
      2798 MEMB     29       POPE     H7X      HAL2     0.900000E-01   1.00800           0
      2799 MEMB     29       POPE     H7Y      HAL2     0.900000E-01   1.00800           0
      2800 MEMB     29       POPE     C38      CTL2    -0.180000       12.0110           0
      2801 MEMB     29       POPE     H8X      HAL2     0.900000E-01   1.00800           0
      2802 MEMB     29       POPE     H8Y      HAL2     0.900000E-01   1.00800           0
      2803 MEMB     29       POPE     C39      CTL2    -0.180000       12.0110           0
      2804 MEMB     29       POPE     H9X      HAL2     0.900000E-01   1.00800           0
      2805 MEMB     29       POPE     H9Y      HAL2     0.900000E-01   1.00800           0
      2806 MEMB     29       POPE     C310     CTL2    -0.180000       12.0110           0
      2807 MEMB     29       POPE     H10X     HAL2     0.900000E-01   1.00800           0
      2808 MEMB     29       POPE     H10Y     HAL2     0.900000E-01   1.00800           0
      2809 MEMB     29       POPE     C311     CTL2    -0.180000       12.0110           0
      2810 MEMB     29       POPE     H11X     HAL2     0.900000E-01   1.00800           0
      2811 MEMB     29       POPE     H11Y     HAL2     0.900000E-01   1.00800           0
      2812 MEMB     29       POPE     C312     CTL2    -0.180000       12.0110           0
      2813 MEMB     29       POPE     H12X     HAL2     0.900000E-01   1.00800           0
      2814 MEMB     29       POPE     H12Y     HAL2     0.900000E-01   1.00800           0
      2815 MEMB     29       POPE     C313     CTL2    -0.180000       12.0110           0
      2816 MEMB     29       POPE     H13X     HAL2     0.900000E-01   1.00800           0
      2817 MEMB     29       POPE     H13Y     HAL2     0.900000E-01   1.00800           0
      2818 MEMB     29       POPE     C314     CTL2    -0.180000       12.0110           0
      2819 MEMB     29       POPE     H14X     HAL2     0.900000E-01   1.00800           0
      2820 MEMB     29       POPE     H14Y     HAL2     0.900000E-01   1.00800           0
      2821 MEMB     29       POPE     C315     CTL2    -0.180000       12.0110           0
      2822 MEMB     29       POPE     H15X     HAL2     0.900000E-01   1.00800           0
      2823 MEMB     29       POPE     H15Y     HAL2     0.900000E-01   1.00800           0
      2824 MEMB     29       POPE     C316     CTL3    -0.270000       12.0110           0
      2825 MEMB     29       POPE     H16X     HAL3     0.900000E-01   1.00800           0
      2826 MEMB     29       POPE     H16Y     HAL3     0.900000E-01   1.00800           0
      2827 MEMB     29       POPE     H16Z     HAL3     0.900000E-01   1.00800           0
      2828 MEMB     30       POPS     N        NH3L    -0.300000       14.0070           0
      2829 MEMB     30       POPS     HN1      HCL      0.330000       1.00800           0
      2830 MEMB     30       POPS     HN2      HCL      0.330000       1.00800           0
      2831 MEMB     30       POPS     HN3      HCL      0.330000       1.00800           0
      2832 MEMB     30       POPS     C12      CTL1     0.210000       12.0110           0
      2833 MEMB     30       POPS     H12A     HBL      0.100000       1.00800           0
      2834 MEMB     30       POPS     C13      CCL      0.340000       12.0110           0
      2835 MEMB     30       POPS     O13A     OCL     -0.670000       15.9994           0
      2836 MEMB     30       POPS     O13B     OCL     -0.670000       15.9994           0
      2837 MEMB     30       POPS     C11      CTL2    -0.800000E-01   12.0110           0
      2838 MEMB     30       POPS     H11A     HAL2     0.900000E-01   1.00800           0
      2839 MEMB     30       POPS     H11B     HAL2     0.900000E-01   1.00800           0
      2840 MEMB     30       POPS     P        PL       1.500000       30.9740           0
      2841 MEMB     30       POPS     O13      O2L     -0.780000       15.9994           0
      2842 MEMB     30       POPS     O14      O2L     -0.780000       15.9994           0
      2843 MEMB     30       POPS     O12      OSLP    -0.570000       15.9994           0
      2844 MEMB     30       POPS     O11      OSLP    -0.570000       15.9994           0
      2845 MEMB     30       POPS     C1       CTL2    -0.800000E-01   12.0110           0
      2846 MEMB     30       POPS     HA       HAL2     0.900000E-01   1.00800           0
      2847 MEMB     30       POPS     HB       HAL2     0.900000E-01   1.00800           0
      2848 MEMB     30       POPS     C2       CTL1     0.170000       12.0110           0
      2849 MEMB     30       POPS     HS       HAL1     0.900000E-01   1.00800           0
      2850 MEMB     30       POPS     O21      OSL     -0.490000       15.9994           0
      2851 MEMB     30       POPS     C21      CL       0.900000       12.0110           0
      2852 MEMB     30       POPS     O22      OBL     -0.630000       15.9994           0
      2853 MEMB     30       POPS     C22      CTL2    -0.220000       12.0110           0
      2854 MEMB     30       POPS     H2R      HAL2     0.900000E-01   1.00800           0
      2855 MEMB     30       POPS     H2S      HAL2     0.900000E-01   1.00800           0
      2856 MEMB     30       POPS     C3       CTL2     0.800000E-01   12.0110           0
      2857 MEMB     30       POPS     HX       HAL2     0.900000E-01   1.00800           0
      2858 MEMB     30       POPS     HY       HAL2     0.900000E-01   1.00800           0
      2859 MEMB     30       POPS     O31      OSL     -0.490000       15.9994           0
      2860 MEMB     30       POPS     C31      CL       0.900000       12.0110           0
      2861 MEMB     30       POPS     O32      OBL     -0.630000       15.9994           0
      2862 MEMB     30       POPS     C32      CTL2    -0.220000       12.0110           0
      2863 MEMB     30       POPS     H2X      HAL2     0.900000E-01   1.00800           0
      2864 MEMB     30       POPS     H2Y      HAL2     0.900000E-01   1.00800           0
      2865 MEMB     30       POPS     C23      CTL2    -0.180000       12.0110           0
      2866 MEMB     30       POPS     H3R      HAL2     0.900000E-01   1.00800           0
      2867 MEMB     30       POPS     H3S      HAL2     0.900000E-01   1.00800           0
      2868 MEMB     30       POPS     C24      CTL2    -0.180000       12.0110           0
      2869 MEMB     30       POPS     H4R      HAL2     0.900000E-01   1.00800           0
      2870 MEMB     30       POPS     H4S      HAL2     0.900000E-01   1.00800           0
      2871 MEMB     30       POPS     C25      CTL2    -0.180000       12.0110           0
      2872 MEMB     30       POPS     H5R      HAL2     0.900000E-01   1.00800           0
      2873 MEMB     30       POPS     H5S      HAL2     0.900000E-01   1.00800           0
      2874 MEMB     30       POPS     C26      CTL2    -0.180000       12.0110           0
      2875 MEMB     30       POPS     H6R      HAL2     0.900000E-01   1.00800           0
      2876 MEMB     30       POPS     H6S      HAL2     0.900000E-01   1.00800           0
      2877 MEMB     30       POPS     C27      CTL2    -0.180000       12.0110           0
      2878 MEMB     30       POPS     H7R      HAL2     0.900000E-01   1.00800           0
      2879 MEMB     30       POPS     H7S      HAL2     0.900000E-01   1.00800           0
      2880 MEMB     30       POPS     C28      CTL2    -0.180000       12.0110           0
      2881 MEMB     30       POPS     H8R      HAL2     0.900000E-01   1.00800           0
      2882 MEMB     30       POPS     H8S      HAL2     0.900000E-01   1.00800           0
      2883 MEMB     30       POPS     C29      CEL1    -0.150000       12.0110           0
      2884 MEMB     30       POPS     H91      HEL1     0.150000       1.00800           0
      2885 MEMB     30       POPS     C210     CEL1    -0.150000       12.0110           0
      2886 MEMB     30       POPS     H101     HEL1     0.150000       1.00800           0
      2887 MEMB     30       POPS     C211     CTL2    -0.180000       12.0110           0
      2888 MEMB     30       POPS     H11R     HAL2     0.900000E-01   1.00800           0
      2889 MEMB     30       POPS     H11S     HAL2     0.900000E-01   1.00800           0
      2890 MEMB     30       POPS     C212     CTL2    -0.180000       12.0110           0
      2891 MEMB     30       POPS     H12R     HAL2     0.900000E-01   1.00800           0
      2892 MEMB     30       POPS     H12S     HAL2     0.900000E-01   1.00800           0
      2893 MEMB     30       POPS     C213     CTL2    -0.180000       12.0110           0
      2894 MEMB     30       POPS     H13R     HAL2     0.900000E-01   1.00800           0
      2895 MEMB     30       POPS     H13S     HAL2     0.900000E-01   1.00800           0
      2896 MEMB     30       POPS     C214     CTL2    -0.180000       12.0110           0
      2897 MEMB     30       POPS     H14R     HAL2     0.900000E-01   1.00800           0
      2898 MEMB     30       POPS     H14S     HAL2     0.900000E-01   1.00800           0
      2899 MEMB     30       POPS     C215     CTL2    -0.180000       12.0110           0
      2900 MEMB     30       POPS     H15R     HAL2     0.900000E-01   1.00800           0
      2901 MEMB     30       POPS     H15S     HAL2     0.900000E-01   1.00800           0
      2902 MEMB     30       POPS     C216     CTL2    -0.180000       12.0110           0
      2903 MEMB     30       POPS     H16R     HAL2     0.900000E-01   1.00800           0
      2904 MEMB     30       POPS     H16S     HAL2     0.900000E-01   1.00800           0
      2905 MEMB     30       POPS     C217     CTL2    -0.180000       12.0110           0
      2906 MEMB     30       POPS     H17R     HAL2     0.900000E-01   1.00800           0
      2907 MEMB     30       POPS     H17S     HAL2     0.900000E-01   1.00800           0
      2908 MEMB     30       POPS     C218     CTL3    -0.270000       12.0110           0
      2909 MEMB     30       POPS     H18R     HAL3     0.900000E-01   1.00800           0
      2910 MEMB     30       POPS     H18S     HAL3     0.900000E-01   1.00800           0
      2911 MEMB     30       POPS     H18T     HAL3     0.900000E-01   1.00800           0
      2912 MEMB     30       POPS     C33      CTL2    -0.180000       12.0110           0
      2913 MEMB     30       POPS     H3X      HAL2     0.900000E-01   1.00800           0
      2914 MEMB     30       POPS     H3Y      HAL2     0.900000E-01   1.00800           0
      2915 MEMB     30       POPS     C34      CTL2    -0.180000       12.0110           0
      2916 MEMB     30       POPS     H4X      HAL2     0.900000E-01   1.00800           0
      2917 MEMB     30       POPS     H4Y      HAL2     0.900000E-01   1.00800           0
      2918 MEMB     30       POPS     C35      CTL2    -0.180000       12.0110           0
      2919 MEMB     30       POPS     H5X      HAL2     0.900000E-01   1.00800           0
      2920 MEMB     30       POPS     H5Y      HAL2     0.900000E-01   1.00800           0
      2921 MEMB     30       POPS     C36      CTL2    -0.180000       12.0110           0
      2922 MEMB     30       POPS     H6X      HAL2     0.900000E-01   1.00800           0
      2923 MEMB     30       POPS     H6Y      HAL2     0.900000E-01   1.00800           0
      2924 MEMB     30       POPS     C37      CTL2    -0.180000       12.0110           0
      2925 MEMB     30       POPS     H7X      HAL2     0.900000E-01   1.00800           0
      2926 MEMB     30       POPS     H7Y      HAL2     0.900000E-01   1.00800           0
      2927 MEMB     30       POPS     C38      CTL2    -0.180000       12.0110           0
      2928 MEMB     30       POPS     H8X      HAL2     0.900000E-01   1.00800           0
      2929 MEMB     30       POPS     H8Y      HAL2     0.900000E-01   1.00800           0
      2930 MEMB     30       POPS     C39      CTL2    -0.180000       12.0110           0
      2931 MEMB     30       POPS     H9X      HAL2     0.900000E-01   1.00800           0
      2932 MEMB     30       POPS     H9Y      HAL2     0.900000E-01   1.00800           0
      2933 MEMB     30       POPS     C310     CTL2    -0.180000       12.0110           0
      2934 MEMB     30       POPS     H10X     HAL2     0.900000E-01   1.00800           0
      2935 MEMB     30       POPS     H10Y     HAL2     0.900000E-01   1.00800           0
      2936 MEMB     30       POPS     C311     CTL2    -0.180000       12.0110           0
      2937 MEMB     30       POPS     H11X     HAL2     0.900000E-01   1.00800           0
      2938 MEMB     30       POPS     H11Y     HAL2     0.900000E-01   1.00800           0
      2939 MEMB     30       POPS     C312     CTL2    -0.180000       12.0110           0
      2940 MEMB     30       POPS     H12X     HAL2     0.900000E-01   1.00800           0
      2941 MEMB     30       POPS     H12Y     HAL2     0.900000E-01   1.00800           0
      2942 MEMB     30       POPS     C313     CTL2    -0.180000       12.0110           0
      2943 MEMB     30       POPS     H13X     HAL2     0.900000E-01   1.00800           0
      2944 MEMB     30       POPS     H13Y     HAL2     0.900000E-01   1.00800           0
      2945 MEMB     30       POPS     C314     CTL2    -0.180000       12.0110           0
      2946 MEMB     30       POPS     H14X     HAL2     0.900000E-01   1.00800           0
      2947 MEMB     30       POPS     H14Y     HAL2     0.900000E-01   1.00800           0
      2948 MEMB     30       POPS     C315     CTL2    -0.180000       12.0110           0
      2949 MEMB     30       POPS     H15X     HAL2     0.900000E-01   1.00800           0
      2950 MEMB     30       POPS     H15Y     HAL2     0.900000E-01   1.00800           0
      2951 MEMB     30       POPS     C316     CTL3    -0.270000       12.0110           0
      2952 MEMB     30       POPS     H16X     HAL3     0.900000E-01   1.00800           0
      2953 MEMB     30       POPS     H16Y     HAL3     0.900000E-01   1.00800           0
      2954 MEMB     30       POPS     H16Z     HAL3     0.900000E-01   1.00800           0
      2955 MEMB     31       POPC     N        NTL     -0.600000       14.0070           0
      2956 MEMB     31       POPC     C12      CTL2    -0.100000       12.0110           0
      2957 MEMB     31       POPC     H12A     HL       0.250000       1.00800           0
      2958 MEMB     31       POPC     H12B     HL       0.250000       1.00800           0
      2959 MEMB     31       POPC     C13      CTL5    -0.350000       12.0110           0
      2960 MEMB     31       POPC     H13A     HL       0.250000       1.00800           0
      2961 MEMB     31       POPC     H13B     HL       0.250000       1.00800           0
      2962 MEMB     31       POPC     H13C     HL       0.250000       1.00800           0
      2963 MEMB     31       POPC     C14      CTL5    -0.350000       12.0110           0
      2964 MEMB     31       POPC     H14A     HL       0.250000       1.00800           0
      2965 MEMB     31       POPC     H14B     HL       0.250000       1.00800           0
      2966 MEMB     31       POPC     H14C     HL       0.250000       1.00800           0
      2967 MEMB     31       POPC     C15      CTL5    -0.350000       12.0110           0
      2968 MEMB     31       POPC     H15A     HL       0.250000       1.00800           0
      2969 MEMB     31       POPC     H15B     HL       0.250000       1.00800           0
      2970 MEMB     31       POPC     H15C     HL       0.250000       1.00800           0
      2971 MEMB     31       POPC     C11      CTL2    -0.800000E-01   12.0110           0
      2972 MEMB     31       POPC     H11A     HAL2     0.900000E-01   1.00800           0
      2973 MEMB     31       POPC     H11B     HAL2     0.900000E-01   1.00800           0
      2974 MEMB     31       POPC     P        PL       1.500000       30.9740           0
      2975 MEMB     31       POPC     O13      O2L     -0.780000       15.9994           0
      2976 MEMB     31       POPC     O14      O2L     -0.780000       15.9994           0
      2977 MEMB     31       POPC     O12      OSLP    -0.570000       15.9994           0
      2978 MEMB     31       POPC     O11      OSLP    -0.570000       15.9994           0
      2979 MEMB     31       POPC     C1       CTL2    -0.800000E-01   12.0110           0
      2980 MEMB     31       POPC     HA       HAL2     0.900000E-01   1.00800           0
      2981 MEMB     31       POPC     HB       HAL2     0.900000E-01   1.00800           0
      2982 MEMB     31       POPC     C2       CTL1     0.170000       12.0110           0
      2983 MEMB     31       POPC     HS       HAL1     0.900000E-01   1.00800           0
      2984 MEMB     31       POPC     O21      OSL     -0.490000       15.9994           0
      2985 MEMB     31       POPC     C21      CL       0.900000       12.0110           0
      2986 MEMB     31       POPC     O22      OBL     -0.630000       15.9994           0
      2987 MEMB     31       POPC     C22      CTL2    -0.220000       12.0110           0
      2988 MEMB     31       POPC     H2R      HAL2     0.900000E-01   1.00800           0
      2989 MEMB     31       POPC     H2S      HAL2     0.900000E-01   1.00800           0
      2990 MEMB     31       POPC     C3       CTL2     0.800000E-01   12.0110           0
      2991 MEMB     31       POPC     HX       HAL2     0.900000E-01   1.00800           0
      2992 MEMB     31       POPC     HY       HAL2     0.900000E-01   1.00800           0
      2993 MEMB     31       POPC     O31      OSL     -0.490000       15.9994           0
      2994 MEMB     31       POPC     C31      CL       0.900000       12.0110           0
      2995 MEMB     31       POPC     O32      OBL     -0.630000       15.9994           0
      2996 MEMB     31       POPC     C32      CTL2    -0.220000       12.0110           0
      2997 MEMB     31       POPC     H2X      HAL2     0.900000E-01   1.00800           0
      2998 MEMB     31       POPC     H2Y      HAL2     0.900000E-01   1.00800           0
      2999 MEMB     31       POPC     C23      CTL2    -0.180000       12.0110           0
      3000 MEMB     31       POPC     H3R      HAL2     0.900000E-01   1.00800           0
      3001 MEMB     31       POPC     H3S      HAL2     0.900000E-01   1.00800           0
      3002 MEMB     31       POPC     C24      CTL2    -0.180000       12.0110           0
      3003 MEMB     31       POPC     H4R      HAL2     0.900000E-01   1.00800           0
      3004 MEMB     31       POPC     H4S      HAL2     0.900000E-01   1.00800           0
      3005 MEMB     31       POPC     C25      CTL2    -0.180000       12.0110           0
      3006 MEMB     31       POPC     H5R      HAL2     0.900000E-01   1.00800           0
      3007 MEMB     31       POPC     H5S      HAL2     0.900000E-01   1.00800           0
      3008 MEMB     31       POPC     C26      CTL2    -0.180000       12.0110           0
      3009 MEMB     31       POPC     H6R      HAL2     0.900000E-01   1.00800           0
      3010 MEMB     31       POPC     H6S      HAL2     0.900000E-01   1.00800           0
      3011 MEMB     31       POPC     C27      CTL2    -0.180000       12.0110           0
      3012 MEMB     31       POPC     H7R      HAL2     0.900000E-01   1.00800           0
      3013 MEMB     31       POPC     H7S      HAL2     0.900000E-01   1.00800           0
      3014 MEMB     31       POPC     C28      CTL2    -0.180000       12.0110           0
      3015 MEMB     31       POPC     H8R      HAL2     0.900000E-01   1.00800           0
      3016 MEMB     31       POPC     H8S      HAL2     0.900000E-01   1.00800           0
      3017 MEMB     31       POPC     C29      CEL1    -0.150000       12.0110           0
      3018 MEMB     31       POPC     H91      HEL1     0.150000       1.00800           0
      3019 MEMB     31       POPC     C210     CEL1    -0.150000       12.0110           0
      3020 MEMB     31       POPC     H101     HEL1     0.150000       1.00800           0
      3021 MEMB     31       POPC     C211     CTL2    -0.180000       12.0110           0
      3022 MEMB     31       POPC     H11R     HAL2     0.900000E-01   1.00800           0
      3023 MEMB     31       POPC     H11S     HAL2     0.900000E-01   1.00800           0
      3024 MEMB     31       POPC     C212     CTL2    -0.180000       12.0110           0
      3025 MEMB     31       POPC     H12R     HAL2     0.900000E-01   1.00800           0
      3026 MEMB     31       POPC     H12S     HAL2     0.900000E-01   1.00800           0
      3027 MEMB     31       POPC     C213     CTL2    -0.180000       12.0110           0
      3028 MEMB     31       POPC     H13R     HAL2     0.900000E-01   1.00800           0
      3029 MEMB     31       POPC     H13S     HAL2     0.900000E-01   1.00800           0
      3030 MEMB     31       POPC     C214     CTL2    -0.180000       12.0110           0
      3031 MEMB     31       POPC     H14R     HAL2     0.900000E-01   1.00800           0
      3032 MEMB     31       POPC     H14S     HAL2     0.900000E-01   1.00800           0
      3033 MEMB     31       POPC     C215     CTL2    -0.180000       12.0110           0
      3034 MEMB     31       POPC     H15R     HAL2     0.900000E-01   1.00800           0
      3035 MEMB     31       POPC     H15S     HAL2     0.900000E-01   1.00800           0
      3036 MEMB     31       POPC     C216     CTL2    -0.180000       12.0110           0
      3037 MEMB     31       POPC     H16R     HAL2     0.900000E-01   1.00800           0
      3038 MEMB     31       POPC     H16S     HAL2     0.900000E-01   1.00800           0
      3039 MEMB     31       POPC     C217     CTL2    -0.180000       12.0110           0
      3040 MEMB     31       POPC     H17R     HAL2     0.900000E-01   1.00800           0
      3041 MEMB     31       POPC     H17S     HAL2     0.900000E-01   1.00800           0
      3042 MEMB     31       POPC     C218     CTL3    -0.270000       12.0110           0
      3043 MEMB     31       POPC     H18R     HAL3     0.900000E-01   1.00800           0
      3044 MEMB     31       POPC     H18S     HAL3     0.900000E-01   1.00800           0
      3045 MEMB     31       POPC     H18T     HAL3     0.900000E-01   1.00800           0
      3046 MEMB     31       POPC     C33      CTL2    -0.180000       12.0110           0
      3047 MEMB     31       POPC     H3X      HAL2     0.900000E-01   1.00800           0
      3048 MEMB     31       POPC     H3Y      HAL2     0.900000E-01   1.00800           0
      3049 MEMB     31       POPC     C34      CTL2    -0.180000       12.0110           0
      3050 MEMB     31       POPC     H4X      HAL2     0.900000E-01   1.00800           0
      3051 MEMB     31       POPC     H4Y      HAL2     0.900000E-01   1.00800           0
      3052 MEMB     31       POPC     C35      CTL2    -0.180000       12.0110           0
      3053 MEMB     31       POPC     H5X      HAL2     0.900000E-01   1.00800           0
      3054 MEMB     31       POPC     H5Y      HAL2     0.900000E-01   1.00800           0
      3055 MEMB     31       POPC     C36      CTL2    -0.180000       12.0110           0
      3056 MEMB     31       POPC     H6X      HAL2     0.900000E-01   1.00800           0
      3057 MEMB     31       POPC     H6Y      HAL2     0.900000E-01   1.00800           0
      3058 MEMB     31       POPC     C37      CTL2    -0.180000       12.0110           0
      3059 MEMB     31       POPC     H7X      HAL2     0.900000E-01   1.00800           0
      3060 MEMB     31       POPC     H7Y      HAL2     0.900000E-01   1.00800           0
      3061 MEMB     31       POPC     C38      CTL2    -0.180000       12.0110           0
      3062 MEMB     31       POPC     H8X      HAL2     0.900000E-01   1.00800           0
      3063 MEMB     31       POPC     H8Y      HAL2     0.900000E-01   1.00800           0
      3064 MEMB     31       POPC     C39      CTL2    -0.180000       12.0110           0
      3065 MEMB     31       POPC     H9X      HAL2     0.900000E-01   1.00800           0
      3066 MEMB     31       POPC     H9Y      HAL2     0.900000E-01   1.00800           0
      3067 MEMB     31       POPC     C310     CTL2    -0.180000       12.0110           0
      3068 MEMB     31       POPC     H10X     HAL2     0.900000E-01   1.00800           0
      3069 MEMB     31       POPC     H10Y     HAL2     0.900000E-01   1.00800           0
      3070 MEMB     31       POPC     C311     CTL2    -0.180000       12.0110           0
      3071 MEMB     31       POPC     H11X     HAL2     0.900000E-01   1.00800           0
      3072 MEMB     31       POPC     H11Y     HAL2     0.900000E-01   1.00800           0
      3073 MEMB     31       POPC     C312     CTL2    -0.180000       12.0110           0
      3074 MEMB     31       POPC     H12X     HAL2     0.900000E-01   1.00800           0
      3075 MEMB     31       POPC     H12Y     HAL2     0.900000E-01   1.00800           0
      3076 MEMB     31       POPC     C313     CTL2    -0.180000       12.0110           0
      3077 MEMB     31       POPC     H13X     HAL2     0.900000E-01   1.00800           0
      3078 MEMB     31       POPC     H13Y     HAL2     0.900000E-01   1.00800           0
      3079 MEMB     31       POPC     C314     CTL2    -0.180000       12.0110           0
      3080 MEMB     31       POPC     H14X     HAL2     0.900000E-01   1.00800           0
      3081 MEMB     31       POPC     H14Y     HAL2     0.900000E-01   1.00800           0
      3082 MEMB     31       POPC     C315     CTL2    -0.180000       12.0110           0
      3083 MEMB     31       POPC     H15X     HAL2     0.900000E-01   1.00800           0
      3084 MEMB     31       POPC     H15Y     HAL2     0.900000E-01   1.00800           0
      3085 MEMB     31       POPC     C316     CTL3    -0.270000       12.0110           0
      3086 MEMB     31       POPC     H16X     HAL3     0.900000E-01   1.00800           0
      3087 MEMB     31       POPC     H16Y     HAL3     0.900000E-01   1.00800           0
      3088 MEMB     31       POPC     H16Z     HAL3     0.900000E-01   1.00800           0
      3089 MEMB     32       POPE     N        NH3L    -0.300000       14.0070           0
      3090 MEMB     32       POPE     HN1      HCL      0.330000       1.00800           0
      3091 MEMB     32       POPE     HN2      HCL      0.330000       1.00800           0
      3092 MEMB     32       POPE     HN3      HCL      0.330000       1.00800           0
      3093 MEMB     32       POPE     C12      CTL2     0.130000       12.0110           0
      3094 MEMB     32       POPE     H12A     HAL2     0.900000E-01   1.00800           0
      3095 MEMB     32       POPE     H12B     HAL2     0.900000E-01   1.00800           0
      3096 MEMB     32       POPE     C11      CTL2    -0.800000E-01   12.0110           0
      3097 MEMB     32       POPE     H11A     HAL2     0.900000E-01   1.00800           0
      3098 MEMB     32       POPE     H11B     HAL2     0.900000E-01   1.00800           0
      3099 MEMB     32       POPE     P        PL       1.500000       30.9740           0
      3100 MEMB     32       POPE     O13      O2L     -0.780000       15.9994           0
      3101 MEMB     32       POPE     O14      O2L     -0.780000       15.9994           0
      3102 MEMB     32       POPE     O11      OSLP    -0.570000       15.9994           0
      3103 MEMB     32       POPE     O12      OSLP    -0.570000       15.9994           0
      3104 MEMB     32       POPE     C1       CTL2    -0.800000E-01   12.0110           0
      3105 MEMB     32       POPE     HA       HAL2     0.900000E-01   1.00800           0
      3106 MEMB     32       POPE     HB       HAL2     0.900000E-01   1.00800           0
      3107 MEMB     32       POPE     C2       CTL1     0.170000       12.0110           0
      3108 MEMB     32       POPE     HS       HAL1     0.900000E-01   1.00800           0
      3109 MEMB     32       POPE     O21      OSL     -0.490000       15.9994           0
      3110 MEMB     32       POPE     C21      CL       0.900000       12.0110           0
      3111 MEMB     32       POPE     O22      OBL     -0.630000       15.9994           0
      3112 MEMB     32       POPE     C22      CTL2    -0.220000       12.0110           0
      3113 MEMB     32       POPE     H2R      HAL2     0.900000E-01   1.00800           0
      3114 MEMB     32       POPE     H2S      HAL2     0.900000E-01   1.00800           0
      3115 MEMB     32       POPE     C3       CTL2     0.800000E-01   12.0110           0
      3116 MEMB     32       POPE     HX       HAL2     0.900000E-01   1.00800           0
      3117 MEMB     32       POPE     HY       HAL2     0.900000E-01   1.00800           0
      3118 MEMB     32       POPE     O31      OSL     -0.490000       15.9994           0
      3119 MEMB     32       POPE     C31      CL       0.900000       12.0110           0
      3120 MEMB     32       POPE     O32      OBL     -0.630000       15.9994           0
      3121 MEMB     32       POPE     C32      CTL2    -0.220000       12.0110           0
      3122 MEMB     32       POPE     H2X      HAL2     0.900000E-01   1.00800           0
      3123 MEMB     32       POPE     H2Y      HAL2     0.900000E-01   1.00800           0
      3124 MEMB     32       POPE     C23      CTL2    -0.180000       12.0110           0
      3125 MEMB     32       POPE     H3R      HAL2     0.900000E-01   1.00800           0
      3126 MEMB     32       POPE     H3S      HAL2     0.900000E-01   1.00800           0
      3127 MEMB     32       POPE     C24      CTL2    -0.180000       12.0110           0
      3128 MEMB     32       POPE     H4R      HAL2     0.900000E-01   1.00800           0
      3129 MEMB     32       POPE     H4S      HAL2     0.900000E-01   1.00800           0
      3130 MEMB     32       POPE     C25      CTL2    -0.180000       12.0110           0
      3131 MEMB     32       POPE     H5R      HAL2     0.900000E-01   1.00800           0
      3132 MEMB     32       POPE     H5S      HAL2     0.900000E-01   1.00800           0
      3133 MEMB     32       POPE     C26      CTL2    -0.180000       12.0110           0
      3134 MEMB     32       POPE     H6R      HAL2     0.900000E-01   1.00800           0
      3135 MEMB     32       POPE     H6S      HAL2     0.900000E-01   1.00800           0
      3136 MEMB     32       POPE     C27      CTL2    -0.180000       12.0110           0
      3137 MEMB     32       POPE     H7R      HAL2     0.900000E-01   1.00800           0
      3138 MEMB     32       POPE     H7S      HAL2     0.900000E-01   1.00800           0
      3139 MEMB     32       POPE     C28      CTL2    -0.180000       12.0110           0
      3140 MEMB     32       POPE     H8R      HAL2     0.900000E-01   1.00800           0
      3141 MEMB     32       POPE     H8S      HAL2     0.900000E-01   1.00800           0
      3142 MEMB     32       POPE     C29      CEL1    -0.150000       12.0110           0
      3143 MEMB     32       POPE     H91      HEL1     0.150000       1.00800           0
      3144 MEMB     32       POPE     C210     CEL1    -0.150000       12.0110           0
      3145 MEMB     32       POPE     H101     HEL1     0.150000       1.00800           0
      3146 MEMB     32       POPE     C211     CTL2    -0.180000       12.0110           0
      3147 MEMB     32       POPE     H11R     HAL2     0.900000E-01   1.00800           0
      3148 MEMB     32       POPE     H11S     HAL2     0.900000E-01   1.00800           0
      3149 MEMB     32       POPE     C212     CTL2    -0.180000       12.0110           0
      3150 MEMB     32       POPE     H12R     HAL2     0.900000E-01   1.00800           0
      3151 MEMB     32       POPE     H12S     HAL2     0.900000E-01   1.00800           0
      3152 MEMB     32       POPE     C213     CTL2    -0.180000       12.0110           0
      3153 MEMB     32       POPE     H13R     HAL2     0.900000E-01   1.00800           0
      3154 MEMB     32       POPE     H13S     HAL2     0.900000E-01   1.00800           0
      3155 MEMB     32       POPE     C214     CTL2    -0.180000       12.0110           0
      3156 MEMB     32       POPE     H14R     HAL2     0.900000E-01   1.00800           0
      3157 MEMB     32       POPE     H14S     HAL2     0.900000E-01   1.00800           0
      3158 MEMB     32       POPE     C215     CTL2    -0.180000       12.0110           0
      3159 MEMB     32       POPE     H15R     HAL2     0.900000E-01   1.00800           0
      3160 MEMB     32       POPE     H15S     HAL2     0.900000E-01   1.00800           0
      3161 MEMB     32       POPE     C216     CTL2    -0.180000       12.0110           0
      3162 MEMB     32       POPE     H16R     HAL2     0.900000E-01   1.00800           0
      3163 MEMB     32       POPE     H16S     HAL2     0.900000E-01   1.00800           0
      3164 MEMB     32       POPE     C217     CTL2    -0.180000       12.0110           0
      3165 MEMB     32       POPE     H17R     HAL2     0.900000E-01   1.00800           0
      3166 MEMB     32       POPE     H17S     HAL2     0.900000E-01   1.00800           0
      3167 MEMB     32       POPE     C218     CTL3    -0.270000       12.0110           0
      3168 MEMB     32       POPE     H18R     HAL3     0.900000E-01   1.00800           0
      3169 MEMB     32       POPE     H18S     HAL3     0.900000E-01   1.00800           0
      3170 MEMB     32       POPE     H18T     HAL3     0.900000E-01   1.00800           0
      3171 MEMB     32       POPE     C33      CTL2    -0.180000       12.0110           0
      3172 MEMB     32       POPE     H3X      HAL2     0.900000E-01   1.00800           0
      3173 MEMB     32       POPE     H3Y      HAL2     0.900000E-01   1.00800           0
      3174 MEMB     32       POPE     C34      CTL2    -0.180000       12.0110           0
      3175 MEMB     32       POPE     H4X      HAL2     0.900000E-01   1.00800           0
      3176 MEMB     32       POPE     H4Y      HAL2     0.900000E-01   1.00800           0
      3177 MEMB     32       POPE     C35      CTL2    -0.180000       12.0110           0
      3178 MEMB     32       POPE     H5X      HAL2     0.900000E-01   1.00800           0
      3179 MEMB     32       POPE     H5Y      HAL2     0.900000E-01   1.00800           0
      3180 MEMB     32       POPE     C36      CTL2    -0.180000       12.0110           0
      3181 MEMB     32       POPE     H6X      HAL2     0.900000E-01   1.00800           0
      3182 MEMB     32       POPE     H6Y      HAL2     0.900000E-01   1.00800           0
      3183 MEMB     32       POPE     C37      CTL2    -0.180000       12.0110           0
      3184 MEMB     32       POPE     H7X      HAL2     0.900000E-01   1.00800           0
      3185 MEMB     32       POPE     H7Y      HAL2     0.900000E-01   1.00800           0
      3186 MEMB     32       POPE     C38      CTL2    -0.180000       12.0110           0
      3187 MEMB     32       POPE     H8X      HAL2     0.900000E-01   1.00800           0
      3188 MEMB     32       POPE     H8Y      HAL2     0.900000E-01   1.00800           0
      3189 MEMB     32       POPE     C39      CTL2    -0.180000       12.0110           0
      3190 MEMB     32       POPE     H9X      HAL2     0.900000E-01   1.00800           0
      3191 MEMB     32       POPE     H9Y      HAL2     0.900000E-01   1.00800           0
      3192 MEMB     32       POPE     C310     CTL2    -0.180000       12.0110           0
      3193 MEMB     32       POPE     H10X     HAL2     0.900000E-01   1.00800           0
      3194 MEMB     32       POPE     H10Y     HAL2     0.900000E-01   1.00800           0
      3195 MEMB     32       POPE     C311     CTL2    -0.180000       12.0110           0
      3196 MEMB     32       POPE     H11X     HAL2     0.900000E-01   1.00800           0
      3197 MEMB     32       POPE     H11Y     HAL2     0.900000E-01   1.00800           0
      3198 MEMB     32       POPE     C312     CTL2    -0.180000       12.0110           0
      3199 MEMB     32       POPE     H12X     HAL2     0.900000E-01   1.00800           0
      3200 MEMB     32       POPE     H12Y     HAL2     0.900000E-01   1.00800           0
      3201 MEMB     32       POPE     C313     CTL2    -0.180000       12.0110           0
      3202 MEMB     32       POPE     H13X     HAL2     0.900000E-01   1.00800           0
      3203 MEMB     32       POPE     H13Y     HAL2     0.900000E-01   1.00800           0
      3204 MEMB     32       POPE     C314     CTL2    -0.180000       12.0110           0
      3205 MEMB     32       POPE     H14X     HAL2     0.900000E-01   1.00800           0
      3206 MEMB     32       POPE     H14Y     HAL2     0.900000E-01   1.00800           0
      3207 MEMB     32       POPE     C315     CTL2    -0.180000       12.0110           0
      3208 MEMB     32       POPE     H15X     HAL2     0.900000E-01   1.00800           0
      3209 MEMB     32       POPE     H15Y     HAL2     0.900000E-01   1.00800           0
      3210 MEMB     32       POPE     C316     CTL3    -0.270000       12.0110           0
      3211 MEMB     32       POPE     H16X     HAL3     0.900000E-01   1.00800           0
      3212 MEMB     32       POPE     H16Y     HAL3     0.900000E-01   1.00800           0
      3213 MEMB     32       POPE     H16Z     HAL3     0.900000E-01   1.00800           0
      3214 MEMB     33       POPC     N        NTL     -0.600000       14.0070           0
      3215 MEMB     33       POPC     C12      CTL2    -0.100000       12.0110           0
      3216 MEMB     33       POPC     H12A     HL       0.250000       1.00800           0
      3217 MEMB     33       POPC     H12B     HL       0.250000       1.00800           0
      3218 MEMB     33       POPC     C13      CTL5    -0.350000       12.0110           0
      3219 MEMB     33       POPC     H13A     HL       0.250000       1.00800           0
      3220 MEMB     33       POPC     H13B     HL       0.250000       1.00800           0
      3221 MEMB     33       POPC     H13C     HL       0.250000       1.00800           0
      3222 MEMB     33       POPC     C14      CTL5    -0.350000       12.0110           0
      3223 MEMB     33       POPC     H14A     HL       0.250000       1.00800           0
      3224 MEMB     33       POPC     H14B     HL       0.250000       1.00800           0
      3225 MEMB     33       POPC     H14C     HL       0.250000       1.00800           0
      3226 MEMB     33       POPC     C15      CTL5    -0.350000       12.0110           0
      3227 MEMB     33       POPC     H15A     HL       0.250000       1.00800           0
      3228 MEMB     33       POPC     H15B     HL       0.250000       1.00800           0
      3229 MEMB     33       POPC     H15C     HL       0.250000       1.00800           0
      3230 MEMB     33       POPC     C11      CTL2    -0.800000E-01   12.0110           0
      3231 MEMB     33       POPC     H11A     HAL2     0.900000E-01   1.00800           0
      3232 MEMB     33       POPC     H11B     HAL2     0.900000E-01   1.00800           0
      3233 MEMB     33       POPC     P        PL       1.500000       30.9740           0
      3234 MEMB     33       POPC     O13      O2L     -0.780000       15.9994           0
      3235 MEMB     33       POPC     O14      O2L     -0.780000       15.9994           0
      3236 MEMB     33       POPC     O12      OSLP    -0.570000       15.9994           0
      3237 MEMB     33       POPC     O11      OSLP    -0.570000       15.9994           0
      3238 MEMB     33       POPC     C1       CTL2    -0.800000E-01   12.0110           0
      3239 MEMB     33       POPC     HA       HAL2     0.900000E-01   1.00800           0
      3240 MEMB     33       POPC     HB       HAL2     0.900000E-01   1.00800           0
      3241 MEMB     33       POPC     C2       CTL1     0.170000       12.0110           0
      3242 MEMB     33       POPC     HS       HAL1     0.900000E-01   1.00800           0
      3243 MEMB     33       POPC     O21      OSL     -0.490000       15.9994           0
      3244 MEMB     33       POPC     C21      CL       0.900000       12.0110           0
      3245 MEMB     33       POPC     O22      OBL     -0.630000       15.9994           0
      3246 MEMB     33       POPC     C22      CTL2    -0.220000       12.0110           0
      3247 MEMB     33       POPC     H2R      HAL2     0.900000E-01   1.00800           0
      3248 MEMB     33       POPC     H2S      HAL2     0.900000E-01   1.00800           0
      3249 MEMB     33       POPC     C3       CTL2     0.800000E-01   12.0110           0
      3250 MEMB     33       POPC     HX       HAL2     0.900000E-01   1.00800           0
      3251 MEMB     33       POPC     HY       HAL2     0.900000E-01   1.00800           0
      3252 MEMB     33       POPC     O31      OSL     -0.490000       15.9994           0
      3253 MEMB     33       POPC     C31      CL       0.900000       12.0110           0
      3254 MEMB     33       POPC     O32      OBL     -0.630000       15.9994           0
      3255 MEMB     33       POPC     C32      CTL2    -0.220000       12.0110           0
      3256 MEMB     33       POPC     H2X      HAL2     0.900000E-01   1.00800           0
      3257 MEMB     33       POPC     H2Y      HAL2     0.900000E-01   1.00800           0
      3258 MEMB     33       POPC     C23      CTL2    -0.180000       12.0110           0
      3259 MEMB     33       POPC     H3R      HAL2     0.900000E-01   1.00800           0
      3260 MEMB     33       POPC     H3S      HAL2     0.900000E-01   1.00800           0
      3261 MEMB     33       POPC     C24      CTL2    -0.180000       12.0110           0
      3262 MEMB     33       POPC     H4R      HAL2     0.900000E-01   1.00800           0
      3263 MEMB     33       POPC     H4S      HAL2     0.900000E-01   1.00800           0
      3264 MEMB     33       POPC     C25      CTL2    -0.180000       12.0110           0
      3265 MEMB     33       POPC     H5R      HAL2     0.900000E-01   1.00800           0
      3266 MEMB     33       POPC     H5S      HAL2     0.900000E-01   1.00800           0
      3267 MEMB     33       POPC     C26      CTL2    -0.180000       12.0110           0
      3268 MEMB     33       POPC     H6R      HAL2     0.900000E-01   1.00800           0
      3269 MEMB     33       POPC     H6S      HAL2     0.900000E-01   1.00800           0
      3270 MEMB     33       POPC     C27      CTL2    -0.180000       12.0110           0
      3271 MEMB     33       POPC     H7R      HAL2     0.900000E-01   1.00800           0
      3272 MEMB     33       POPC     H7S      HAL2     0.900000E-01   1.00800           0
      3273 MEMB     33       POPC     C28      CTL2    -0.180000       12.0110           0
      3274 MEMB     33       POPC     H8R      HAL2     0.900000E-01   1.00800           0
      3275 MEMB     33       POPC     H8S      HAL2     0.900000E-01   1.00800           0
      3276 MEMB     33       POPC     C29      CEL1    -0.150000       12.0110           0
      3277 MEMB     33       POPC     H91      HEL1     0.150000       1.00800           0
      3278 MEMB     33       POPC     C210     CEL1    -0.150000       12.0110           0
      3279 MEMB     33       POPC     H101     HEL1     0.150000       1.00800           0
      3280 MEMB     33       POPC     C211     CTL2    -0.180000       12.0110           0
      3281 MEMB     33       POPC     H11R     HAL2     0.900000E-01   1.00800           0
      3282 MEMB     33       POPC     H11S     HAL2     0.900000E-01   1.00800           0
      3283 MEMB     33       POPC     C212     CTL2    -0.180000       12.0110           0
      3284 MEMB     33       POPC     H12R     HAL2     0.900000E-01   1.00800           0
      3285 MEMB     33       POPC     H12S     HAL2     0.900000E-01   1.00800           0
      3286 MEMB     33       POPC     C213     CTL2    -0.180000       12.0110           0
      3287 MEMB     33       POPC     H13R     HAL2     0.900000E-01   1.00800           0
      3288 MEMB     33       POPC     H13S     HAL2     0.900000E-01   1.00800           0
      3289 MEMB     33       POPC     C214     CTL2    -0.180000       12.0110           0
      3290 MEMB     33       POPC     H14R     HAL2     0.900000E-01   1.00800           0
      3291 MEMB     33       POPC     H14S     HAL2     0.900000E-01   1.00800           0
      3292 MEMB     33       POPC     C215     CTL2    -0.180000       12.0110           0
      3293 MEMB     33       POPC     H15R     HAL2     0.900000E-01   1.00800           0
      3294 MEMB     33       POPC     H15S     HAL2     0.900000E-01   1.00800           0
      3295 MEMB     33       POPC     C216     CTL2    -0.180000       12.0110           0
      3296 MEMB     33       POPC     H16R     HAL2     0.900000E-01   1.00800           0
      3297 MEMB     33       POPC     H16S     HAL2     0.900000E-01   1.00800           0
      3298 MEMB     33       POPC     C217     CTL2    -0.180000       12.0110           0
      3299 MEMB     33       POPC     H17R     HAL2     0.900000E-01   1.00800           0
      3300 MEMB     33       POPC     H17S     HAL2     0.900000E-01   1.00800           0
      3301 MEMB     33       POPC     C218     CTL3    -0.270000       12.0110           0
      3302 MEMB     33       POPC     H18R     HAL3     0.900000E-01   1.00800           0
      3303 MEMB     33       POPC     H18S     HAL3     0.900000E-01   1.00800           0
      3304 MEMB     33       POPC     H18T     HAL3     0.900000E-01   1.00800           0
      3305 MEMB     33       POPC     C33      CTL2    -0.180000       12.0110           0
      3306 MEMB     33       POPC     H3X      HAL2     0.900000E-01   1.00800           0
      3307 MEMB     33       POPC     H3Y      HAL2     0.900000E-01   1.00800           0
      3308 MEMB     33       POPC     C34      CTL2    -0.180000       12.0110           0
      3309 MEMB     33       POPC     H4X      HAL2     0.900000E-01   1.00800           0
      3310 MEMB     33       POPC     H4Y      HAL2     0.900000E-01   1.00800           0
      3311 MEMB     33       POPC     C35      CTL2    -0.180000       12.0110           0
      3312 MEMB     33       POPC     H5X      HAL2     0.900000E-01   1.00800           0
      3313 MEMB     33       POPC     H5Y      HAL2     0.900000E-01   1.00800           0
      3314 MEMB     33       POPC     C36      CTL2    -0.180000       12.0110           0
      3315 MEMB     33       POPC     H6X      HAL2     0.900000E-01   1.00800           0
      3316 MEMB     33       POPC     H6Y      HAL2     0.900000E-01   1.00800           0
      3317 MEMB     33       POPC     C37      CTL2    -0.180000       12.0110           0
      3318 MEMB     33       POPC     H7X      HAL2     0.900000E-01   1.00800           0
      3319 MEMB     33       POPC     H7Y      HAL2     0.900000E-01   1.00800           0
      3320 MEMB     33       POPC     C38      CTL2    -0.180000       12.0110           0
      3321 MEMB     33       POPC     H8X      HAL2     0.900000E-01   1.00800           0
      3322 MEMB     33       POPC     H8Y      HAL2     0.900000E-01   1.00800           0
      3323 MEMB     33       POPC     C39      CTL2    -0.180000       12.0110           0
      3324 MEMB     33       POPC     H9X      HAL2     0.900000E-01   1.00800           0
      3325 MEMB     33       POPC     H9Y      HAL2     0.900000E-01   1.00800           0
      3326 MEMB     33       POPC     C310     CTL2    -0.180000       12.0110           0
      3327 MEMB     33       POPC     H10X     HAL2     0.900000E-01   1.00800           0
      3328 MEMB     33       POPC     H10Y     HAL2     0.900000E-01   1.00800           0
      3329 MEMB     33       POPC     C311     CTL2    -0.180000       12.0110           0
      3330 MEMB     33       POPC     H11X     HAL2     0.900000E-01   1.00800           0
      3331 MEMB     33       POPC     H11Y     HAL2     0.900000E-01   1.00800           0
      3332 MEMB     33       POPC     C312     CTL2    -0.180000       12.0110           0
      3333 MEMB     33       POPC     H12X     HAL2     0.900000E-01   1.00800           0
      3334 MEMB     33       POPC     H12Y     HAL2     0.900000E-01   1.00800           0
      3335 MEMB     33       POPC     C313     CTL2    -0.180000       12.0110           0
      3336 MEMB     33       POPC     H13X     HAL2     0.900000E-01   1.00800           0
      3337 MEMB     33       POPC     H13Y     HAL2     0.900000E-01   1.00800           0
      3338 MEMB     33       POPC     C314     CTL2    -0.180000       12.0110           0
      3339 MEMB     33       POPC     H14X     HAL2     0.900000E-01   1.00800           0
      3340 MEMB     33       POPC     H14Y     HAL2     0.900000E-01   1.00800           0
      3341 MEMB     33       POPC     C315     CTL2    -0.180000       12.0110           0
      3342 MEMB     33       POPC     H15X     HAL2     0.900000E-01   1.00800           0
      3343 MEMB     33       POPC     H15Y     HAL2     0.900000E-01   1.00800           0
      3344 MEMB     33       POPC     C316     CTL3    -0.270000       12.0110           0
      3345 MEMB     33       POPC     H16X     HAL3     0.900000E-01   1.00800           0
      3346 MEMB     33       POPC     H16Y     HAL3     0.900000E-01   1.00800           0
      3347 MEMB     33       POPC     H16Z     HAL3     0.900000E-01   1.00800           0
      3348 MEMB     34       POPS     N        NH3L    -0.300000       14.0070           0
      3349 MEMB     34       POPS     HN1      HCL      0.330000       1.00800           0
      3350 MEMB     34       POPS     HN2      HCL      0.330000       1.00800           0
      3351 MEMB     34       POPS     HN3      HCL      0.330000       1.00800           0
      3352 MEMB     34       POPS     C12      CTL1     0.210000       12.0110           0
      3353 MEMB     34       POPS     H12A     HBL      0.100000       1.00800           0
      3354 MEMB     34       POPS     C13      CCL      0.340000       12.0110           0
      3355 MEMB     34       POPS     O13A     OCL     -0.670000       15.9994           0
      3356 MEMB     34       POPS     O13B     OCL     -0.670000       15.9994           0
      3357 MEMB     34       POPS     C11      CTL2    -0.800000E-01   12.0110           0
      3358 MEMB     34       POPS     H11A     HAL2     0.900000E-01   1.00800           0
      3359 MEMB     34       POPS     H11B     HAL2     0.900000E-01   1.00800           0
      3360 MEMB     34       POPS     P        PL       1.500000       30.9740           0
      3361 MEMB     34       POPS     O13      O2L     -0.780000       15.9994           0
      3362 MEMB     34       POPS     O14      O2L     -0.780000       15.9994           0
      3363 MEMB     34       POPS     O12      OSLP    -0.570000       15.9994           0
      3364 MEMB     34       POPS     O11      OSLP    -0.570000       15.9994           0
      3365 MEMB     34       POPS     C1       CTL2    -0.800000E-01   12.0110           0
      3366 MEMB     34       POPS     HA       HAL2     0.900000E-01   1.00800           0
      3367 MEMB     34       POPS     HB       HAL2     0.900000E-01   1.00800           0
      3368 MEMB     34       POPS     C2       CTL1     0.170000       12.0110           0
      3369 MEMB     34       POPS     HS       HAL1     0.900000E-01   1.00800           0
      3370 MEMB     34       POPS     O21      OSL     -0.490000       15.9994           0
      3371 MEMB     34       POPS     C21      CL       0.900000       12.0110           0
      3372 MEMB     34       POPS     O22      OBL     -0.630000       15.9994           0
      3373 MEMB     34       POPS     C22      CTL2    -0.220000       12.0110           0
      3374 MEMB     34       POPS     H2R      HAL2     0.900000E-01   1.00800           0
      3375 MEMB     34       POPS     H2S      HAL2     0.900000E-01   1.00800           0
      3376 MEMB     34       POPS     C3       CTL2     0.800000E-01   12.0110           0
      3377 MEMB     34       POPS     HX       HAL2     0.900000E-01   1.00800           0
      3378 MEMB     34       POPS     HY       HAL2     0.900000E-01   1.00800           0
      3379 MEMB     34       POPS     O31      OSL     -0.490000       15.9994           0
      3380 MEMB     34       POPS     C31      CL       0.900000       12.0110           0
      3381 MEMB     34       POPS     O32      OBL     -0.630000       15.9994           0
      3382 MEMB     34       POPS     C32      CTL2    -0.220000       12.0110           0
      3383 MEMB     34       POPS     H2X      HAL2     0.900000E-01   1.00800           0
      3384 MEMB     34       POPS     H2Y      HAL2     0.900000E-01   1.00800           0
      3385 MEMB     34       POPS     C23      CTL2    -0.180000       12.0110           0
      3386 MEMB     34       POPS     H3R      HAL2     0.900000E-01   1.00800           0
      3387 MEMB     34       POPS     H3S      HAL2     0.900000E-01   1.00800           0
      3388 MEMB     34       POPS     C24      CTL2    -0.180000       12.0110           0
      3389 MEMB     34       POPS     H4R      HAL2     0.900000E-01   1.00800           0
      3390 MEMB     34       POPS     H4S      HAL2     0.900000E-01   1.00800           0
      3391 MEMB     34       POPS     C25      CTL2    -0.180000       12.0110           0
      3392 MEMB     34       POPS     H5R      HAL2     0.900000E-01   1.00800           0
      3393 MEMB     34       POPS     H5S      HAL2     0.900000E-01   1.00800           0
      3394 MEMB     34       POPS     C26      CTL2    -0.180000       12.0110           0
      3395 MEMB     34       POPS     H6R      HAL2     0.900000E-01   1.00800           0
      3396 MEMB     34       POPS     H6S      HAL2     0.900000E-01   1.00800           0
      3397 MEMB     34       POPS     C27      CTL2    -0.180000       12.0110           0
      3398 MEMB     34       POPS     H7R      HAL2     0.900000E-01   1.00800           0
      3399 MEMB     34       POPS     H7S      HAL2     0.900000E-01   1.00800           0
      3400 MEMB     34       POPS     C28      CTL2    -0.180000       12.0110           0
      3401 MEMB     34       POPS     H8R      HAL2     0.900000E-01   1.00800           0
      3402 MEMB     34       POPS     H8S      HAL2     0.900000E-01   1.00800           0
      3403 MEMB     34       POPS     C29      CEL1    -0.150000       12.0110           0
      3404 MEMB     34       POPS     H91      HEL1     0.150000       1.00800           0
      3405 MEMB     34       POPS     C210     CEL1    -0.150000       12.0110           0
      3406 MEMB     34       POPS     H101     HEL1     0.150000       1.00800           0
      3407 MEMB     34       POPS     C211     CTL2    -0.180000       12.0110           0
      3408 MEMB     34       POPS     H11R     HAL2     0.900000E-01   1.00800           0
      3409 MEMB     34       POPS     H11S     HAL2     0.900000E-01   1.00800           0
      3410 MEMB     34       POPS     C212     CTL2    -0.180000       12.0110           0
      3411 MEMB     34       POPS     H12R     HAL2     0.900000E-01   1.00800           0
      3412 MEMB     34       POPS     H12S     HAL2     0.900000E-01   1.00800           0
      3413 MEMB     34       POPS     C213     CTL2    -0.180000       12.0110           0
      3414 MEMB     34       POPS     H13R     HAL2     0.900000E-01   1.00800           0
      3415 MEMB     34       POPS     H13S     HAL2     0.900000E-01   1.00800           0
      3416 MEMB     34       POPS     C214     CTL2    -0.180000       12.0110           0
      3417 MEMB     34       POPS     H14R     HAL2     0.900000E-01   1.00800           0
      3418 MEMB     34       POPS     H14S     HAL2     0.900000E-01   1.00800           0
      3419 MEMB     34       POPS     C215     CTL2    -0.180000       12.0110           0
      3420 MEMB     34       POPS     H15R     HAL2     0.900000E-01   1.00800           0
      3421 MEMB     34       POPS     H15S     HAL2     0.900000E-01   1.00800           0
      3422 MEMB     34       POPS     C216     CTL2    -0.180000       12.0110           0
      3423 MEMB     34       POPS     H16R     HAL2     0.900000E-01   1.00800           0
      3424 MEMB     34       POPS     H16S     HAL2     0.900000E-01   1.00800           0
      3425 MEMB     34       POPS     C217     CTL2    -0.180000       12.0110           0
      3426 MEMB     34       POPS     H17R     HAL2     0.900000E-01   1.00800           0
      3427 MEMB     34       POPS     H17S     HAL2     0.900000E-01   1.00800           0
      3428 MEMB     34       POPS     C218     CTL3    -0.270000       12.0110           0
      3429 MEMB     34       POPS     H18R     HAL3     0.900000E-01   1.00800           0
      3430 MEMB     34       POPS     H18S     HAL3     0.900000E-01   1.00800           0
      3431 MEMB     34       POPS     H18T     HAL3     0.900000E-01   1.00800           0
      3432 MEMB     34       POPS     C33      CTL2    -0.180000       12.0110           0
      3433 MEMB     34       POPS     H3X      HAL2     0.900000E-01   1.00800           0
      3434 MEMB     34       POPS     H3Y      HAL2     0.900000E-01   1.00800           0
      3435 MEMB     34       POPS     C34      CTL2    -0.180000       12.0110           0
      3436 MEMB     34       POPS     H4X      HAL2     0.900000E-01   1.00800           0
      3437 MEMB     34       POPS     H4Y      HAL2     0.900000E-01   1.00800           0
      3438 MEMB     34       POPS     C35      CTL2    -0.180000       12.0110           0
      3439 MEMB     34       POPS     H5X      HAL2     0.900000E-01   1.00800           0
      3440 MEMB     34       POPS     H5Y      HAL2     0.900000E-01   1.00800           0
      3441 MEMB     34       POPS     C36      CTL2    -0.180000       12.0110           0
      3442 MEMB     34       POPS     H6X      HAL2     0.900000E-01   1.00800           0
      3443 MEMB     34       POPS     H6Y      HAL2     0.900000E-01   1.00800           0
      3444 MEMB     34       POPS     C37      CTL2    -0.180000       12.0110           0
      3445 MEMB     34       POPS     H7X      HAL2     0.900000E-01   1.00800           0
      3446 MEMB     34       POPS     H7Y      HAL2     0.900000E-01   1.00800           0
      3447 MEMB     34       POPS     C38      CTL2    -0.180000       12.0110           0
      3448 MEMB     34       POPS     H8X      HAL2     0.900000E-01   1.00800           0
      3449 MEMB     34       POPS     H8Y      HAL2     0.900000E-01   1.00800           0
      3450 MEMB     34       POPS     C39      CTL2    -0.180000       12.0110           0
      3451 MEMB     34       POPS     H9X      HAL2     0.900000E-01   1.00800           0
      3452 MEMB     34       POPS     H9Y      HAL2     0.900000E-01   1.00800           0
      3453 MEMB     34       POPS     C310     CTL2    -0.180000       12.0110           0
      3454 MEMB     34       POPS     H10X     HAL2     0.900000E-01   1.00800           0
      3455 MEMB     34       POPS     H10Y     HAL2     0.900000E-01   1.00800           0
      3456 MEMB     34       POPS     C311     CTL2    -0.180000       12.0110           0
      3457 MEMB     34       POPS     H11X     HAL2     0.900000E-01   1.00800           0
      3458 MEMB     34       POPS     H11Y     HAL2     0.900000E-01   1.00800           0
      3459 MEMB     34       POPS     C312     CTL2    -0.180000       12.0110           0
      3460 MEMB     34       POPS     H12X     HAL2     0.900000E-01   1.00800           0
      3461 MEMB     34       POPS     H12Y     HAL2     0.900000E-01   1.00800           0
      3462 MEMB     34       POPS     C313     CTL2    -0.180000       12.0110           0
      3463 MEMB     34       POPS     H13X     HAL2     0.900000E-01   1.00800           0
      3464 MEMB     34       POPS     H13Y     HAL2     0.900000E-01   1.00800           0
      3465 MEMB     34       POPS     C314     CTL2    -0.180000       12.0110           0
      3466 MEMB     34       POPS     H14X     HAL2     0.900000E-01   1.00800           0
      3467 MEMB     34       POPS     H14Y     HAL2     0.900000E-01   1.00800           0
      3468 MEMB     34       POPS     C315     CTL2    -0.180000       12.0110           0
      3469 MEMB     34       POPS     H15X     HAL2     0.900000E-01   1.00800           0
      3470 MEMB     34       POPS     H15Y     HAL2     0.900000E-01   1.00800           0
      3471 MEMB     34       POPS     C316     CTL3    -0.270000       12.0110           0
      3472 MEMB     34       POPS     H16X     HAL3     0.900000E-01   1.00800           0
      3473 MEMB     34       POPS     H16Y     HAL3     0.900000E-01   1.00800           0
      3474 MEMB     34       POPS     H16Z     HAL3     0.900000E-01   1.00800           0
      3475 MEMB     35       PSM      N        NTL     -0.600000       14.0070           0
      3476 MEMB     35       PSM      C15      CTL5    -0.350000       12.0110           0
      3477 MEMB     35       PSM      H15A     HL       0.250000       1.00800           0
      3478 MEMB     35       PSM      H15B     HL       0.250000       1.00800           0
      3479 MEMB     35       PSM      H15C     HL       0.250000       1.00800           0
      3480 MEMB     35       PSM      C14      CTL5    -0.350000       12.0110           0
      3481 MEMB     35       PSM      H14A     HL       0.250000       1.00800           0
      3482 MEMB     35       PSM      H14B     HL       0.250000       1.00800           0
      3483 MEMB     35       PSM      H14C     HL       0.250000       1.00800           0
      3484 MEMB     35       PSM      C13      CTL5    -0.350000       12.0110           0
      3485 MEMB     35       PSM      H13A     HL       0.250000       1.00800           0
      3486 MEMB     35       PSM      H13B     HL       0.250000       1.00800           0
      3487 MEMB     35       PSM      H13C     HL       0.250000       1.00800           0
      3488 MEMB     35       PSM      C12      CTL2    -0.100000       12.0110           0
      3489 MEMB     35       PSM      H12A     HL       0.250000       1.00800           0
      3490 MEMB     35       PSM      H12B     HL       0.250000       1.00800           0
      3491 MEMB     35       PSM      C11      CTL2    -0.800000E-01   12.0110           0
      3492 MEMB     35       PSM      H11A     HAL2     0.900000E-01   1.00800           0
      3493 MEMB     35       PSM      H11B     HAL2     0.900000E-01   1.00800           0
      3494 MEMB     35       PSM      P        PL       1.500000       30.9740           0
      3495 MEMB     35       PSM      O13      O2L     -0.780000       15.9994           0
      3496 MEMB     35       PSM      O14      O2L     -0.780000       15.9994           0
      3497 MEMB     35       PSM      O11      OSLP    -0.570000       15.9994           0
      3498 MEMB     35       PSM      O12      OSLP    -0.570000       15.9994           0
      3499 MEMB     35       PSM      C1S      CTL2    -0.800000E-01   12.0110           0
      3500 MEMB     35       PSM      H1S      HAL2     0.900000E-01   1.00800           0
      3501 MEMB     35       PSM      H1T      HAL2     0.900000E-01   1.00800           0
      3502 MEMB     35       PSM      NF       NHL     -0.700000       14.0070           0
      3503 MEMB     35       PSM      HNF      H        0.350000       1.00800           0
      3504 MEMB     35       PSM      C2S      CTL1     0.300000       12.0110           0
      3505 MEMB     35       PSM      H2S      HAL1     0.500000E-01   1.00800           0
      3506 MEMB     35       PSM      C3S      CTO1     0.500000       12.0110           0
      3507 MEMB     35       PSM      H3S      HAL1    -0.110000       1.00800           0
      3508 MEMB     35       PSM      O3       OHL     -0.690000       15.9994           0
      3509 MEMB     35       PSM      HO3      HOL      0.300000       1.00800           0
      3510 MEMB     35       PSM      C4S      CEL3    -0.150000       12.0110           0
      3511 MEMB     35       PSM      H4S      HEL1     0.150000       1.00800           0
      3512 MEMB     35       PSM      C5S      CEL3    -0.150000       12.0110           0
      3513 MEMB     35       PSM      H5S      HEL1     0.150000       1.00800           0
      3514 MEMB     35       PSM      C6S      CTL2    -0.180000       12.0110           0
      3515 MEMB     35       PSM      H6S      HAL2     0.900000E-01   1.00800           0
      3516 MEMB     35       PSM      H6T      HAL2     0.900000E-01   1.00800           0
      3517 MEMB     35       PSM      C7S      CTL2    -0.180000       12.0110           0
      3518 MEMB     35       PSM      H7S      HAL2     0.900000E-01   1.00800           0
      3519 MEMB     35       PSM      H7T      HAL2     0.900000E-01   1.00800           0
      3520 MEMB     35       PSM      C8S      CTL2    -0.180000       12.0110           0
      3521 MEMB     35       PSM      H8S      HAL2     0.900000E-01   1.00800           0
      3522 MEMB     35       PSM      H8T      HAL2     0.900000E-01   1.00800           0
      3523 MEMB     35       PSM      C9S      CTL2    -0.180000       12.0110           0
      3524 MEMB     35       PSM      H9S      HAL2     0.900000E-01   1.00800           0
      3525 MEMB     35       PSM      H9T      HAL2     0.900000E-01   1.00800           0
      3526 MEMB     35       PSM      C10S     CTL2    -0.180000       12.0110           0
      3527 MEMB     35       PSM      H10S     HAL2     0.900000E-01   1.00800           0
      3528 MEMB     35       PSM      H10T     HAL2     0.900000E-01   1.00800           0
      3529 MEMB     35       PSM      C11S     CTL2    -0.180000       12.0110           0
      3530 MEMB     35       PSM      H11S     HAL2     0.900000E-01   1.00800           0
      3531 MEMB     35       PSM      H11T     HAL2     0.900000E-01   1.00800           0
      3532 MEMB     35       PSM      C12S     CTL2    -0.180000       12.0110           0
      3533 MEMB     35       PSM      H12S     HAL2     0.900000E-01   1.00800           0
      3534 MEMB     35       PSM      H12T     HAL2     0.900000E-01   1.00800           0
      3535 MEMB     35       PSM      C13S     CTL2    -0.180000       12.0110           0
      3536 MEMB     35       PSM      H13S     HAL2     0.900000E-01   1.00800           0
      3537 MEMB     35       PSM      H13T     HAL2     0.900000E-01   1.00800           0
      3538 MEMB     35       PSM      C14S     CTL2    -0.180000       12.0110           0
      3539 MEMB     35       PSM      H14S     HAL2     0.900000E-01   1.00800           0
      3540 MEMB     35       PSM      H14T     HAL2     0.900000E-01   1.00800           0
      3541 MEMB     35       PSM      C15S     CTL2    -0.180000       12.0110           0
      3542 MEMB     35       PSM      H15S     HAL2     0.900000E-01   1.00800           0
      3543 MEMB     35       PSM      H15T     HAL2     0.900000E-01   1.00800           0
      3544 MEMB     35       PSM      C16S     CTL2    -0.180000       12.0110           0
      3545 MEMB     35       PSM      H16S     HAL2     0.900000E-01   1.00800           0
      3546 MEMB     35       PSM      H16T     HAL2     0.900000E-01   1.00800           0
      3547 MEMB     35       PSM      C17S     CTL2    -0.180000       12.0110           0
      3548 MEMB     35       PSM      H17S     HAL2     0.900000E-01   1.00800           0
      3549 MEMB     35       PSM      H17T     HAL2     0.900000E-01   1.00800           0
      3550 MEMB     35       PSM      C18S     CTL3    -0.270000       12.0110           0
      3551 MEMB     35       PSM      H18S     HAL3     0.900000E-01   1.00800           0
      3552 MEMB     35       PSM      H18T     HAL3     0.900000E-01   1.00800           0
      3553 MEMB     35       PSM      H18U     HAL3     0.900000E-01   1.00800           0
      3554 MEMB     35       PSM      C1F      C        0.550000       12.0110           0
      3555 MEMB     35       PSM      OF       O       -0.600000       15.9994           0
      3556 MEMB     35       PSM      C2F      CTL2    -0.700000E-01   12.0110           0
      3557 MEMB     35       PSM      H2F      HAL2     0.600000E-01   1.00800           0
      3558 MEMB     35       PSM      H2G      HAL2     0.600000E-01   1.00800           0
      3559 MEMB     35       PSM      C3F      CTL2    -0.180000       12.0110           0
      3560 MEMB     35       PSM      H3F      HAL2     0.900000E-01   1.00800           0
      3561 MEMB     35       PSM      H3G      HAL2     0.900000E-01   1.00800           0
      3562 MEMB     35       PSM      C4F      CTL2    -0.180000       12.0110           0
      3563 MEMB     35       PSM      H4F      HAL2     0.900000E-01   1.00800           0
      3564 MEMB     35       PSM      H4G      HAL2     0.900000E-01   1.00800           0
      3565 MEMB     35       PSM      C5F      CTL2    -0.180000       12.0110           0
      3566 MEMB     35       PSM      H5F      HAL2     0.900000E-01   1.00800           0
      3567 MEMB     35       PSM      H5G      HAL2     0.900000E-01   1.00800           0
      3568 MEMB     35       PSM      C6F      CTL2    -0.180000       12.0110           0
      3569 MEMB     35       PSM      H6F      HAL2     0.900000E-01   1.00800           0
      3570 MEMB     35       PSM      H6G      HAL2     0.900000E-01   1.00800           0
      3571 MEMB     35       PSM      C7F      CTL2    -0.180000       12.0110           0
      3572 MEMB     35       PSM      H7F      HAL2     0.900000E-01   1.00800           0
      3573 MEMB     35       PSM      H7G      HAL2     0.900000E-01   1.00800           0
      3574 MEMB     35       PSM      C8F      CTL2    -0.180000       12.0110           0
      3575 MEMB     35       PSM      H8F      HAL2     0.900000E-01   1.00800           0
      3576 MEMB     35       PSM      H8G      HAL2     0.900000E-01   1.00800           0
      3577 MEMB     35       PSM      C9F      CTL2    -0.180000       12.0110           0
      3578 MEMB     35       PSM      H9F      HAL2     0.900000E-01   1.00800           0
      3579 MEMB     35       PSM      H9G      HAL2     0.900000E-01   1.00800           0
      3580 MEMB     35       PSM      C10F     CTL2    -0.180000       12.0110           0
      3581 MEMB     35       PSM      H10F     HAL2     0.900000E-01   1.00800           0
      3582 MEMB     35       PSM      H10G     HAL2     0.900000E-01   1.00800           0
      3583 MEMB     35       PSM      C11F     CTL2    -0.180000       12.0110           0
      3584 MEMB     35       PSM      H11F     HAL2     0.900000E-01   1.00800           0
      3585 MEMB     35       PSM      H11G     HAL2     0.900000E-01   1.00800           0
      3586 MEMB     35       PSM      C12F     CTL2    -0.180000       12.0110           0
      3587 MEMB     35       PSM      H12F     HAL2     0.900000E-01   1.00800           0
      3588 MEMB     35       PSM      H12G     HAL2     0.900000E-01   1.00800           0
      3589 MEMB     35       PSM      C13F     CTL2    -0.180000       12.0110           0
      3590 MEMB     35       PSM      H13F     HAL2     0.900000E-01   1.00800           0
      3591 MEMB     35       PSM      H13G     HAL2     0.900000E-01   1.00800           0
      3592 MEMB     35       PSM      C14F     CTL2    -0.180000       12.0110           0
      3593 MEMB     35       PSM      H14F     HAL2     0.900000E-01   1.00800           0
      3594 MEMB     35       PSM      H14G     HAL2     0.900000E-01   1.00800           0
      3595 MEMB     35       PSM      C15F     CTL2    -0.180000       12.0110           0
      3596 MEMB     35       PSM      H15F     HAL2     0.900000E-01   1.00800           0
      3597 MEMB     35       PSM      H15G     HAL2     0.900000E-01   1.00800           0
      3598 MEMB     35       PSM      C16F     CTL3    -0.270000       12.0110           0
      3599 MEMB     35       PSM      H16F     HAL3     0.900000E-01   1.00800           0
      3600 MEMB     35       PSM      H16G     HAL3     0.900000E-01   1.00800           0
      3601 MEMB     35       PSM      H16H     HAL3     0.900000E-01   1.00800           0
      3602 MEMB     36       POPC     N        NTL     -0.600000       14.0070           0
      3603 MEMB     36       POPC     C12      CTL2    -0.100000       12.0110           0
      3604 MEMB     36       POPC     H12A     HL       0.250000       1.00800           0
      3605 MEMB     36       POPC     H12B     HL       0.250000       1.00800           0
      3606 MEMB     36       POPC     C13      CTL5    -0.350000       12.0110           0
      3607 MEMB     36       POPC     H13A     HL       0.250000       1.00800           0
      3608 MEMB     36       POPC     H13B     HL       0.250000       1.00800           0
      3609 MEMB     36       POPC     H13C     HL       0.250000       1.00800           0
      3610 MEMB     36       POPC     C14      CTL5    -0.350000       12.0110           0
      3611 MEMB     36       POPC     H14A     HL       0.250000       1.00800           0
      3612 MEMB     36       POPC     H14B     HL       0.250000       1.00800           0
      3613 MEMB     36       POPC     H14C     HL       0.250000       1.00800           0
      3614 MEMB     36       POPC     C15      CTL5    -0.350000       12.0110           0
      3615 MEMB     36       POPC     H15A     HL       0.250000       1.00800           0
      3616 MEMB     36       POPC     H15B     HL       0.250000       1.00800           0
      3617 MEMB     36       POPC     H15C     HL       0.250000       1.00800           0
      3618 MEMB     36       POPC     C11      CTL2    -0.800000E-01   12.0110           0
      3619 MEMB     36       POPC     H11A     HAL2     0.900000E-01   1.00800           0
      3620 MEMB     36       POPC     H11B     HAL2     0.900000E-01   1.00800           0
      3621 MEMB     36       POPC     P        PL       1.500000       30.9740           0
      3622 MEMB     36       POPC     O13      O2L     -0.780000       15.9994           0
      3623 MEMB     36       POPC     O14      O2L     -0.780000       15.9994           0
      3624 MEMB     36       POPC     O12      OSLP    -0.570000       15.9994           0
      3625 MEMB     36       POPC     O11      OSLP    -0.570000       15.9994           0
      3626 MEMB     36       POPC     C1       CTL2    -0.800000E-01   12.0110           0
      3627 MEMB     36       POPC     HA       HAL2     0.900000E-01   1.00800           0
      3628 MEMB     36       POPC     HB       HAL2     0.900000E-01   1.00800           0
      3629 MEMB     36       POPC     C2       CTL1     0.170000       12.0110           0
      3630 MEMB     36       POPC     HS       HAL1     0.900000E-01   1.00800           0
      3631 MEMB     36       POPC     O21      OSL     -0.490000       15.9994           0
      3632 MEMB     36       POPC     C21      CL       0.900000       12.0110           0
      3633 MEMB     36       POPC     O22      OBL     -0.630000       15.9994           0
      3634 MEMB     36       POPC     C22      CTL2    -0.220000       12.0110           0
      3635 MEMB     36       POPC     H2R      HAL2     0.900000E-01   1.00800           0
      3636 MEMB     36       POPC     H2S      HAL2     0.900000E-01   1.00800           0
      3637 MEMB     36       POPC     C3       CTL2     0.800000E-01   12.0110           0
      3638 MEMB     36       POPC     HX       HAL2     0.900000E-01   1.00800           0
      3639 MEMB     36       POPC     HY       HAL2     0.900000E-01   1.00800           0
      3640 MEMB     36       POPC     O31      OSL     -0.490000       15.9994           0
      3641 MEMB     36       POPC     C31      CL       0.900000       12.0110           0
      3642 MEMB     36       POPC     O32      OBL     -0.630000       15.9994           0
      3643 MEMB     36       POPC     C32      CTL2    -0.220000       12.0110           0
      3644 MEMB     36       POPC     H2X      HAL2     0.900000E-01   1.00800           0
      3645 MEMB     36       POPC     H2Y      HAL2     0.900000E-01   1.00800           0
      3646 MEMB     36       POPC     C23      CTL2    -0.180000       12.0110           0
      3647 MEMB     36       POPC     H3R      HAL2     0.900000E-01   1.00800           0
      3648 MEMB     36       POPC     H3S      HAL2     0.900000E-01   1.00800           0
      3649 MEMB     36       POPC     C24      CTL2    -0.180000       12.0110           0
      3650 MEMB     36       POPC     H4R      HAL2     0.900000E-01   1.00800           0
      3651 MEMB     36       POPC     H4S      HAL2     0.900000E-01   1.00800           0
      3652 MEMB     36       POPC     C25      CTL2    -0.180000       12.0110           0
      3653 MEMB     36       POPC     H5R      HAL2     0.900000E-01   1.00800           0
      3654 MEMB     36       POPC     H5S      HAL2     0.900000E-01   1.00800           0
      3655 MEMB     36       POPC     C26      CTL2    -0.180000       12.0110           0
      3656 MEMB     36       POPC     H6R      HAL2     0.900000E-01   1.00800           0
      3657 MEMB     36       POPC     H6S      HAL2     0.900000E-01   1.00800           0
      3658 MEMB     36       POPC     C27      CTL2    -0.180000       12.0110           0
      3659 MEMB     36       POPC     H7R      HAL2     0.900000E-01   1.00800           0
      3660 MEMB     36       POPC     H7S      HAL2     0.900000E-01   1.00800           0
      3661 MEMB     36       POPC     C28      CTL2    -0.180000       12.0110           0
      3662 MEMB     36       POPC     H8R      HAL2     0.900000E-01   1.00800           0
      3663 MEMB     36       POPC     H8S      HAL2     0.900000E-01   1.00800           0
      3664 MEMB     36       POPC     C29      CEL1    -0.150000       12.0110           0
      3665 MEMB     36       POPC     H91      HEL1     0.150000       1.00800           0
      3666 MEMB     36       POPC     C210     CEL1    -0.150000       12.0110           0
      3667 MEMB     36       POPC     H101     HEL1     0.150000       1.00800           0
      3668 MEMB     36       POPC     C211     CTL2    -0.180000       12.0110           0
      3669 MEMB     36       POPC     H11R     HAL2     0.900000E-01   1.00800           0
      3670 MEMB     36       POPC     H11S     HAL2     0.900000E-01   1.00800           0
      3671 MEMB     36       POPC     C212     CTL2    -0.180000       12.0110           0
      3672 MEMB     36       POPC     H12R     HAL2     0.900000E-01   1.00800           0
      3673 MEMB     36       POPC     H12S     HAL2     0.900000E-01   1.00800           0
      3674 MEMB     36       POPC     C213     CTL2    -0.180000       12.0110           0
      3675 MEMB     36       POPC     H13R     HAL2     0.900000E-01   1.00800           0
      3676 MEMB     36       POPC     H13S     HAL2     0.900000E-01   1.00800           0
      3677 MEMB     36       POPC     C214     CTL2    -0.180000       12.0110           0
      3678 MEMB     36       POPC     H14R     HAL2     0.900000E-01   1.00800           0
      3679 MEMB     36       POPC     H14S     HAL2     0.900000E-01   1.00800           0
      3680 MEMB     36       POPC     C215     CTL2    -0.180000       12.0110           0
      3681 MEMB     36       POPC     H15R     HAL2     0.900000E-01   1.00800           0
      3682 MEMB     36       POPC     H15S     HAL2     0.900000E-01   1.00800           0
      3683 MEMB     36       POPC     C216     CTL2    -0.180000       12.0110           0
      3684 MEMB     36       POPC     H16R     HAL2     0.900000E-01   1.00800           0
      3685 MEMB     36       POPC     H16S     HAL2     0.900000E-01   1.00800           0
      3686 MEMB     36       POPC     C217     CTL2    -0.180000       12.0110           0
      3687 MEMB     36       POPC     H17R     HAL2     0.900000E-01   1.00800           0
      3688 MEMB     36       POPC     H17S     HAL2     0.900000E-01   1.00800           0
      3689 MEMB     36       POPC     C218     CTL3    -0.270000       12.0110           0
      3690 MEMB     36       POPC     H18R     HAL3     0.900000E-01   1.00800           0
      3691 MEMB     36       POPC     H18S     HAL3     0.900000E-01   1.00800           0
      3692 MEMB     36       POPC     H18T     HAL3     0.900000E-01   1.00800           0
      3693 MEMB     36       POPC     C33      CTL2    -0.180000       12.0110           0
      3694 MEMB     36       POPC     H3X      HAL2     0.900000E-01   1.00800           0
      3695 MEMB     36       POPC     H3Y      HAL2     0.900000E-01   1.00800           0
      3696 MEMB     36       POPC     C34      CTL2    -0.180000       12.0110           0
      3697 MEMB     36       POPC     H4X      HAL2     0.900000E-01   1.00800           0
      3698 MEMB     36       POPC     H4Y      HAL2     0.900000E-01   1.00800           0
      3699 MEMB     36       POPC     C35      CTL2    -0.180000       12.0110           0
      3700 MEMB     36       POPC     H5X      HAL2     0.900000E-01   1.00800           0
      3701 MEMB     36       POPC     H5Y      HAL2     0.900000E-01   1.00800           0
      3702 MEMB     36       POPC     C36      CTL2    -0.180000       12.0110           0
      3703 MEMB     36       POPC     H6X      HAL2     0.900000E-01   1.00800           0
      3704 MEMB     36       POPC     H6Y      HAL2     0.900000E-01   1.00800           0
      3705 MEMB     36       POPC     C37      CTL2    -0.180000       12.0110           0
      3706 MEMB     36       POPC     H7X      HAL2     0.900000E-01   1.00800           0
      3707 MEMB     36       POPC     H7Y      HAL2     0.900000E-01   1.00800           0
      3708 MEMB     36       POPC     C38      CTL2    -0.180000       12.0110           0
      3709 MEMB     36       POPC     H8X      HAL2     0.900000E-01   1.00800           0
      3710 MEMB     36       POPC     H8Y      HAL2     0.900000E-01   1.00800           0
      3711 MEMB     36       POPC     C39      CTL2    -0.180000       12.0110           0
      3712 MEMB     36       POPC     H9X      HAL2     0.900000E-01   1.00800           0
      3713 MEMB     36       POPC     H9Y      HAL2     0.900000E-01   1.00800           0
      3714 MEMB     36       POPC     C310     CTL2    -0.180000       12.0110           0
      3715 MEMB     36       POPC     H10X     HAL2     0.900000E-01   1.00800           0
      3716 MEMB     36       POPC     H10Y     HAL2     0.900000E-01   1.00800           0
      3717 MEMB     36       POPC     C311     CTL2    -0.180000       12.0110           0
      3718 MEMB     36       POPC     H11X     HAL2     0.900000E-01   1.00800           0
      3719 MEMB     36       POPC     H11Y     HAL2     0.900000E-01   1.00800           0
      3720 MEMB     36       POPC     C312     CTL2    -0.180000       12.0110           0
      3721 MEMB     36       POPC     H12X     HAL2     0.900000E-01   1.00800           0
      3722 MEMB     36       POPC     H12Y     HAL2     0.900000E-01   1.00800           0
      3723 MEMB     36       POPC     C313     CTL2    -0.180000       12.0110           0
      3724 MEMB     36       POPC     H13X     HAL2     0.900000E-01   1.00800           0
      3725 MEMB     36       POPC     H13Y     HAL2     0.900000E-01   1.00800           0
      3726 MEMB     36       POPC     C314     CTL2    -0.180000       12.0110           0
      3727 MEMB     36       POPC     H14X     HAL2     0.900000E-01   1.00800           0
      3728 MEMB     36       POPC     H14Y     HAL2     0.900000E-01   1.00800           0
      3729 MEMB     36       POPC     C315     CTL2    -0.180000       12.0110           0
      3730 MEMB     36       POPC     H15X     HAL2     0.900000E-01   1.00800           0
      3731 MEMB     36       POPC     H15Y     HAL2     0.900000E-01   1.00800           0
      3732 MEMB     36       POPC     C316     CTL3    -0.270000       12.0110           0
      3733 MEMB     36       POPC     H16X     HAL3     0.900000E-01   1.00800           0
      3734 MEMB     36       POPC     H16Y     HAL3     0.900000E-01   1.00800           0
      3735 MEMB     36       POPC     H16Z     HAL3     0.900000E-01   1.00800           0
      3736 MEMB     37       POPS     N        NH3L    -0.300000       14.0070           0
      3737 MEMB     37       POPS     HN1      HCL      0.330000       1.00800           0
      3738 MEMB     37       POPS     HN2      HCL      0.330000       1.00800           0
      3739 MEMB     37       POPS     HN3      HCL      0.330000       1.00800           0
      3740 MEMB     37       POPS     C12      CTL1     0.210000       12.0110           0
      3741 MEMB     37       POPS     H12A     HBL      0.100000       1.00800           0
      3742 MEMB     37       POPS     C13      CCL      0.340000       12.0110           0
      3743 MEMB     37       POPS     O13A     OCL     -0.670000       15.9994           0
      3744 MEMB     37       POPS     O13B     OCL     -0.670000       15.9994           0
      3745 MEMB     37       POPS     C11      CTL2    -0.800000E-01   12.0110           0
      3746 MEMB     37       POPS     H11A     HAL2     0.900000E-01   1.00800           0
      3747 MEMB     37       POPS     H11B     HAL2     0.900000E-01   1.00800           0
      3748 MEMB     37       POPS     P        PL       1.500000       30.9740           0
      3749 MEMB     37       POPS     O13      O2L     -0.780000       15.9994           0
      3750 MEMB     37       POPS     O14      O2L     -0.780000       15.9994           0
      3751 MEMB     37       POPS     O12      OSLP    -0.570000       15.9994           0
      3752 MEMB     37       POPS     O11      OSLP    -0.570000       15.9994           0
      3753 MEMB     37       POPS     C1       CTL2    -0.800000E-01   12.0110           0
      3754 MEMB     37       POPS     HA       HAL2     0.900000E-01   1.00800           0
      3755 MEMB     37       POPS     HB       HAL2     0.900000E-01   1.00800           0
      3756 MEMB     37       POPS     C2       CTL1     0.170000       12.0110           0
      3757 MEMB     37       POPS     HS       HAL1     0.900000E-01   1.00800           0
      3758 MEMB     37       POPS     O21      OSL     -0.490000       15.9994           0
      3759 MEMB     37       POPS     C21      CL       0.900000       12.0110           0
      3760 MEMB     37       POPS     O22      OBL     -0.630000       15.9994           0
      3761 MEMB     37       POPS     C22      CTL2    -0.220000       12.0110           0
      3762 MEMB     37       POPS     H2R      HAL2     0.900000E-01   1.00800           0
      3763 MEMB     37       POPS     H2S      HAL2     0.900000E-01   1.00800           0
      3764 MEMB     37       POPS     C3       CTL2     0.800000E-01   12.0110           0
      3765 MEMB     37       POPS     HX       HAL2     0.900000E-01   1.00800           0
      3766 MEMB     37       POPS     HY       HAL2     0.900000E-01   1.00800           0
      3767 MEMB     37       POPS     O31      OSL     -0.490000       15.9994           0
      3768 MEMB     37       POPS     C31      CL       0.900000       12.0110           0
      3769 MEMB     37       POPS     O32      OBL     -0.630000       15.9994           0
      3770 MEMB     37       POPS     C32      CTL2    -0.220000       12.0110           0
      3771 MEMB     37       POPS     H2X      HAL2     0.900000E-01   1.00800           0
      3772 MEMB     37       POPS     H2Y      HAL2     0.900000E-01   1.00800           0
      3773 MEMB     37       POPS     C23      CTL2    -0.180000       12.0110           0
      3774 MEMB     37       POPS     H3R      HAL2     0.900000E-01   1.00800           0
      3775 MEMB     37       POPS     H3S      HAL2     0.900000E-01   1.00800           0
      3776 MEMB     37       POPS     C24      CTL2    -0.180000       12.0110           0
      3777 MEMB     37       POPS     H4R      HAL2     0.900000E-01   1.00800           0
      3778 MEMB     37       POPS     H4S      HAL2     0.900000E-01   1.00800           0
      3779 MEMB     37       POPS     C25      CTL2    -0.180000       12.0110           0
      3780 MEMB     37       POPS     H5R      HAL2     0.900000E-01   1.00800           0
      3781 MEMB     37       POPS     H5S      HAL2     0.900000E-01   1.00800           0
      3782 MEMB     37       POPS     C26      CTL2    -0.180000       12.0110           0
      3783 MEMB     37       POPS     H6R      HAL2     0.900000E-01   1.00800           0
      3784 MEMB     37       POPS     H6S      HAL2     0.900000E-01   1.00800           0
      3785 MEMB     37       POPS     C27      CTL2    -0.180000       12.0110           0
      3786 MEMB     37       POPS     H7R      HAL2     0.900000E-01   1.00800           0
      3787 MEMB     37       POPS     H7S      HAL2     0.900000E-01   1.00800           0
      3788 MEMB     37       POPS     C28      CTL2    -0.180000       12.0110           0
      3789 MEMB     37       POPS     H8R      HAL2     0.900000E-01   1.00800           0
      3790 MEMB     37       POPS     H8S      HAL2     0.900000E-01   1.00800           0
      3791 MEMB     37       POPS     C29      CEL1    -0.150000       12.0110           0
      3792 MEMB     37       POPS     H91      HEL1     0.150000       1.00800           0
      3793 MEMB     37       POPS     C210     CEL1    -0.150000       12.0110           0
      3794 MEMB     37       POPS     H101     HEL1     0.150000       1.00800           0
      3795 MEMB     37       POPS     C211     CTL2    -0.180000       12.0110           0
      3796 MEMB     37       POPS     H11R     HAL2     0.900000E-01   1.00800           0
      3797 MEMB     37       POPS     H11S     HAL2     0.900000E-01   1.00800           0
      3798 MEMB     37       POPS     C212     CTL2    -0.180000       12.0110           0
      3799 MEMB     37       POPS     H12R     HAL2     0.900000E-01   1.00800           0
      3800 MEMB     37       POPS     H12S     HAL2     0.900000E-01   1.00800           0
      3801 MEMB     37       POPS     C213     CTL2    -0.180000       12.0110           0
      3802 MEMB     37       POPS     H13R     HAL2     0.900000E-01   1.00800           0
      3803 MEMB     37       POPS     H13S     HAL2     0.900000E-01   1.00800           0
      3804 MEMB     37       POPS     C214     CTL2    -0.180000       12.0110           0
      3805 MEMB     37       POPS     H14R     HAL2     0.900000E-01   1.00800           0
      3806 MEMB     37       POPS     H14S     HAL2     0.900000E-01   1.00800           0
      3807 MEMB     37       POPS     C215     CTL2    -0.180000       12.0110           0
      3808 MEMB     37       POPS     H15R     HAL2     0.900000E-01   1.00800           0
      3809 MEMB     37       POPS     H15S     HAL2     0.900000E-01   1.00800           0
      3810 MEMB     37       POPS     C216     CTL2    -0.180000       12.0110           0
      3811 MEMB     37       POPS     H16R     HAL2     0.900000E-01   1.00800           0
      3812 MEMB     37       POPS     H16S     HAL2     0.900000E-01   1.00800           0
      3813 MEMB     37       POPS     C217     CTL2    -0.180000       12.0110           0
      3814 MEMB     37       POPS     H17R     HAL2     0.900000E-01   1.00800           0
      3815 MEMB     37       POPS     H17S     HAL2     0.900000E-01   1.00800           0
      3816 MEMB     37       POPS     C218     CTL3    -0.270000       12.0110           0
      3817 MEMB     37       POPS     H18R     HAL3     0.900000E-01   1.00800           0
      3818 MEMB     37       POPS     H18S     HAL3     0.900000E-01   1.00800           0
      3819 MEMB     37       POPS     H18T     HAL3     0.900000E-01   1.00800           0
      3820 MEMB     37       POPS     C33      CTL2    -0.180000       12.0110           0
      3821 MEMB     37       POPS     H3X      HAL2     0.900000E-01   1.00800           0
      3822 MEMB     37       POPS     H3Y      HAL2     0.900000E-01   1.00800           0
      3823 MEMB     37       POPS     C34      CTL2    -0.180000       12.0110           0
      3824 MEMB     37       POPS     H4X      HAL2     0.900000E-01   1.00800           0
      3825 MEMB     37       POPS     H4Y      HAL2     0.900000E-01   1.00800           0
      3826 MEMB     37       POPS     C35      CTL2    -0.180000       12.0110           0
      3827 MEMB     37       POPS     H5X      HAL2     0.900000E-01   1.00800           0
      3828 MEMB     37       POPS     H5Y      HAL2     0.900000E-01   1.00800           0
      3829 MEMB     37       POPS     C36      CTL2    -0.180000       12.0110           0
      3830 MEMB     37       POPS     H6X      HAL2     0.900000E-01   1.00800           0
      3831 MEMB     37       POPS     H6Y      HAL2     0.900000E-01   1.00800           0
      3832 MEMB     37       POPS     C37      CTL2    -0.180000       12.0110           0
      3833 MEMB     37       POPS     H7X      HAL2     0.900000E-01   1.00800           0
      3834 MEMB     37       POPS     H7Y      HAL2     0.900000E-01   1.00800           0
      3835 MEMB     37       POPS     C38      CTL2    -0.180000       12.0110           0
      3836 MEMB     37       POPS     H8X      HAL2     0.900000E-01   1.00800           0
      3837 MEMB     37       POPS     H8Y      HAL2     0.900000E-01   1.00800           0
      3838 MEMB     37       POPS     C39      CTL2    -0.180000       12.0110           0
      3839 MEMB     37       POPS     H9X      HAL2     0.900000E-01   1.00800           0
      3840 MEMB     37       POPS     H9Y      HAL2     0.900000E-01   1.00800           0
      3841 MEMB     37       POPS     C310     CTL2    -0.180000       12.0110           0
      3842 MEMB     37       POPS     H10X     HAL2     0.900000E-01   1.00800           0
      3843 MEMB     37       POPS     H10Y     HAL2     0.900000E-01   1.00800           0
      3844 MEMB     37       POPS     C311     CTL2    -0.180000       12.0110           0
      3845 MEMB     37       POPS     H11X     HAL2     0.900000E-01   1.00800           0
      3846 MEMB     37       POPS     H11Y     HAL2     0.900000E-01   1.00800           0
      3847 MEMB     37       POPS     C312     CTL2    -0.180000       12.0110           0
      3848 MEMB     37       POPS     H12X     HAL2     0.900000E-01   1.00800           0
      3849 MEMB     37       POPS     H12Y     HAL2     0.900000E-01   1.00800           0
      3850 MEMB     37       POPS     C313     CTL2    -0.180000       12.0110           0
      3851 MEMB     37       POPS     H13X     HAL2     0.900000E-01   1.00800           0
      3852 MEMB     37       POPS     H13Y     HAL2     0.900000E-01   1.00800           0
      3853 MEMB     37       POPS     C314     CTL2    -0.180000       12.0110           0
      3854 MEMB     37       POPS     H14X     HAL2     0.900000E-01   1.00800           0
      3855 MEMB     37       POPS     H14Y     HAL2     0.900000E-01   1.00800           0
      3856 MEMB     37       POPS     C315     CTL2    -0.180000       12.0110           0
      3857 MEMB     37       POPS     H15X     HAL2     0.900000E-01   1.00800           0
      3858 MEMB     37       POPS     H15Y     HAL2     0.900000E-01   1.00800           0
      3859 MEMB     37       POPS     C316     CTL3    -0.270000       12.0110           0
      3860 MEMB     37       POPS     H16X     HAL3     0.900000E-01   1.00800           0
      3861 MEMB     37       POPS     H16Y     HAL3     0.900000E-01   1.00800           0
      3862 MEMB     37       POPS     H16Z     HAL3     0.900000E-01   1.00800           0
      3863 MEMB     38       PSM      N        NTL     -0.600000       14.0070           0
      3864 MEMB     38       PSM      C15      CTL5    -0.350000       12.0110           0
      3865 MEMB     38       PSM      H15A     HL       0.250000       1.00800           0
      3866 MEMB     38       PSM      H15B     HL       0.250000       1.00800           0
      3867 MEMB     38       PSM      H15C     HL       0.250000       1.00800           0
      3868 MEMB     38       PSM      C14      CTL5    -0.350000       12.0110           0
      3869 MEMB     38       PSM      H14A     HL       0.250000       1.00800           0
      3870 MEMB     38       PSM      H14B     HL       0.250000       1.00800           0
      3871 MEMB     38       PSM      H14C     HL       0.250000       1.00800           0
      3872 MEMB     38       PSM      C13      CTL5    -0.350000       12.0110           0
      3873 MEMB     38       PSM      H13A     HL       0.250000       1.00800           0
      3874 MEMB     38       PSM      H13B     HL       0.250000       1.00800           0
      3875 MEMB     38       PSM      H13C     HL       0.250000       1.00800           0
      3876 MEMB     38       PSM      C12      CTL2    -0.100000       12.0110           0
      3877 MEMB     38       PSM      H12A     HL       0.250000       1.00800           0
      3878 MEMB     38       PSM      H12B     HL       0.250000       1.00800           0
      3879 MEMB     38       PSM      C11      CTL2    -0.800000E-01   12.0110           0
      3880 MEMB     38       PSM      H11A     HAL2     0.900000E-01   1.00800           0
      3881 MEMB     38       PSM      H11B     HAL2     0.900000E-01   1.00800           0
      3882 MEMB     38       PSM      P        PL       1.500000       30.9740           0
      3883 MEMB     38       PSM      O13      O2L     -0.780000       15.9994           0
      3884 MEMB     38       PSM      O14      O2L     -0.780000       15.9994           0
      3885 MEMB     38       PSM      O11      OSLP    -0.570000       15.9994           0
      3886 MEMB     38       PSM      O12      OSLP    -0.570000       15.9994           0
      3887 MEMB     38       PSM      C1S      CTL2    -0.800000E-01   12.0110           0
      3888 MEMB     38       PSM      H1S      HAL2     0.900000E-01   1.00800           0
      3889 MEMB     38       PSM      H1T      HAL2     0.900000E-01   1.00800           0
      3890 MEMB     38       PSM      NF       NHL     -0.700000       14.0070           0
      3891 MEMB     38       PSM      HNF      H        0.350000       1.00800           0
      3892 MEMB     38       PSM      C2S      CTL1     0.300000       12.0110           0
      3893 MEMB     38       PSM      H2S      HAL1     0.500000E-01   1.00800           0
      3894 MEMB     38       PSM      C3S      CTO1     0.500000       12.0110           0
      3895 MEMB     38       PSM      H3S      HAL1    -0.110000       1.00800           0
      3896 MEMB     38       PSM      O3       OHL     -0.690000       15.9994           0
      3897 MEMB     38       PSM      HO3      HOL      0.300000       1.00800           0
      3898 MEMB     38       PSM      C4S      CEL3    -0.150000       12.0110           0
      3899 MEMB     38       PSM      H4S      HEL1     0.150000       1.00800           0
      3900 MEMB     38       PSM      C5S      CEL3    -0.150000       12.0110           0
      3901 MEMB     38       PSM      H5S      HEL1     0.150000       1.00800           0
      3902 MEMB     38       PSM      C6S      CTL2    -0.180000       12.0110           0
      3903 MEMB     38       PSM      H6S      HAL2     0.900000E-01   1.00800           0
      3904 MEMB     38       PSM      H6T      HAL2     0.900000E-01   1.00800           0
      3905 MEMB     38       PSM      C7S      CTL2    -0.180000       12.0110           0
      3906 MEMB     38       PSM      H7S      HAL2     0.900000E-01   1.00800           0
      3907 MEMB     38       PSM      H7T      HAL2     0.900000E-01   1.00800           0
      3908 MEMB     38       PSM      C8S      CTL2    -0.180000       12.0110           0
      3909 MEMB     38       PSM      H8S      HAL2     0.900000E-01   1.00800           0
      3910 MEMB     38       PSM      H8T      HAL2     0.900000E-01   1.00800           0
      3911 MEMB     38       PSM      C9S      CTL2    -0.180000       12.0110           0
      3912 MEMB     38       PSM      H9S      HAL2     0.900000E-01   1.00800           0
      3913 MEMB     38       PSM      H9T      HAL2     0.900000E-01   1.00800           0
      3914 MEMB     38       PSM      C10S     CTL2    -0.180000       12.0110           0
      3915 MEMB     38       PSM      H10S     HAL2     0.900000E-01   1.00800           0
      3916 MEMB     38       PSM      H10T     HAL2     0.900000E-01   1.00800           0
      3917 MEMB     38       PSM      C11S     CTL2    -0.180000       12.0110           0
      3918 MEMB     38       PSM      H11S     HAL2     0.900000E-01   1.00800           0
      3919 MEMB     38       PSM      H11T     HAL2     0.900000E-01   1.00800           0
      3920 MEMB     38       PSM      C12S     CTL2    -0.180000       12.0110           0
      3921 MEMB     38       PSM      H12S     HAL2     0.900000E-01   1.00800           0
      3922 MEMB     38       PSM      H12T     HAL2     0.900000E-01   1.00800           0
      3923 MEMB     38       PSM      C13S     CTL2    -0.180000       12.0110           0
      3924 MEMB     38       PSM      H13S     HAL2     0.900000E-01   1.00800           0
      3925 MEMB     38       PSM      H13T     HAL2     0.900000E-01   1.00800           0
      3926 MEMB     38       PSM      C14S     CTL2    -0.180000       12.0110           0
      3927 MEMB     38       PSM      H14S     HAL2     0.900000E-01   1.00800           0
      3928 MEMB     38       PSM      H14T     HAL2     0.900000E-01   1.00800           0
      3929 MEMB     38       PSM      C15S     CTL2    -0.180000       12.0110           0
      3930 MEMB     38       PSM      H15S     HAL2     0.900000E-01   1.00800           0
      3931 MEMB     38       PSM      H15T     HAL2     0.900000E-01   1.00800           0
      3932 MEMB     38       PSM      C16S     CTL2    -0.180000       12.0110           0
      3933 MEMB     38       PSM      H16S     HAL2     0.900000E-01   1.00800           0
      3934 MEMB     38       PSM      H16T     HAL2     0.900000E-01   1.00800           0
      3935 MEMB     38       PSM      C17S     CTL2    -0.180000       12.0110           0
      3936 MEMB     38       PSM      H17S     HAL2     0.900000E-01   1.00800           0
      3937 MEMB     38       PSM      H17T     HAL2     0.900000E-01   1.00800           0
      3938 MEMB     38       PSM      C18S     CTL3    -0.270000       12.0110           0
      3939 MEMB     38       PSM      H18S     HAL3     0.900000E-01   1.00800           0
      3940 MEMB     38       PSM      H18T     HAL3     0.900000E-01   1.00800           0
      3941 MEMB     38       PSM      H18U     HAL3     0.900000E-01   1.00800           0
      3942 MEMB     38       PSM      C1F      C        0.550000       12.0110           0
      3943 MEMB     38       PSM      OF       O       -0.600000       15.9994           0
      3944 MEMB     38       PSM      C2F      CTL2    -0.700000E-01   12.0110           0
      3945 MEMB     38       PSM      H2F      HAL2     0.600000E-01   1.00800           0
      3946 MEMB     38       PSM      H2G      HAL2     0.600000E-01   1.00800           0
      3947 MEMB     38       PSM      C3F      CTL2    -0.180000       12.0110           0
      3948 MEMB     38       PSM      H3F      HAL2     0.900000E-01   1.00800           0
      3949 MEMB     38       PSM      H3G      HAL2     0.900000E-01   1.00800           0
      3950 MEMB     38       PSM      C4F      CTL2    -0.180000       12.0110           0
      3951 MEMB     38       PSM      H4F      HAL2     0.900000E-01   1.00800           0
      3952 MEMB     38       PSM      H4G      HAL2     0.900000E-01   1.00800           0
      3953 MEMB     38       PSM      C5F      CTL2    -0.180000       12.0110           0
      3954 MEMB     38       PSM      H5F      HAL2     0.900000E-01   1.00800           0
      3955 MEMB     38       PSM      H5G      HAL2     0.900000E-01   1.00800           0
      3956 MEMB     38       PSM      C6F      CTL2    -0.180000       12.0110           0
      3957 MEMB     38       PSM      H6F      HAL2     0.900000E-01   1.00800           0
      3958 MEMB     38       PSM      H6G      HAL2     0.900000E-01   1.00800           0
      3959 MEMB     38       PSM      C7F      CTL2    -0.180000       12.0110           0
      3960 MEMB     38       PSM      H7F      HAL2     0.900000E-01   1.00800           0
      3961 MEMB     38       PSM      H7G      HAL2     0.900000E-01   1.00800           0
      3962 MEMB     38       PSM      C8F      CTL2    -0.180000       12.0110           0
      3963 MEMB     38       PSM      H8F      HAL2     0.900000E-01   1.00800           0
      3964 MEMB     38       PSM      H8G      HAL2     0.900000E-01   1.00800           0
      3965 MEMB     38       PSM      C9F      CTL2    -0.180000       12.0110           0
      3966 MEMB     38       PSM      H9F      HAL2     0.900000E-01   1.00800           0
      3967 MEMB     38       PSM      H9G      HAL2     0.900000E-01   1.00800           0
      3968 MEMB     38       PSM      C10F     CTL2    -0.180000       12.0110           0
      3969 MEMB     38       PSM      H10F     HAL2     0.900000E-01   1.00800           0
      3970 MEMB     38       PSM      H10G     HAL2     0.900000E-01   1.00800           0
      3971 MEMB     38       PSM      C11F     CTL2    -0.180000       12.0110           0
      3972 MEMB     38       PSM      H11F     HAL2     0.900000E-01   1.00800           0
      3973 MEMB     38       PSM      H11G     HAL2     0.900000E-01   1.00800           0
      3974 MEMB     38       PSM      C12F     CTL2    -0.180000       12.0110           0
      3975 MEMB     38       PSM      H12F     HAL2     0.900000E-01   1.00800           0
      3976 MEMB     38       PSM      H12G     HAL2     0.900000E-01   1.00800           0
      3977 MEMB     38       PSM      C13F     CTL2    -0.180000       12.0110           0
      3978 MEMB     38       PSM      H13F     HAL2     0.900000E-01   1.00800           0
      3979 MEMB     38       PSM      H13G     HAL2     0.900000E-01   1.00800           0
      3980 MEMB     38       PSM      C14F     CTL2    -0.180000       12.0110           0
      3981 MEMB     38       PSM      H14F     HAL2     0.900000E-01   1.00800           0
      3982 MEMB     38       PSM      H14G     HAL2     0.900000E-01   1.00800           0
      3983 MEMB     38       PSM      C15F     CTL2    -0.180000       12.0110           0
      3984 MEMB     38       PSM      H15F     HAL2     0.900000E-01   1.00800           0
      3985 MEMB     38       PSM      H15G     HAL2     0.900000E-01   1.00800           0
      3986 MEMB     38       PSM      C16F     CTL3    -0.270000       12.0110           0
      3987 MEMB     38       PSM      H16F     HAL3     0.900000E-01   1.00800           0
      3988 MEMB     38       PSM      H16G     HAL3     0.900000E-01   1.00800           0
      3989 MEMB     38       PSM      H16H     HAL3     0.900000E-01   1.00800           0
      3990 MEMB     39       POPC     N        NTL     -0.600000       14.0070           0
      3991 MEMB     39       POPC     C12      CTL2    -0.100000       12.0110           0
      3992 MEMB     39       POPC     H12A     HL       0.250000       1.00800           0
      3993 MEMB     39       POPC     H12B     HL       0.250000       1.00800           0
      3994 MEMB     39       POPC     C13      CTL5    -0.350000       12.0110           0
      3995 MEMB     39       POPC     H13A     HL       0.250000       1.00800           0
      3996 MEMB     39       POPC     H13B     HL       0.250000       1.00800           0
      3997 MEMB     39       POPC     H13C     HL       0.250000       1.00800           0
      3998 MEMB     39       POPC     C14      CTL5    -0.350000       12.0110           0
      3999 MEMB     39       POPC     H14A     HL       0.250000       1.00800           0
      4000 MEMB     39       POPC     H14B     HL       0.250000       1.00800           0
      4001 MEMB     39       POPC     H14C     HL       0.250000       1.00800           0
      4002 MEMB     39       POPC     C15      CTL5    -0.350000       12.0110           0
      4003 MEMB     39       POPC     H15A     HL       0.250000       1.00800           0
      4004 MEMB     39       POPC     H15B     HL       0.250000       1.00800           0
      4005 MEMB     39       POPC     H15C     HL       0.250000       1.00800           0
      4006 MEMB     39       POPC     C11      CTL2    -0.800000E-01   12.0110           0
      4007 MEMB     39       POPC     H11A     HAL2     0.900000E-01   1.00800           0
      4008 MEMB     39       POPC     H11B     HAL2     0.900000E-01   1.00800           0
      4009 MEMB     39       POPC     P        PL       1.500000       30.9740           0
      4010 MEMB     39       POPC     O13      O2L     -0.780000       15.9994           0
      4011 MEMB     39       POPC     O14      O2L     -0.780000       15.9994           0
      4012 MEMB     39       POPC     O12      OSLP    -0.570000       15.9994           0
      4013 MEMB     39       POPC     O11      OSLP    -0.570000       15.9994           0
      4014 MEMB     39       POPC     C1       CTL2    -0.800000E-01   12.0110           0
      4015 MEMB     39       POPC     HA       HAL2     0.900000E-01   1.00800           0
      4016 MEMB     39       POPC     HB       HAL2     0.900000E-01   1.00800           0
      4017 MEMB     39       POPC     C2       CTL1     0.170000       12.0110           0
      4018 MEMB     39       POPC     HS       HAL1     0.900000E-01   1.00800           0
      4019 MEMB     39       POPC     O21      OSL     -0.490000       15.9994           0
      4020 MEMB     39       POPC     C21      CL       0.900000       12.0110           0
      4021 MEMB     39       POPC     O22      OBL     -0.630000       15.9994           0
      4022 MEMB     39       POPC     C22      CTL2    -0.220000       12.0110           0
      4023 MEMB     39       POPC     H2R      HAL2     0.900000E-01   1.00800           0
      4024 MEMB     39       POPC     H2S      HAL2     0.900000E-01   1.00800           0
      4025 MEMB     39       POPC     C3       CTL2     0.800000E-01   12.0110           0
      4026 MEMB     39       POPC     HX       HAL2     0.900000E-01   1.00800           0
      4027 MEMB     39       POPC     HY       HAL2     0.900000E-01   1.00800           0
      4028 MEMB     39       POPC     O31      OSL     -0.490000       15.9994           0
      4029 MEMB     39       POPC     C31      CL       0.900000       12.0110           0
      4030 MEMB     39       POPC     O32      OBL     -0.630000       15.9994           0
      4031 MEMB     39       POPC     C32      CTL2    -0.220000       12.0110           0
      4032 MEMB     39       POPC     H2X      HAL2     0.900000E-01   1.00800           0
      4033 MEMB     39       POPC     H2Y      HAL2     0.900000E-01   1.00800           0
      4034 MEMB     39       POPC     C23      CTL2    -0.180000       12.0110           0
      4035 MEMB     39       POPC     H3R      HAL2     0.900000E-01   1.00800           0
      4036 MEMB     39       POPC     H3S      HAL2     0.900000E-01   1.00800           0
      4037 MEMB     39       POPC     C24      CTL2    -0.180000       12.0110           0
      4038 MEMB     39       POPC     H4R      HAL2     0.900000E-01   1.00800           0
      4039 MEMB     39       POPC     H4S      HAL2     0.900000E-01   1.00800           0
      4040 MEMB     39       POPC     C25      CTL2    -0.180000       12.0110           0
      4041 MEMB     39       POPC     H5R      HAL2     0.900000E-01   1.00800           0
      4042 MEMB     39       POPC     H5S      HAL2     0.900000E-01   1.00800           0
      4043 MEMB     39       POPC     C26      CTL2    -0.180000       12.0110           0
      4044 MEMB     39       POPC     H6R      HAL2     0.900000E-01   1.00800           0
      4045 MEMB     39       POPC     H6S      HAL2     0.900000E-01   1.00800           0
      4046 MEMB     39       POPC     C27      CTL2    -0.180000       12.0110           0
      4047 MEMB     39       POPC     H7R      HAL2     0.900000E-01   1.00800           0
      4048 MEMB     39       POPC     H7S      HAL2     0.900000E-01   1.00800           0
      4049 MEMB     39       POPC     C28      CTL2    -0.180000       12.0110           0
      4050 MEMB     39       POPC     H8R      HAL2     0.900000E-01   1.00800           0
      4051 MEMB     39       POPC     H8S      HAL2     0.900000E-01   1.00800           0
      4052 MEMB     39       POPC     C29      CEL1    -0.150000       12.0110           0
      4053 MEMB     39       POPC     H91      HEL1     0.150000       1.00800           0
      4054 MEMB     39       POPC     C210     CEL1    -0.150000       12.0110           0
      4055 MEMB     39       POPC     H101     HEL1     0.150000       1.00800           0
      4056 MEMB     39       POPC     C211     CTL2    -0.180000       12.0110           0
      4057 MEMB     39       POPC     H11R     HAL2     0.900000E-01   1.00800           0
      4058 MEMB     39       POPC     H11S     HAL2     0.900000E-01   1.00800           0
      4059 MEMB     39       POPC     C212     CTL2    -0.180000       12.0110           0
      4060 MEMB     39       POPC     H12R     HAL2     0.900000E-01   1.00800           0
      4061 MEMB     39       POPC     H12S     HAL2     0.900000E-01   1.00800           0
      4062 MEMB     39       POPC     C213     CTL2    -0.180000       12.0110           0
      4063 MEMB     39       POPC     H13R     HAL2     0.900000E-01   1.00800           0
      4064 MEMB     39       POPC     H13S     HAL2     0.900000E-01   1.00800           0
      4065 MEMB     39       POPC     C214     CTL2    -0.180000       12.0110           0
      4066 MEMB     39       POPC     H14R     HAL2     0.900000E-01   1.00800           0
      4067 MEMB     39       POPC     H14S     HAL2     0.900000E-01   1.00800           0
      4068 MEMB     39       POPC     C215     CTL2    -0.180000       12.0110           0
      4069 MEMB     39       POPC     H15R     HAL2     0.900000E-01   1.00800           0
      4070 MEMB     39       POPC     H15S     HAL2     0.900000E-01   1.00800           0
      4071 MEMB     39       POPC     C216     CTL2    -0.180000       12.0110           0
      4072 MEMB     39       POPC     H16R     HAL2     0.900000E-01   1.00800           0
      4073 MEMB     39       POPC     H16S     HAL2     0.900000E-01   1.00800           0
      4074 MEMB     39       POPC     C217     CTL2    -0.180000       12.0110           0
      4075 MEMB     39       POPC     H17R     HAL2     0.900000E-01   1.00800           0
      4076 MEMB     39       POPC     H17S     HAL2     0.900000E-01   1.00800           0
      4077 MEMB     39       POPC     C218     CTL3    -0.270000       12.0110           0
      4078 MEMB     39       POPC     H18R     HAL3     0.900000E-01   1.00800           0
      4079 MEMB     39       POPC     H18S     HAL3     0.900000E-01   1.00800           0
      4080 MEMB     39       POPC     H18T     HAL3     0.900000E-01   1.00800           0
      4081 MEMB     39       POPC     C33      CTL2    -0.180000       12.0110           0
      4082 MEMB     39       POPC     H3X      HAL2     0.900000E-01   1.00800           0
      4083 MEMB     39       POPC     H3Y      HAL2     0.900000E-01   1.00800           0
      4084 MEMB     39       POPC     C34      CTL2    -0.180000       12.0110           0
      4085 MEMB     39       POPC     H4X      HAL2     0.900000E-01   1.00800           0
      4086 MEMB     39       POPC     H4Y      HAL2     0.900000E-01   1.00800           0
      4087 MEMB     39       POPC     C35      CTL2    -0.180000       12.0110           0
      4088 MEMB     39       POPC     H5X      HAL2     0.900000E-01   1.00800           0
      4089 MEMB     39       POPC     H5Y      HAL2     0.900000E-01   1.00800           0
      4090 MEMB     39       POPC     C36      CTL2    -0.180000       12.0110           0
      4091 MEMB     39       POPC     H6X      HAL2     0.900000E-01   1.00800           0
      4092 MEMB     39       POPC     H6Y      HAL2     0.900000E-01   1.00800           0
      4093 MEMB     39       POPC     C37      CTL2    -0.180000       12.0110           0
      4094 MEMB     39       POPC     H7X      HAL2     0.900000E-01   1.00800           0
      4095 MEMB     39       POPC     H7Y      HAL2     0.900000E-01   1.00800           0
      4096 MEMB     39       POPC     C38      CTL2    -0.180000       12.0110           0
      4097 MEMB     39       POPC     H8X      HAL2     0.900000E-01   1.00800           0
      4098 MEMB     39       POPC     H8Y      HAL2     0.900000E-01   1.00800           0
      4099 MEMB     39       POPC     C39      CTL2    -0.180000       12.0110           0
      4100 MEMB     39       POPC     H9X      HAL2     0.900000E-01   1.00800           0
      4101 MEMB     39       POPC     H9Y      HAL2     0.900000E-01   1.00800           0
      4102 MEMB     39       POPC     C310     CTL2    -0.180000       12.0110           0
      4103 MEMB     39       POPC     H10X     HAL2     0.900000E-01   1.00800           0
      4104 MEMB     39       POPC     H10Y     HAL2     0.900000E-01   1.00800           0
      4105 MEMB     39       POPC     C311     CTL2    -0.180000       12.0110           0
      4106 MEMB     39       POPC     H11X     HAL2     0.900000E-01   1.00800           0
      4107 MEMB     39       POPC     H11Y     HAL2     0.900000E-01   1.00800           0
      4108 MEMB     39       POPC     C312     CTL2    -0.180000       12.0110           0
      4109 MEMB     39       POPC     H12X     HAL2     0.900000E-01   1.00800           0
      4110 MEMB     39       POPC     H12Y     HAL2     0.900000E-01   1.00800           0
      4111 MEMB     39       POPC     C313     CTL2    -0.180000       12.0110           0
      4112 MEMB     39       POPC     H13X     HAL2     0.900000E-01   1.00800           0
      4113 MEMB     39       POPC     H13Y     HAL2     0.900000E-01   1.00800           0
      4114 MEMB     39       POPC     C314     CTL2    -0.180000       12.0110           0
      4115 MEMB     39       POPC     H14X     HAL2     0.900000E-01   1.00800           0
      4116 MEMB     39       POPC     H14Y     HAL2     0.900000E-01   1.00800           0
      4117 MEMB     39       POPC     C315     CTL2    -0.180000       12.0110           0
      4118 MEMB     39       POPC     H15X     HAL2     0.900000E-01   1.00800           0
      4119 MEMB     39       POPC     H15Y     HAL2     0.900000E-01   1.00800           0
      4120 MEMB     39       POPC     C316     CTL3    -0.270000       12.0110           0
      4121 MEMB     39       POPC     H16X     HAL3     0.900000E-01   1.00800           0
      4122 MEMB     39       POPC     H16Y     HAL3     0.900000E-01   1.00800           0
      4123 MEMB     39       POPC     H16Z     HAL3     0.900000E-01   1.00800           0
      4124 MEMB     40       PSM      N        NTL     -0.600000       14.0070           0
      4125 MEMB     40       PSM      C15      CTL5    -0.350000       12.0110           0
      4126 MEMB     40       PSM      H15A     HL       0.250000       1.00800           0
      4127 MEMB     40       PSM      H15B     HL       0.250000       1.00800           0
      4128 MEMB     40       PSM      H15C     HL       0.250000       1.00800           0
      4129 MEMB     40       PSM      C14      CTL5    -0.350000       12.0110           0
      4130 MEMB     40       PSM      H14A     HL       0.250000       1.00800           0
      4131 MEMB     40       PSM      H14B     HL       0.250000       1.00800           0
      4132 MEMB     40       PSM      H14C     HL       0.250000       1.00800           0
      4133 MEMB     40       PSM      C13      CTL5    -0.350000       12.0110           0
      4134 MEMB     40       PSM      H13A     HL       0.250000       1.00800           0
      4135 MEMB     40       PSM      H13B     HL       0.250000       1.00800           0
      4136 MEMB     40       PSM      H13C     HL       0.250000       1.00800           0
      4137 MEMB     40       PSM      C12      CTL2    -0.100000       12.0110           0
      4138 MEMB     40       PSM      H12A     HL       0.250000       1.00800           0
      4139 MEMB     40       PSM      H12B     HL       0.250000       1.00800           0
      4140 MEMB     40       PSM      C11      CTL2    -0.800000E-01   12.0110           0
      4141 MEMB     40       PSM      H11A     HAL2     0.900000E-01   1.00800           0
      4142 MEMB     40       PSM      H11B     HAL2     0.900000E-01   1.00800           0
      4143 MEMB     40       PSM      P        PL       1.500000       30.9740           0
      4144 MEMB     40       PSM      O13      O2L     -0.780000       15.9994           0
      4145 MEMB     40       PSM      O14      O2L     -0.780000       15.9994           0
      4146 MEMB     40       PSM      O11      OSLP    -0.570000       15.9994           0
      4147 MEMB     40       PSM      O12      OSLP    -0.570000       15.9994           0
      4148 MEMB     40       PSM      C1S      CTL2    -0.800000E-01   12.0110           0
      4149 MEMB     40       PSM      H1S      HAL2     0.900000E-01   1.00800           0
      4150 MEMB     40       PSM      H1T      HAL2     0.900000E-01   1.00800           0
      4151 MEMB     40       PSM      NF       NHL     -0.700000       14.0070           0
      4152 MEMB     40       PSM      HNF      H        0.350000       1.00800           0
      4153 MEMB     40       PSM      C2S      CTL1     0.300000       12.0110           0
      4154 MEMB     40       PSM      H2S      HAL1     0.500000E-01   1.00800           0
      4155 MEMB     40       PSM      C3S      CTO1     0.500000       12.0110           0
      4156 MEMB     40       PSM      H3S      HAL1    -0.110000       1.00800           0
      4157 MEMB     40       PSM      O3       OHL     -0.690000       15.9994           0
      4158 MEMB     40       PSM      HO3      HOL      0.300000       1.00800           0
      4159 MEMB     40       PSM      C4S      CEL3    -0.150000       12.0110           0
      4160 MEMB     40       PSM      H4S      HEL1     0.150000       1.00800           0
      4161 MEMB     40       PSM      C5S      CEL3    -0.150000       12.0110           0
      4162 MEMB     40       PSM      H5S      HEL1     0.150000       1.00800           0
      4163 MEMB     40       PSM      C6S      CTL2    -0.180000       12.0110           0
      4164 MEMB     40       PSM      H6S      HAL2     0.900000E-01   1.00800           0
      4165 MEMB     40       PSM      H6T      HAL2     0.900000E-01   1.00800           0
      4166 MEMB     40       PSM      C7S      CTL2    -0.180000       12.0110           0
      4167 MEMB     40       PSM      H7S      HAL2     0.900000E-01   1.00800           0
      4168 MEMB     40       PSM      H7T      HAL2     0.900000E-01   1.00800           0
      4169 MEMB     40       PSM      C8S      CTL2    -0.180000       12.0110           0
      4170 MEMB     40       PSM      H8S      HAL2     0.900000E-01   1.00800           0
      4171 MEMB     40       PSM      H8T      HAL2     0.900000E-01   1.00800           0
      4172 MEMB     40       PSM      C9S      CTL2    -0.180000       12.0110           0
      4173 MEMB     40       PSM      H9S      HAL2     0.900000E-01   1.00800           0
      4174 MEMB     40       PSM      H9T      HAL2     0.900000E-01   1.00800           0
      4175 MEMB     40       PSM      C10S     CTL2    -0.180000       12.0110           0
      4176 MEMB     40       PSM      H10S     HAL2     0.900000E-01   1.00800           0
      4177 MEMB     40       PSM      H10T     HAL2     0.900000E-01   1.00800           0
      4178 MEMB     40       PSM      C11S     CTL2    -0.180000       12.0110           0
      4179 MEMB     40       PSM      H11S     HAL2     0.900000E-01   1.00800           0
      4180 MEMB     40       PSM      H11T     HAL2     0.900000E-01   1.00800           0
      4181 MEMB     40       PSM      C12S     CTL2    -0.180000       12.0110           0
      4182 MEMB     40       PSM      H12S     HAL2     0.900000E-01   1.00800           0
      4183 MEMB     40       PSM      H12T     HAL2     0.900000E-01   1.00800           0
      4184 MEMB     40       PSM      C13S     CTL2    -0.180000       12.0110           0
      4185 MEMB     40       PSM      H13S     HAL2     0.900000E-01   1.00800           0
      4186 MEMB     40       PSM      H13T     HAL2     0.900000E-01   1.00800           0
      4187 MEMB     40       PSM      C14S     CTL2    -0.180000       12.0110           0
      4188 MEMB     40       PSM      H14S     HAL2     0.900000E-01   1.00800           0
      4189 MEMB     40       PSM      H14T     HAL2     0.900000E-01   1.00800           0
      4190 MEMB     40       PSM      C15S     CTL2    -0.180000       12.0110           0
      4191 MEMB     40       PSM      H15S     HAL2     0.900000E-01   1.00800           0
      4192 MEMB     40       PSM      H15T     HAL2     0.900000E-01   1.00800           0
      4193 MEMB     40       PSM      C16S     CTL2    -0.180000       12.0110           0
      4194 MEMB     40       PSM      H16S     HAL2     0.900000E-01   1.00800           0
      4195 MEMB     40       PSM      H16T     HAL2     0.900000E-01   1.00800           0
      4196 MEMB     40       PSM      C17S     CTL2    -0.180000       12.0110           0
      4197 MEMB     40       PSM      H17S     HAL2     0.900000E-01   1.00800           0
      4198 MEMB     40       PSM      H17T     HAL2     0.900000E-01   1.00800           0
      4199 MEMB     40       PSM      C18S     CTL3    -0.270000       12.0110           0
      4200 MEMB     40       PSM      H18S     HAL3     0.900000E-01   1.00800           0
      4201 MEMB     40       PSM      H18T     HAL3     0.900000E-01   1.00800           0
      4202 MEMB     40       PSM      H18U     HAL3     0.900000E-01   1.00800           0
      4203 MEMB     40       PSM      C1F      C        0.550000       12.0110           0
      4204 MEMB     40       PSM      OF       O       -0.600000       15.9994           0
      4205 MEMB     40       PSM      C2F      CTL2    -0.700000E-01   12.0110           0
      4206 MEMB     40       PSM      H2F      HAL2     0.600000E-01   1.00800           0
      4207 MEMB     40       PSM      H2G      HAL2     0.600000E-01   1.00800           0
      4208 MEMB     40       PSM      C3F      CTL2    -0.180000       12.0110           0
      4209 MEMB     40       PSM      H3F      HAL2     0.900000E-01   1.00800           0
      4210 MEMB     40       PSM      H3G      HAL2     0.900000E-01   1.00800           0
      4211 MEMB     40       PSM      C4F      CTL2    -0.180000       12.0110           0
      4212 MEMB     40       PSM      H4F      HAL2     0.900000E-01   1.00800           0
      4213 MEMB     40       PSM      H4G      HAL2     0.900000E-01   1.00800           0
      4214 MEMB     40       PSM      C5F      CTL2    -0.180000       12.0110           0
      4215 MEMB     40       PSM      H5F      HAL2     0.900000E-01   1.00800           0
      4216 MEMB     40       PSM      H5G      HAL2     0.900000E-01   1.00800           0
      4217 MEMB     40       PSM      C6F      CTL2    -0.180000       12.0110           0
      4218 MEMB     40       PSM      H6F      HAL2     0.900000E-01   1.00800           0
      4219 MEMB     40       PSM      H6G      HAL2     0.900000E-01   1.00800           0
      4220 MEMB     40       PSM      C7F      CTL2    -0.180000       12.0110           0
      4221 MEMB     40       PSM      H7F      HAL2     0.900000E-01   1.00800           0
      4222 MEMB     40       PSM      H7G      HAL2     0.900000E-01   1.00800           0
      4223 MEMB     40       PSM      C8F      CTL2    -0.180000       12.0110           0
      4224 MEMB     40       PSM      H8F      HAL2     0.900000E-01   1.00800           0
      4225 MEMB     40       PSM      H8G      HAL2     0.900000E-01   1.00800           0
      4226 MEMB     40       PSM      C9F      CTL2    -0.180000       12.0110           0
      4227 MEMB     40       PSM      H9F      HAL2     0.900000E-01   1.00800           0
      4228 MEMB     40       PSM      H9G      HAL2     0.900000E-01   1.00800           0
      4229 MEMB     40       PSM      C10F     CTL2    -0.180000       12.0110           0
      4230 MEMB     40       PSM      H10F     HAL2     0.900000E-01   1.00800           0
      4231 MEMB     40       PSM      H10G     HAL2     0.900000E-01   1.00800           0
      4232 MEMB     40       PSM      C11F     CTL2    -0.180000       12.0110           0
      4233 MEMB     40       PSM      H11F     HAL2     0.900000E-01   1.00800           0
      4234 MEMB     40       PSM      H11G     HAL2     0.900000E-01   1.00800           0
      4235 MEMB     40       PSM      C12F     CTL2    -0.180000       12.0110           0
      4236 MEMB     40       PSM      H12F     HAL2     0.900000E-01   1.00800           0
      4237 MEMB     40       PSM      H12G     HAL2     0.900000E-01   1.00800           0
      4238 MEMB     40       PSM      C13F     CTL2    -0.180000       12.0110           0
      4239 MEMB     40       PSM      H13F     HAL2     0.900000E-01   1.00800           0
      4240 MEMB     40       PSM      H13G     HAL2     0.900000E-01   1.00800           0
      4241 MEMB     40       PSM      C14F     CTL2    -0.180000       12.0110           0
      4242 MEMB     40       PSM      H14F     HAL2     0.900000E-01   1.00800           0
      4243 MEMB     40       PSM      H14G     HAL2     0.900000E-01   1.00800           0
      4244 MEMB     40       PSM      C15F     CTL2    -0.180000       12.0110           0
      4245 MEMB     40       PSM      H15F     HAL2     0.900000E-01   1.00800           0
      4246 MEMB     40       PSM      H15G     HAL2     0.900000E-01   1.00800           0
      4247 MEMB     40       PSM      C16F     CTL3    -0.270000       12.0110           0
      4248 MEMB     40       PSM      H16F     HAL3     0.900000E-01   1.00800           0
      4249 MEMB     40       PSM      H16G     HAL3     0.900000E-01   1.00800           0
      4250 MEMB     40       PSM      H16H     HAL3     0.900000E-01   1.00800           0
      4251 MEMB     41       POPE     N        NH3L    -0.300000       14.0070           0
      4252 MEMB     41       POPE     HN1      HCL      0.330000       1.00800           0
      4253 MEMB     41       POPE     HN2      HCL      0.330000       1.00800           0
      4254 MEMB     41       POPE     HN3      HCL      0.330000       1.00800           0
      4255 MEMB     41       POPE     C12      CTL2     0.130000       12.0110           0
      4256 MEMB     41       POPE     H12A     HAL2     0.900000E-01   1.00800           0
      4257 MEMB     41       POPE     H12B     HAL2     0.900000E-01   1.00800           0
      4258 MEMB     41       POPE     C11      CTL2    -0.800000E-01   12.0110           0
      4259 MEMB     41       POPE     H11A     HAL2     0.900000E-01   1.00800           0
      4260 MEMB     41       POPE     H11B     HAL2     0.900000E-01   1.00800           0
      4261 MEMB     41       POPE     P        PL       1.500000       30.9740           0
      4262 MEMB     41       POPE     O13      O2L     -0.780000       15.9994           0
      4263 MEMB     41       POPE     O14      O2L     -0.780000       15.9994           0
      4264 MEMB     41       POPE     O11      OSLP    -0.570000       15.9994           0
      4265 MEMB     41       POPE     O12      OSLP    -0.570000       15.9994           0
      4266 MEMB     41       POPE     C1       CTL2    -0.800000E-01   12.0110           0
      4267 MEMB     41       POPE     HA       HAL2     0.900000E-01   1.00800           0
      4268 MEMB     41       POPE     HB       HAL2     0.900000E-01   1.00800           0
      4269 MEMB     41       POPE     C2       CTL1     0.170000       12.0110           0
      4270 MEMB     41       POPE     HS       HAL1     0.900000E-01   1.00800           0
      4271 MEMB     41       POPE     O21      OSL     -0.490000       15.9994           0
      4272 MEMB     41       POPE     C21      CL       0.900000       12.0110           0
      4273 MEMB     41       POPE     O22      OBL     -0.630000       15.9994           0
      4274 MEMB     41       POPE     C22      CTL2    -0.220000       12.0110           0
      4275 MEMB     41       POPE     H2R      HAL2     0.900000E-01   1.00800           0
      4276 MEMB     41       POPE     H2S      HAL2     0.900000E-01   1.00800           0
      4277 MEMB     41       POPE     C3       CTL2     0.800000E-01   12.0110           0
      4278 MEMB     41       POPE     HX       HAL2     0.900000E-01   1.00800           0
      4279 MEMB     41       POPE     HY       HAL2     0.900000E-01   1.00800           0
      4280 MEMB     41       POPE     O31      OSL     -0.490000       15.9994           0
      4281 MEMB     41       POPE     C31      CL       0.900000       12.0110           0
      4282 MEMB     41       POPE     O32      OBL     -0.630000       15.9994           0
      4283 MEMB     41       POPE     C32      CTL2    -0.220000       12.0110           0
      4284 MEMB     41       POPE     H2X      HAL2     0.900000E-01   1.00800           0
      4285 MEMB     41       POPE     H2Y      HAL2     0.900000E-01   1.00800           0
      4286 MEMB     41       POPE     C23      CTL2    -0.180000       12.0110           0
      4287 MEMB     41       POPE     H3R      HAL2     0.900000E-01   1.00800           0
      4288 MEMB     41       POPE     H3S      HAL2     0.900000E-01   1.00800           0
      4289 MEMB     41       POPE     C24      CTL2    -0.180000       12.0110           0
      4290 MEMB     41       POPE     H4R      HAL2     0.900000E-01   1.00800           0
      4291 MEMB     41       POPE     H4S      HAL2     0.900000E-01   1.00800           0
      4292 MEMB     41       POPE     C25      CTL2    -0.180000       12.0110           0
      4293 MEMB     41       POPE     H5R      HAL2     0.900000E-01   1.00800           0
      4294 MEMB     41       POPE     H5S      HAL2     0.900000E-01   1.00800           0
      4295 MEMB     41       POPE     C26      CTL2    -0.180000       12.0110           0
      4296 MEMB     41       POPE     H6R      HAL2     0.900000E-01   1.00800           0
      4297 MEMB     41       POPE     H6S      HAL2     0.900000E-01   1.00800           0
      4298 MEMB     41       POPE     C27      CTL2    -0.180000       12.0110           0
      4299 MEMB     41       POPE     H7R      HAL2     0.900000E-01   1.00800           0
      4300 MEMB     41       POPE     H7S      HAL2     0.900000E-01   1.00800           0
      4301 MEMB     41       POPE     C28      CTL2    -0.180000       12.0110           0
      4302 MEMB     41       POPE     H8R      HAL2     0.900000E-01   1.00800           0
      4303 MEMB     41       POPE     H8S      HAL2     0.900000E-01   1.00800           0
      4304 MEMB     41       POPE     C29      CEL1    -0.150000       12.0110           0
      4305 MEMB     41       POPE     H91      HEL1     0.150000       1.00800           0
      4306 MEMB     41       POPE     C210     CEL1    -0.150000       12.0110           0
      4307 MEMB     41       POPE     H101     HEL1     0.150000       1.00800           0
      4308 MEMB     41       POPE     C211     CTL2    -0.180000       12.0110           0
      4309 MEMB     41       POPE     H11R     HAL2     0.900000E-01   1.00800           0
      4310 MEMB     41       POPE     H11S     HAL2     0.900000E-01   1.00800           0
      4311 MEMB     41       POPE     C212     CTL2    -0.180000       12.0110           0
      4312 MEMB     41       POPE     H12R     HAL2     0.900000E-01   1.00800           0
      4313 MEMB     41       POPE     H12S     HAL2     0.900000E-01   1.00800           0
      4314 MEMB     41       POPE     C213     CTL2    -0.180000       12.0110           0
      4315 MEMB     41       POPE     H13R     HAL2     0.900000E-01   1.00800           0
      4316 MEMB     41       POPE     H13S     HAL2     0.900000E-01   1.00800           0
      4317 MEMB     41       POPE     C214     CTL2    -0.180000       12.0110           0
      4318 MEMB     41       POPE     H14R     HAL2     0.900000E-01   1.00800           0
      4319 MEMB     41       POPE     H14S     HAL2     0.900000E-01   1.00800           0
      4320 MEMB     41       POPE     C215     CTL2    -0.180000       12.0110           0
      4321 MEMB     41       POPE     H15R     HAL2     0.900000E-01   1.00800           0
      4322 MEMB     41       POPE     H15S     HAL2     0.900000E-01   1.00800           0
      4323 MEMB     41       POPE     C216     CTL2    -0.180000       12.0110           0
      4324 MEMB     41       POPE     H16R     HAL2     0.900000E-01   1.00800           0
      4325 MEMB     41       POPE     H16S     HAL2     0.900000E-01   1.00800           0
      4326 MEMB     41       POPE     C217     CTL2    -0.180000       12.0110           0
      4327 MEMB     41       POPE     H17R     HAL2     0.900000E-01   1.00800           0
      4328 MEMB     41       POPE     H17S     HAL2     0.900000E-01   1.00800           0
      4329 MEMB     41       POPE     C218     CTL3    -0.270000       12.0110           0
      4330 MEMB     41       POPE     H18R     HAL3     0.900000E-01   1.00800           0
      4331 MEMB     41       POPE     H18S     HAL3     0.900000E-01   1.00800           0
      4332 MEMB     41       POPE     H18T     HAL3     0.900000E-01   1.00800           0
      4333 MEMB     41       POPE     C33      CTL2    -0.180000       12.0110           0
      4334 MEMB     41       POPE     H3X      HAL2     0.900000E-01   1.00800           0
      4335 MEMB     41       POPE     H3Y      HAL2     0.900000E-01   1.00800           0
      4336 MEMB     41       POPE     C34      CTL2    -0.180000       12.0110           0
      4337 MEMB     41       POPE     H4X      HAL2     0.900000E-01   1.00800           0
      4338 MEMB     41       POPE     H4Y      HAL2     0.900000E-01   1.00800           0
      4339 MEMB     41       POPE     C35      CTL2    -0.180000       12.0110           0
      4340 MEMB     41       POPE     H5X      HAL2     0.900000E-01   1.00800           0
      4341 MEMB     41       POPE     H5Y      HAL2     0.900000E-01   1.00800           0
      4342 MEMB     41       POPE     C36      CTL2    -0.180000       12.0110           0
      4343 MEMB     41       POPE     H6X      HAL2     0.900000E-01   1.00800           0
      4344 MEMB     41       POPE     H6Y      HAL2     0.900000E-01   1.00800           0
      4345 MEMB     41       POPE     C37      CTL2    -0.180000       12.0110           0
      4346 MEMB     41       POPE     H7X      HAL2     0.900000E-01   1.00800           0
      4347 MEMB     41       POPE     H7Y      HAL2     0.900000E-01   1.00800           0
      4348 MEMB     41       POPE     C38      CTL2    -0.180000       12.0110           0
      4349 MEMB     41       POPE     H8X      HAL2     0.900000E-01   1.00800           0
      4350 MEMB     41       POPE     H8Y      HAL2     0.900000E-01   1.00800           0
      4351 MEMB     41       POPE     C39      CTL2    -0.180000       12.0110           0
      4352 MEMB     41       POPE     H9X      HAL2     0.900000E-01   1.00800           0
      4353 MEMB     41       POPE     H9Y      HAL2     0.900000E-01   1.00800           0
      4354 MEMB     41       POPE     C310     CTL2    -0.180000       12.0110           0
      4355 MEMB     41       POPE     H10X     HAL2     0.900000E-01   1.00800           0
      4356 MEMB     41       POPE     H10Y     HAL2     0.900000E-01   1.00800           0
      4357 MEMB     41       POPE     C311     CTL2    -0.180000       12.0110           0
      4358 MEMB     41       POPE     H11X     HAL2     0.900000E-01   1.00800           0
      4359 MEMB     41       POPE     H11Y     HAL2     0.900000E-01   1.00800           0
      4360 MEMB     41       POPE     C312     CTL2    -0.180000       12.0110           0
      4361 MEMB     41       POPE     H12X     HAL2     0.900000E-01   1.00800           0
      4362 MEMB     41       POPE     H12Y     HAL2     0.900000E-01   1.00800           0
      4363 MEMB     41       POPE     C313     CTL2    -0.180000       12.0110           0
      4364 MEMB     41       POPE     H13X     HAL2     0.900000E-01   1.00800           0
      4365 MEMB     41       POPE     H13Y     HAL2     0.900000E-01   1.00800           0
      4366 MEMB     41       POPE     C314     CTL2    -0.180000       12.0110           0
      4367 MEMB     41       POPE     H14X     HAL2     0.900000E-01   1.00800           0
      4368 MEMB     41       POPE     H14Y     HAL2     0.900000E-01   1.00800           0
      4369 MEMB     41       POPE     C315     CTL2    -0.180000       12.0110           0
      4370 MEMB     41       POPE     H15X     HAL2     0.900000E-01   1.00800           0
      4371 MEMB     41       POPE     H15Y     HAL2     0.900000E-01   1.00800           0
      4372 MEMB     41       POPE     C316     CTL3    -0.270000       12.0110           0
      4373 MEMB     41       POPE     H16X     HAL3     0.900000E-01   1.00800           0
      4374 MEMB     41       POPE     H16Y     HAL3     0.900000E-01   1.00800           0
      4375 MEMB     41       POPE     H16Z     HAL3     0.900000E-01   1.00800           0
      4376 MEMB     42       POPC     N        NTL     -0.600000       14.0070           0
      4377 MEMB     42       POPC     C12      CTL2    -0.100000       12.0110           0
      4378 MEMB     42       POPC     H12A     HL       0.250000       1.00800           0
      4379 MEMB     42       POPC     H12B     HL       0.250000       1.00800           0
      4380 MEMB     42       POPC     C13      CTL5    -0.350000       12.0110           0
      4381 MEMB     42       POPC     H13A     HL       0.250000       1.00800           0
      4382 MEMB     42       POPC     H13B     HL       0.250000       1.00800           0
      4383 MEMB     42       POPC     H13C     HL       0.250000       1.00800           0
      4384 MEMB     42       POPC     C14      CTL5    -0.350000       12.0110           0
      4385 MEMB     42       POPC     H14A     HL       0.250000       1.00800           0
      4386 MEMB     42       POPC     H14B     HL       0.250000       1.00800           0
      4387 MEMB     42       POPC     H14C     HL       0.250000       1.00800           0
      4388 MEMB     42       POPC     C15      CTL5    -0.350000       12.0110           0
      4389 MEMB     42       POPC     H15A     HL       0.250000       1.00800           0
      4390 MEMB     42       POPC     H15B     HL       0.250000       1.00800           0
      4391 MEMB     42       POPC     H15C     HL       0.250000       1.00800           0
      4392 MEMB     42       POPC     C11      CTL2    -0.800000E-01   12.0110           0
      4393 MEMB     42       POPC     H11A     HAL2     0.900000E-01   1.00800           0
      4394 MEMB     42       POPC     H11B     HAL2     0.900000E-01   1.00800           0
      4395 MEMB     42       POPC     P        PL       1.500000       30.9740           0
      4396 MEMB     42       POPC     O13      O2L     -0.780000       15.9994           0
      4397 MEMB     42       POPC     O14      O2L     -0.780000       15.9994           0
      4398 MEMB     42       POPC     O12      OSLP    -0.570000       15.9994           0
      4399 MEMB     42       POPC     O11      OSLP    -0.570000       15.9994           0
      4400 MEMB     42       POPC     C1       CTL2    -0.800000E-01   12.0110           0
      4401 MEMB     42       POPC     HA       HAL2     0.900000E-01   1.00800           0
      4402 MEMB     42       POPC     HB       HAL2     0.900000E-01   1.00800           0
      4403 MEMB     42       POPC     C2       CTL1     0.170000       12.0110           0
      4404 MEMB     42       POPC     HS       HAL1     0.900000E-01   1.00800           0
      4405 MEMB     42       POPC     O21      OSL     -0.490000       15.9994           0
      4406 MEMB     42       POPC     C21      CL       0.900000       12.0110           0
      4407 MEMB     42       POPC     O22      OBL     -0.630000       15.9994           0
      4408 MEMB     42       POPC     C22      CTL2    -0.220000       12.0110           0
      4409 MEMB     42       POPC     H2R      HAL2     0.900000E-01   1.00800           0
      4410 MEMB     42       POPC     H2S      HAL2     0.900000E-01   1.00800           0
      4411 MEMB     42       POPC     C3       CTL2     0.800000E-01   12.0110           0
      4412 MEMB     42       POPC     HX       HAL2     0.900000E-01   1.00800           0
      4413 MEMB     42       POPC     HY       HAL2     0.900000E-01   1.00800           0
      4414 MEMB     42       POPC     O31      OSL     -0.490000       15.9994           0
      4415 MEMB     42       POPC     C31      CL       0.900000       12.0110           0
      4416 MEMB     42       POPC     O32      OBL     -0.630000       15.9994           0
      4417 MEMB     42       POPC     C32      CTL2    -0.220000       12.0110           0
      4418 MEMB     42       POPC     H2X      HAL2     0.900000E-01   1.00800           0
      4419 MEMB     42       POPC     H2Y      HAL2     0.900000E-01   1.00800           0
      4420 MEMB     42       POPC     C23      CTL2    -0.180000       12.0110           0
      4421 MEMB     42       POPC     H3R      HAL2     0.900000E-01   1.00800           0
      4422 MEMB     42       POPC     H3S      HAL2     0.900000E-01   1.00800           0
      4423 MEMB     42       POPC     C24      CTL2    -0.180000       12.0110           0
      4424 MEMB     42       POPC     H4R      HAL2     0.900000E-01   1.00800           0
      4425 MEMB     42       POPC     H4S      HAL2     0.900000E-01   1.00800           0
      4426 MEMB     42       POPC     C25      CTL2    -0.180000       12.0110           0
      4427 MEMB     42       POPC     H5R      HAL2     0.900000E-01   1.00800           0
      4428 MEMB     42       POPC     H5S      HAL2     0.900000E-01   1.00800           0
      4429 MEMB     42       POPC     C26      CTL2    -0.180000       12.0110           0
      4430 MEMB     42       POPC     H6R      HAL2     0.900000E-01   1.00800           0
      4431 MEMB     42       POPC     H6S      HAL2     0.900000E-01   1.00800           0
      4432 MEMB     42       POPC     C27      CTL2    -0.180000       12.0110           0
      4433 MEMB     42       POPC     H7R      HAL2     0.900000E-01   1.00800           0
      4434 MEMB     42       POPC     H7S      HAL2     0.900000E-01   1.00800           0
      4435 MEMB     42       POPC     C28      CTL2    -0.180000       12.0110           0
      4436 MEMB     42       POPC     H8R      HAL2     0.900000E-01   1.00800           0
      4437 MEMB     42       POPC     H8S      HAL2     0.900000E-01   1.00800           0
      4438 MEMB     42       POPC     C29      CEL1    -0.150000       12.0110           0
      4439 MEMB     42       POPC     H91      HEL1     0.150000       1.00800           0
      4440 MEMB     42       POPC     C210     CEL1    -0.150000       12.0110           0
      4441 MEMB     42       POPC     H101     HEL1     0.150000       1.00800           0
      4442 MEMB     42       POPC     C211     CTL2    -0.180000       12.0110           0
      4443 MEMB     42       POPC     H11R     HAL2     0.900000E-01   1.00800           0
      4444 MEMB     42       POPC     H11S     HAL2     0.900000E-01   1.00800           0
      4445 MEMB     42       POPC     C212     CTL2    -0.180000       12.0110           0
      4446 MEMB     42       POPC     H12R     HAL2     0.900000E-01   1.00800           0
      4447 MEMB     42       POPC     H12S     HAL2     0.900000E-01   1.00800           0
      4448 MEMB     42       POPC     C213     CTL2    -0.180000       12.0110           0
      4449 MEMB     42       POPC     H13R     HAL2     0.900000E-01   1.00800           0
      4450 MEMB     42       POPC     H13S     HAL2     0.900000E-01   1.00800           0
      4451 MEMB     42       POPC     C214     CTL2    -0.180000       12.0110           0
      4452 MEMB     42       POPC     H14R     HAL2     0.900000E-01   1.00800           0
      4453 MEMB     42       POPC     H14S     HAL2     0.900000E-01   1.00800           0
      4454 MEMB     42       POPC     C215     CTL2    -0.180000       12.0110           0
      4455 MEMB     42       POPC     H15R     HAL2     0.900000E-01   1.00800           0
      4456 MEMB     42       POPC     H15S     HAL2     0.900000E-01   1.00800           0
      4457 MEMB     42       POPC     C216     CTL2    -0.180000       12.0110           0
      4458 MEMB     42       POPC     H16R     HAL2     0.900000E-01   1.00800           0
      4459 MEMB     42       POPC     H16S     HAL2     0.900000E-01   1.00800           0
      4460 MEMB     42       POPC     C217     CTL2    -0.180000       12.0110           0
      4461 MEMB     42       POPC     H17R     HAL2     0.900000E-01   1.00800           0
      4462 MEMB     42       POPC     H17S     HAL2     0.900000E-01   1.00800           0
      4463 MEMB     42       POPC     C218     CTL3    -0.270000       12.0110           0
      4464 MEMB     42       POPC     H18R     HAL3     0.900000E-01   1.00800           0
      4465 MEMB     42       POPC     H18S     HAL3     0.900000E-01   1.00800           0
      4466 MEMB     42       POPC     H18T     HAL3     0.900000E-01   1.00800           0
      4467 MEMB     42       POPC     C33      CTL2    -0.180000       12.0110           0
      4468 MEMB     42       POPC     H3X      HAL2     0.900000E-01   1.00800           0
      4469 MEMB     42       POPC     H3Y      HAL2     0.900000E-01   1.00800           0
      4470 MEMB     42       POPC     C34      CTL2    -0.180000       12.0110           0
      4471 MEMB     42       POPC     H4X      HAL2     0.900000E-01   1.00800           0
      4472 MEMB     42       POPC     H4Y      HAL2     0.900000E-01   1.00800           0
      4473 MEMB     42       POPC     C35      CTL2    -0.180000       12.0110           0
      4474 MEMB     42       POPC     H5X      HAL2     0.900000E-01   1.00800           0
      4475 MEMB     42       POPC     H5Y      HAL2     0.900000E-01   1.00800           0
      4476 MEMB     42       POPC     C36      CTL2    -0.180000       12.0110           0
      4477 MEMB     42       POPC     H6X      HAL2     0.900000E-01   1.00800           0
      4478 MEMB     42       POPC     H6Y      HAL2     0.900000E-01   1.00800           0
      4479 MEMB     42       POPC     C37      CTL2    -0.180000       12.0110           0
      4480 MEMB     42       POPC     H7X      HAL2     0.900000E-01   1.00800           0
      4481 MEMB     42       POPC     H7Y      HAL2     0.900000E-01   1.00800           0
      4482 MEMB     42       POPC     C38      CTL2    -0.180000       12.0110           0
      4483 MEMB     42       POPC     H8X      HAL2     0.900000E-01   1.00800           0
      4484 MEMB     42       POPC     H8Y      HAL2     0.900000E-01   1.00800           0
      4485 MEMB     42       POPC     C39      CTL2    -0.180000       12.0110           0
      4486 MEMB     42       POPC     H9X      HAL2     0.900000E-01   1.00800           0
      4487 MEMB     42       POPC     H9Y      HAL2     0.900000E-01   1.00800           0
      4488 MEMB     42       POPC     C310     CTL2    -0.180000       12.0110           0
      4489 MEMB     42       POPC     H10X     HAL2     0.900000E-01   1.00800           0
      4490 MEMB     42       POPC     H10Y     HAL2     0.900000E-01   1.00800           0
      4491 MEMB     42       POPC     C311     CTL2    -0.180000       12.0110           0
      4492 MEMB     42       POPC     H11X     HAL2     0.900000E-01   1.00800           0
      4493 MEMB     42       POPC     H11Y     HAL2     0.900000E-01   1.00800           0
      4494 MEMB     42       POPC     C312     CTL2    -0.180000       12.0110           0
      4495 MEMB     42       POPC     H12X     HAL2     0.900000E-01   1.00800           0
      4496 MEMB     42       POPC     H12Y     HAL2     0.900000E-01   1.00800           0
      4497 MEMB     42       POPC     C313     CTL2    -0.180000       12.0110           0
      4498 MEMB     42       POPC     H13X     HAL2     0.900000E-01   1.00800           0
      4499 MEMB     42       POPC     H13Y     HAL2     0.900000E-01   1.00800           0
      4500 MEMB     42       POPC     C314     CTL2    -0.180000       12.0110           0
      4501 MEMB     42       POPC     H14X     HAL2     0.900000E-01   1.00800           0
      4502 MEMB     42       POPC     H14Y     HAL2     0.900000E-01   1.00800           0
      4503 MEMB     42       POPC     C315     CTL2    -0.180000       12.0110           0
      4504 MEMB     42       POPC     H15X     HAL2     0.900000E-01   1.00800           0
      4505 MEMB     42       POPC     H15Y     HAL2     0.900000E-01   1.00800           0
      4506 MEMB     42       POPC     C316     CTL3    -0.270000       12.0110           0
      4507 MEMB     42       POPC     H16X     HAL3     0.900000E-01   1.00800           0
      4508 MEMB     42       POPC     H16Y     HAL3     0.900000E-01   1.00800           0
      4509 MEMB     42       POPC     H16Z     HAL3     0.900000E-01   1.00800           0
      4510 MEMB     43       POPC     N        NTL     -0.600000       14.0070           0
      4511 MEMB     43       POPC     C12      CTL2    -0.100000       12.0110           0
      4512 MEMB     43       POPC     H12A     HL       0.250000       1.00800           0
      4513 MEMB     43       POPC     H12B     HL       0.250000       1.00800           0
      4514 MEMB     43       POPC     C13      CTL5    -0.350000       12.0110           0
      4515 MEMB     43       POPC     H13A     HL       0.250000       1.00800           0
      4516 MEMB     43       POPC     H13B     HL       0.250000       1.00800           0
      4517 MEMB     43       POPC     H13C     HL       0.250000       1.00800           0
      4518 MEMB     43       POPC     C14      CTL5    -0.350000       12.0110           0
      4519 MEMB     43       POPC     H14A     HL       0.250000       1.00800           0
      4520 MEMB     43       POPC     H14B     HL       0.250000       1.00800           0
      4521 MEMB     43       POPC     H14C     HL       0.250000       1.00800           0
      4522 MEMB     43       POPC     C15      CTL5    -0.350000       12.0110           0
      4523 MEMB     43       POPC     H15A     HL       0.250000       1.00800           0
      4524 MEMB     43       POPC     H15B     HL       0.250000       1.00800           0
      4525 MEMB     43       POPC     H15C     HL       0.250000       1.00800           0
      4526 MEMB     43       POPC     C11      CTL2    -0.800000E-01   12.0110           0
      4527 MEMB     43       POPC     H11A     HAL2     0.900000E-01   1.00800           0
      4528 MEMB     43       POPC     H11B     HAL2     0.900000E-01   1.00800           0
      4529 MEMB     43       POPC     P        PL       1.500000       30.9740           0
      4530 MEMB     43       POPC     O13      O2L     -0.780000       15.9994           0
      4531 MEMB     43       POPC     O14      O2L     -0.780000       15.9994           0
      4532 MEMB     43       POPC     O12      OSLP    -0.570000       15.9994           0
      4533 MEMB     43       POPC     O11      OSLP    -0.570000       15.9994           0
      4534 MEMB     43       POPC     C1       CTL2    -0.800000E-01   12.0110           0
      4535 MEMB     43       POPC     HA       HAL2     0.900000E-01   1.00800           0
      4536 MEMB     43       POPC     HB       HAL2     0.900000E-01   1.00800           0
      4537 MEMB     43       POPC     C2       CTL1     0.170000       12.0110           0
      4538 MEMB     43       POPC     HS       HAL1     0.900000E-01   1.00800           0
      4539 MEMB     43       POPC     O21      OSL     -0.490000       15.9994           0
      4540 MEMB     43       POPC     C21      CL       0.900000       12.0110           0
      4541 MEMB     43       POPC     O22      OBL     -0.630000       15.9994           0
      4542 MEMB     43       POPC     C22      CTL2    -0.220000       12.0110           0
      4543 MEMB     43       POPC     H2R      HAL2     0.900000E-01   1.00800           0
      4544 MEMB     43       POPC     H2S      HAL2     0.900000E-01   1.00800           0
      4545 MEMB     43       POPC     C3       CTL2     0.800000E-01   12.0110           0
      4546 MEMB     43       POPC     HX       HAL2     0.900000E-01   1.00800           0
      4547 MEMB     43       POPC     HY       HAL2     0.900000E-01   1.00800           0
      4548 MEMB     43       POPC     O31      OSL     -0.490000       15.9994           0
      4549 MEMB     43       POPC     C31      CL       0.900000       12.0110           0
      4550 MEMB     43       POPC     O32      OBL     -0.630000       15.9994           0
      4551 MEMB     43       POPC     C32      CTL2    -0.220000       12.0110           0
      4552 MEMB     43       POPC     H2X      HAL2     0.900000E-01   1.00800           0
      4553 MEMB     43       POPC     H2Y      HAL2     0.900000E-01   1.00800           0
      4554 MEMB     43       POPC     C23      CTL2    -0.180000       12.0110           0
      4555 MEMB     43       POPC     H3R      HAL2     0.900000E-01   1.00800           0
      4556 MEMB     43       POPC     H3S      HAL2     0.900000E-01   1.00800           0
      4557 MEMB     43       POPC     C24      CTL2    -0.180000       12.0110           0
      4558 MEMB     43       POPC     H4R      HAL2     0.900000E-01   1.00800           0
      4559 MEMB     43       POPC     H4S      HAL2     0.900000E-01   1.00800           0
      4560 MEMB     43       POPC     C25      CTL2    -0.180000       12.0110           0
      4561 MEMB     43       POPC     H5R      HAL2     0.900000E-01   1.00800           0
      4562 MEMB     43       POPC     H5S      HAL2     0.900000E-01   1.00800           0
      4563 MEMB     43       POPC     C26      CTL2    -0.180000       12.0110           0
      4564 MEMB     43       POPC     H6R      HAL2     0.900000E-01   1.00800           0
      4565 MEMB     43       POPC     H6S      HAL2     0.900000E-01   1.00800           0
      4566 MEMB     43       POPC     C27      CTL2    -0.180000       12.0110           0
      4567 MEMB     43       POPC     H7R      HAL2     0.900000E-01   1.00800           0
      4568 MEMB     43       POPC     H7S      HAL2     0.900000E-01   1.00800           0
      4569 MEMB     43       POPC     C28      CTL2    -0.180000       12.0110           0
      4570 MEMB     43       POPC     H8R      HAL2     0.900000E-01   1.00800           0
      4571 MEMB     43       POPC     H8S      HAL2     0.900000E-01   1.00800           0
      4572 MEMB     43       POPC     C29      CEL1    -0.150000       12.0110           0
      4573 MEMB     43       POPC     H91      HEL1     0.150000       1.00800           0
      4574 MEMB     43       POPC     C210     CEL1    -0.150000       12.0110           0
      4575 MEMB     43       POPC     H101     HEL1     0.150000       1.00800           0
      4576 MEMB     43       POPC     C211     CTL2    -0.180000       12.0110           0
      4577 MEMB     43       POPC     H11R     HAL2     0.900000E-01   1.00800           0
      4578 MEMB     43       POPC     H11S     HAL2     0.900000E-01   1.00800           0
      4579 MEMB     43       POPC     C212     CTL2    -0.180000       12.0110           0
      4580 MEMB     43       POPC     H12R     HAL2     0.900000E-01   1.00800           0
      4581 MEMB     43       POPC     H12S     HAL2     0.900000E-01   1.00800           0
      4582 MEMB     43       POPC     C213     CTL2    -0.180000       12.0110           0
      4583 MEMB     43       POPC     H13R     HAL2     0.900000E-01   1.00800           0
      4584 MEMB     43       POPC     H13S     HAL2     0.900000E-01   1.00800           0
      4585 MEMB     43       POPC     C214     CTL2    -0.180000       12.0110           0
      4586 MEMB     43       POPC     H14R     HAL2     0.900000E-01   1.00800           0
      4587 MEMB     43       POPC     H14S     HAL2     0.900000E-01   1.00800           0
      4588 MEMB     43       POPC     C215     CTL2    -0.180000       12.0110           0
      4589 MEMB     43       POPC     H15R     HAL2     0.900000E-01   1.00800           0
      4590 MEMB     43       POPC     H15S     HAL2     0.900000E-01   1.00800           0
      4591 MEMB     43       POPC     C216     CTL2    -0.180000       12.0110           0
      4592 MEMB     43       POPC     H16R     HAL2     0.900000E-01   1.00800           0
      4593 MEMB     43       POPC     H16S     HAL2     0.900000E-01   1.00800           0
      4594 MEMB     43       POPC     C217     CTL2    -0.180000       12.0110           0
      4595 MEMB     43       POPC     H17R     HAL2     0.900000E-01   1.00800           0
      4596 MEMB     43       POPC     H17S     HAL2     0.900000E-01   1.00800           0
      4597 MEMB     43       POPC     C218     CTL3    -0.270000       12.0110           0
      4598 MEMB     43       POPC     H18R     HAL3     0.900000E-01   1.00800           0
      4599 MEMB     43       POPC     H18S     HAL3     0.900000E-01   1.00800           0
      4600 MEMB     43       POPC     H18T     HAL3     0.900000E-01   1.00800           0
      4601 MEMB     43       POPC     C33      CTL2    -0.180000       12.0110           0
      4602 MEMB     43       POPC     H3X      HAL2     0.900000E-01   1.00800           0
      4603 MEMB     43       POPC     H3Y      HAL2     0.900000E-01   1.00800           0
      4604 MEMB     43       POPC     C34      CTL2    -0.180000       12.0110           0
      4605 MEMB     43       POPC     H4X      HAL2     0.900000E-01   1.00800           0
      4606 MEMB     43       POPC     H4Y      HAL2     0.900000E-01   1.00800           0
      4607 MEMB     43       POPC     C35      CTL2    -0.180000       12.0110           0
      4608 MEMB     43       POPC     H5X      HAL2     0.900000E-01   1.00800           0
      4609 MEMB     43       POPC     H5Y      HAL2     0.900000E-01   1.00800           0
      4610 MEMB     43       POPC     C36      CTL2    -0.180000       12.0110           0
      4611 MEMB     43       POPC     H6X      HAL2     0.900000E-01   1.00800           0
      4612 MEMB     43       POPC     H6Y      HAL2     0.900000E-01   1.00800           0
      4613 MEMB     43       POPC     C37      CTL2    -0.180000       12.0110           0
      4614 MEMB     43       POPC     H7X      HAL2     0.900000E-01   1.00800           0
      4615 MEMB     43       POPC     H7Y      HAL2     0.900000E-01   1.00800           0
      4616 MEMB     43       POPC     C38      CTL2    -0.180000       12.0110           0
      4617 MEMB     43       POPC     H8X      HAL2     0.900000E-01   1.00800           0
      4618 MEMB     43       POPC     H8Y      HAL2     0.900000E-01   1.00800           0
      4619 MEMB     43       POPC     C39      CTL2    -0.180000       12.0110           0
      4620 MEMB     43       POPC     H9X      HAL2     0.900000E-01   1.00800           0
      4621 MEMB     43       POPC     H9Y      HAL2     0.900000E-01   1.00800           0
      4622 MEMB     43       POPC     C310     CTL2    -0.180000       12.0110           0
      4623 MEMB     43       POPC     H10X     HAL2     0.900000E-01   1.00800           0
      4624 MEMB     43       POPC     H10Y     HAL2     0.900000E-01   1.00800           0
      4625 MEMB     43       POPC     C311     CTL2    -0.180000       12.0110           0
      4626 MEMB     43       POPC     H11X     HAL2     0.900000E-01   1.00800           0
      4627 MEMB     43       POPC     H11Y     HAL2     0.900000E-01   1.00800           0
      4628 MEMB     43       POPC     C312     CTL2    -0.180000       12.0110           0
      4629 MEMB     43       POPC     H12X     HAL2     0.900000E-01   1.00800           0
      4630 MEMB     43       POPC     H12Y     HAL2     0.900000E-01   1.00800           0
      4631 MEMB     43       POPC     C313     CTL2    -0.180000       12.0110           0
      4632 MEMB     43       POPC     H13X     HAL2     0.900000E-01   1.00800           0
      4633 MEMB     43       POPC     H13Y     HAL2     0.900000E-01   1.00800           0
      4634 MEMB     43       POPC     C314     CTL2    -0.180000       12.0110           0
      4635 MEMB     43       POPC     H14X     HAL2     0.900000E-01   1.00800           0
      4636 MEMB     43       POPC     H14Y     HAL2     0.900000E-01   1.00800           0
      4637 MEMB     43       POPC     C315     CTL2    -0.180000       12.0110           0
      4638 MEMB     43       POPC     H15X     HAL2     0.900000E-01   1.00800           0
      4639 MEMB     43       POPC     H15Y     HAL2     0.900000E-01   1.00800           0
      4640 MEMB     43       POPC     C316     CTL3    -0.270000       12.0110           0
      4641 MEMB     43       POPC     H16X     HAL3     0.900000E-01   1.00800           0
      4642 MEMB     43       POPC     H16Y     HAL3     0.900000E-01   1.00800           0
      4643 MEMB     43       POPC     H16Z     HAL3     0.900000E-01   1.00800           0
      4644 MEMB     44       POPE     N        NH3L    -0.300000       14.0070           0
      4645 MEMB     44       POPE     HN1      HCL      0.330000       1.00800           0
      4646 MEMB     44       POPE     HN2      HCL      0.330000       1.00800           0
      4647 MEMB     44       POPE     HN3      HCL      0.330000       1.00800           0
      4648 MEMB     44       POPE     C12      CTL2     0.130000       12.0110           0
      4649 MEMB     44       POPE     H12A     HAL2     0.900000E-01   1.00800           0
      4650 MEMB     44       POPE     H12B     HAL2     0.900000E-01   1.00800           0
      4651 MEMB     44       POPE     C11      CTL2    -0.800000E-01   12.0110           0
      4652 MEMB     44       POPE     H11A     HAL2     0.900000E-01   1.00800           0
      4653 MEMB     44       POPE     H11B     HAL2     0.900000E-01   1.00800           0
      4654 MEMB     44       POPE     P        PL       1.500000       30.9740           0
      4655 MEMB     44       POPE     O13      O2L     -0.780000       15.9994           0
      4656 MEMB     44       POPE     O14      O2L     -0.780000       15.9994           0
      4657 MEMB     44       POPE     O11      OSLP    -0.570000       15.9994           0
      4658 MEMB     44       POPE     O12      OSLP    -0.570000       15.9994           0
      4659 MEMB     44       POPE     C1       CTL2    -0.800000E-01   12.0110           0
      4660 MEMB     44       POPE     HA       HAL2     0.900000E-01   1.00800           0
      4661 MEMB     44       POPE     HB       HAL2     0.900000E-01   1.00800           0
      4662 MEMB     44       POPE     C2       CTL1     0.170000       12.0110           0
      4663 MEMB     44       POPE     HS       HAL1     0.900000E-01   1.00800           0
      4664 MEMB     44       POPE     O21      OSL     -0.490000       15.9994           0
      4665 MEMB     44       POPE     C21      CL       0.900000       12.0110           0
      4666 MEMB     44       POPE     O22      OBL     -0.630000       15.9994           0
      4667 MEMB     44       POPE     C22      CTL2    -0.220000       12.0110           0
      4668 MEMB     44       POPE     H2R      HAL2     0.900000E-01   1.00800           0
      4669 MEMB     44       POPE     H2S      HAL2     0.900000E-01   1.00800           0
      4670 MEMB     44       POPE     C3       CTL2     0.800000E-01   12.0110           0
      4671 MEMB     44       POPE     HX       HAL2     0.900000E-01   1.00800           0
      4672 MEMB     44       POPE     HY       HAL2     0.900000E-01   1.00800           0
      4673 MEMB     44       POPE     O31      OSL     -0.490000       15.9994           0
      4674 MEMB     44       POPE     C31      CL       0.900000       12.0110           0
      4675 MEMB     44       POPE     O32      OBL     -0.630000       15.9994           0
      4676 MEMB     44       POPE     C32      CTL2    -0.220000       12.0110           0
      4677 MEMB     44       POPE     H2X      HAL2     0.900000E-01   1.00800           0
      4678 MEMB     44       POPE     H2Y      HAL2     0.900000E-01   1.00800           0
      4679 MEMB     44       POPE     C23      CTL2    -0.180000       12.0110           0
      4680 MEMB     44       POPE     H3R      HAL2     0.900000E-01   1.00800           0
      4681 MEMB     44       POPE     H3S      HAL2     0.900000E-01   1.00800           0
      4682 MEMB     44       POPE     C24      CTL2    -0.180000       12.0110           0
      4683 MEMB     44       POPE     H4R      HAL2     0.900000E-01   1.00800           0
      4684 MEMB     44       POPE     H4S      HAL2     0.900000E-01   1.00800           0
      4685 MEMB     44       POPE     C25      CTL2    -0.180000       12.0110           0
      4686 MEMB     44       POPE     H5R      HAL2     0.900000E-01   1.00800           0
      4687 MEMB     44       POPE     H5S      HAL2     0.900000E-01   1.00800           0
      4688 MEMB     44       POPE     C26      CTL2    -0.180000       12.0110           0
      4689 MEMB     44       POPE     H6R      HAL2     0.900000E-01   1.00800           0
      4690 MEMB     44       POPE     H6S      HAL2     0.900000E-01   1.00800           0
      4691 MEMB     44       POPE     C27      CTL2    -0.180000       12.0110           0
      4692 MEMB     44       POPE     H7R      HAL2     0.900000E-01   1.00800           0
      4693 MEMB     44       POPE     H7S      HAL2     0.900000E-01   1.00800           0
      4694 MEMB     44       POPE     C28      CTL2    -0.180000       12.0110           0
      4695 MEMB     44       POPE     H8R      HAL2     0.900000E-01   1.00800           0
      4696 MEMB     44       POPE     H8S      HAL2     0.900000E-01   1.00800           0
      4697 MEMB     44       POPE     C29      CEL1    -0.150000       12.0110           0
      4698 MEMB     44       POPE     H91      HEL1     0.150000       1.00800           0
      4699 MEMB     44       POPE     C210     CEL1    -0.150000       12.0110           0
      4700 MEMB     44       POPE     H101     HEL1     0.150000       1.00800           0
      4701 MEMB     44       POPE     C211     CTL2    -0.180000       12.0110           0
      4702 MEMB     44       POPE     H11R     HAL2     0.900000E-01   1.00800           0
      4703 MEMB     44       POPE     H11S     HAL2     0.900000E-01   1.00800           0
      4704 MEMB     44       POPE     C212     CTL2    -0.180000       12.0110           0
      4705 MEMB     44       POPE     H12R     HAL2     0.900000E-01   1.00800           0
      4706 MEMB     44       POPE     H12S     HAL2     0.900000E-01   1.00800           0
      4707 MEMB     44       POPE     C213     CTL2    -0.180000       12.0110           0
      4708 MEMB     44       POPE     H13R     HAL2     0.900000E-01   1.00800           0
      4709 MEMB     44       POPE     H13S     HAL2     0.900000E-01   1.00800           0
      4710 MEMB     44       POPE     C214     CTL2    -0.180000       12.0110           0
      4711 MEMB     44       POPE     H14R     HAL2     0.900000E-01   1.00800           0
      4712 MEMB     44       POPE     H14S     HAL2     0.900000E-01   1.00800           0
      4713 MEMB     44       POPE     C215     CTL2    -0.180000       12.0110           0
      4714 MEMB     44       POPE     H15R     HAL2     0.900000E-01   1.00800           0
      4715 MEMB     44       POPE     H15S     HAL2     0.900000E-01   1.00800           0
      4716 MEMB     44       POPE     C216     CTL2    -0.180000       12.0110           0
      4717 MEMB     44       POPE     H16R     HAL2     0.900000E-01   1.00800           0
      4718 MEMB     44       POPE     H16S     HAL2     0.900000E-01   1.00800           0
      4719 MEMB     44       POPE     C217     CTL2    -0.180000       12.0110           0
      4720 MEMB     44       POPE     H17R     HAL2     0.900000E-01   1.00800           0
      4721 MEMB     44       POPE     H17S     HAL2     0.900000E-01   1.00800           0
      4722 MEMB     44       POPE     C218     CTL3    -0.270000       12.0110           0
      4723 MEMB     44       POPE     H18R     HAL3     0.900000E-01   1.00800           0
      4724 MEMB     44       POPE     H18S     HAL3     0.900000E-01   1.00800           0
      4725 MEMB     44       POPE     H18T     HAL3     0.900000E-01   1.00800           0
      4726 MEMB     44       POPE     C33      CTL2    -0.180000       12.0110           0
      4727 MEMB     44       POPE     H3X      HAL2     0.900000E-01   1.00800           0
      4728 MEMB     44       POPE     H3Y      HAL2     0.900000E-01   1.00800           0
      4729 MEMB     44       POPE     C34      CTL2    -0.180000       12.0110           0
      4730 MEMB     44       POPE     H4X      HAL2     0.900000E-01   1.00800           0
      4731 MEMB     44       POPE     H4Y      HAL2     0.900000E-01   1.00800           0
      4732 MEMB     44       POPE     C35      CTL2    -0.180000       12.0110           0
      4733 MEMB     44       POPE     H5X      HAL2     0.900000E-01   1.00800           0
      4734 MEMB     44       POPE     H5Y      HAL2     0.900000E-01   1.00800           0
      4735 MEMB     44       POPE     C36      CTL2    -0.180000       12.0110           0
      4736 MEMB     44       POPE     H6X      HAL2     0.900000E-01   1.00800           0
      4737 MEMB     44       POPE     H6Y      HAL2     0.900000E-01   1.00800           0
      4738 MEMB     44       POPE     C37      CTL2    -0.180000       12.0110           0
      4739 MEMB     44       POPE     H7X      HAL2     0.900000E-01   1.00800           0
      4740 MEMB     44       POPE     H7Y      HAL2     0.900000E-01   1.00800           0
      4741 MEMB     44       POPE     C38      CTL2    -0.180000       12.0110           0
      4742 MEMB     44       POPE     H8X      HAL2     0.900000E-01   1.00800           0
      4743 MEMB     44       POPE     H8Y      HAL2     0.900000E-01   1.00800           0
      4744 MEMB     44       POPE     C39      CTL2    -0.180000       12.0110           0
      4745 MEMB     44       POPE     H9X      HAL2     0.900000E-01   1.00800           0
      4746 MEMB     44       POPE     H9Y      HAL2     0.900000E-01   1.00800           0
      4747 MEMB     44       POPE     C310     CTL2    -0.180000       12.0110           0
      4748 MEMB     44       POPE     H10X     HAL2     0.900000E-01   1.00800           0
      4749 MEMB     44       POPE     H10Y     HAL2     0.900000E-01   1.00800           0
      4750 MEMB     44       POPE     C311     CTL2    -0.180000       12.0110           0
      4751 MEMB     44       POPE     H11X     HAL2     0.900000E-01   1.00800           0
      4752 MEMB     44       POPE     H11Y     HAL2     0.900000E-01   1.00800           0
      4753 MEMB     44       POPE     C312     CTL2    -0.180000       12.0110           0
      4754 MEMB     44       POPE     H12X     HAL2     0.900000E-01   1.00800           0
      4755 MEMB     44       POPE     H12Y     HAL2     0.900000E-01   1.00800           0
      4756 MEMB     44       POPE     C313     CTL2    -0.180000       12.0110           0
      4757 MEMB     44       POPE     H13X     HAL2     0.900000E-01   1.00800           0
      4758 MEMB     44       POPE     H13Y     HAL2     0.900000E-01   1.00800           0
      4759 MEMB     44       POPE     C314     CTL2    -0.180000       12.0110           0
      4760 MEMB     44       POPE     H14X     HAL2     0.900000E-01   1.00800           0
      4761 MEMB     44       POPE     H14Y     HAL2     0.900000E-01   1.00800           0
      4762 MEMB     44       POPE     C315     CTL2    -0.180000       12.0110           0
      4763 MEMB     44       POPE     H15X     HAL2     0.900000E-01   1.00800           0
      4764 MEMB     44       POPE     H15Y     HAL2     0.900000E-01   1.00800           0
      4765 MEMB     44       POPE     C316     CTL3    -0.270000       12.0110           0
      4766 MEMB     44       POPE     H16X     HAL3     0.900000E-01   1.00800           0
      4767 MEMB     44       POPE     H16Y     HAL3     0.900000E-01   1.00800           0
      4768 MEMB     44       POPE     H16Z     HAL3     0.900000E-01   1.00800           0
      4769 MEMB     45       POPC     N        NTL     -0.600000       14.0070           0
      4770 MEMB     45       POPC     C12      CTL2    -0.100000       12.0110           0
      4771 MEMB     45       POPC     H12A     HL       0.250000       1.00800           0
      4772 MEMB     45       POPC     H12B     HL       0.250000       1.00800           0
      4773 MEMB     45       POPC     C13      CTL5    -0.350000       12.0110           0
      4774 MEMB     45       POPC     H13A     HL       0.250000       1.00800           0
      4775 MEMB     45       POPC     H13B     HL       0.250000       1.00800           0
      4776 MEMB     45       POPC     H13C     HL       0.250000       1.00800           0
      4777 MEMB     45       POPC     C14      CTL5    -0.350000       12.0110           0
      4778 MEMB     45       POPC     H14A     HL       0.250000       1.00800           0
      4779 MEMB     45       POPC     H14B     HL       0.250000       1.00800           0
      4780 MEMB     45       POPC     H14C     HL       0.250000       1.00800           0
      4781 MEMB     45       POPC     C15      CTL5    -0.350000       12.0110           0
      4782 MEMB     45       POPC     H15A     HL       0.250000       1.00800           0
      4783 MEMB     45       POPC     H15B     HL       0.250000       1.00800           0
      4784 MEMB     45       POPC     H15C     HL       0.250000       1.00800           0
      4785 MEMB     45       POPC     C11      CTL2    -0.800000E-01   12.0110           0
      4786 MEMB     45       POPC     H11A     HAL2     0.900000E-01   1.00800           0
      4787 MEMB     45       POPC     H11B     HAL2     0.900000E-01   1.00800           0
      4788 MEMB     45       POPC     P        PL       1.500000       30.9740           0
      4789 MEMB     45       POPC     O13      O2L     -0.780000       15.9994           0
      4790 MEMB     45       POPC     O14      O2L     -0.780000       15.9994           0
      4791 MEMB     45       POPC     O12      OSLP    -0.570000       15.9994           0
      4792 MEMB     45       POPC     O11      OSLP    -0.570000       15.9994           0
      4793 MEMB     45       POPC     C1       CTL2    -0.800000E-01   12.0110           0
      4794 MEMB     45       POPC     HA       HAL2     0.900000E-01   1.00800           0
      4795 MEMB     45       POPC     HB       HAL2     0.900000E-01   1.00800           0
      4796 MEMB     45       POPC     C2       CTL1     0.170000       12.0110           0
      4797 MEMB     45       POPC     HS       HAL1     0.900000E-01   1.00800           0
      4798 MEMB     45       POPC     O21      OSL     -0.490000       15.9994           0
      4799 MEMB     45       POPC     C21      CL       0.900000       12.0110           0
      4800 MEMB     45       POPC     O22      OBL     -0.630000       15.9994           0
      4801 MEMB     45       POPC     C22      CTL2    -0.220000       12.0110           0
      4802 MEMB     45       POPC     H2R      HAL2     0.900000E-01   1.00800           0
      4803 MEMB     45       POPC     H2S      HAL2     0.900000E-01   1.00800           0
      4804 MEMB     45       POPC     C3       CTL2     0.800000E-01   12.0110           0
      4805 MEMB     45       POPC     HX       HAL2     0.900000E-01   1.00800           0
      4806 MEMB     45       POPC     HY       HAL2     0.900000E-01   1.00800           0
      4807 MEMB     45       POPC     O31      OSL     -0.490000       15.9994           0
      4808 MEMB     45       POPC     C31      CL       0.900000       12.0110           0
      4809 MEMB     45       POPC     O32      OBL     -0.630000       15.9994           0
      4810 MEMB     45       POPC     C32      CTL2    -0.220000       12.0110           0
      4811 MEMB     45       POPC     H2X      HAL2     0.900000E-01   1.00800           0
      4812 MEMB     45       POPC     H2Y      HAL2     0.900000E-01   1.00800           0
      4813 MEMB     45       POPC     C23      CTL2    -0.180000       12.0110           0
      4814 MEMB     45       POPC     H3R      HAL2     0.900000E-01   1.00800           0
      4815 MEMB     45       POPC     H3S      HAL2     0.900000E-01   1.00800           0
      4816 MEMB     45       POPC     C24      CTL2    -0.180000       12.0110           0
      4817 MEMB     45       POPC     H4R      HAL2     0.900000E-01   1.00800           0
      4818 MEMB     45       POPC     H4S      HAL2     0.900000E-01   1.00800           0
      4819 MEMB     45       POPC     C25      CTL2    -0.180000       12.0110           0
      4820 MEMB     45       POPC     H5R      HAL2     0.900000E-01   1.00800           0
      4821 MEMB     45       POPC     H5S      HAL2     0.900000E-01   1.00800           0
      4822 MEMB     45       POPC     C26      CTL2    -0.180000       12.0110           0
      4823 MEMB     45       POPC     H6R      HAL2     0.900000E-01   1.00800           0
      4824 MEMB     45       POPC     H6S      HAL2     0.900000E-01   1.00800           0
      4825 MEMB     45       POPC     C27      CTL2    -0.180000       12.0110           0
      4826 MEMB     45       POPC     H7R      HAL2     0.900000E-01   1.00800           0
      4827 MEMB     45       POPC     H7S      HAL2     0.900000E-01   1.00800           0
      4828 MEMB     45       POPC     C28      CTL2    -0.180000       12.0110           0
      4829 MEMB     45       POPC     H8R      HAL2     0.900000E-01   1.00800           0
      4830 MEMB     45       POPC     H8S      HAL2     0.900000E-01   1.00800           0
      4831 MEMB     45       POPC     C29      CEL1    -0.150000       12.0110           0
      4832 MEMB     45       POPC     H91      HEL1     0.150000       1.00800           0
      4833 MEMB     45       POPC     C210     CEL1    -0.150000       12.0110           0
      4834 MEMB     45       POPC     H101     HEL1     0.150000       1.00800           0
      4835 MEMB     45       POPC     C211     CTL2    -0.180000       12.0110           0
      4836 MEMB     45       POPC     H11R     HAL2     0.900000E-01   1.00800           0
      4837 MEMB     45       POPC     H11S     HAL2     0.900000E-01   1.00800           0
      4838 MEMB     45       POPC     C212     CTL2    -0.180000       12.0110           0
      4839 MEMB     45       POPC     H12R     HAL2     0.900000E-01   1.00800           0
      4840 MEMB     45       POPC     H12S     HAL2     0.900000E-01   1.00800           0
      4841 MEMB     45       POPC     C213     CTL2    -0.180000       12.0110           0
      4842 MEMB     45       POPC     H13R     HAL2     0.900000E-01   1.00800           0
      4843 MEMB     45       POPC     H13S     HAL2     0.900000E-01   1.00800           0
      4844 MEMB     45       POPC     C214     CTL2    -0.180000       12.0110           0
      4845 MEMB     45       POPC     H14R     HAL2     0.900000E-01   1.00800           0
      4846 MEMB     45       POPC     H14S     HAL2     0.900000E-01   1.00800           0
      4847 MEMB     45       POPC     C215     CTL2    -0.180000       12.0110           0
      4848 MEMB     45       POPC     H15R     HAL2     0.900000E-01   1.00800           0
      4849 MEMB     45       POPC     H15S     HAL2     0.900000E-01   1.00800           0
      4850 MEMB     45       POPC     C216     CTL2    -0.180000       12.0110           0
      4851 MEMB     45       POPC     H16R     HAL2     0.900000E-01   1.00800           0
      4852 MEMB     45       POPC     H16S     HAL2     0.900000E-01   1.00800           0
      4853 MEMB     45       POPC     C217     CTL2    -0.180000       12.0110           0
      4854 MEMB     45       POPC     H17R     HAL2     0.900000E-01   1.00800           0
      4855 MEMB     45       POPC     H17S     HAL2     0.900000E-01   1.00800           0
      4856 MEMB     45       POPC     C218     CTL3    -0.270000       12.0110           0
      4857 MEMB     45       POPC     H18R     HAL3     0.900000E-01   1.00800           0
      4858 MEMB     45       POPC     H18S     HAL3     0.900000E-01   1.00800           0
      4859 MEMB     45       POPC     H18T     HAL3     0.900000E-01   1.00800           0
      4860 MEMB     45       POPC     C33      CTL2    -0.180000       12.0110           0
      4861 MEMB     45       POPC     H3X      HAL2     0.900000E-01   1.00800           0
      4862 MEMB     45       POPC     H3Y      HAL2     0.900000E-01   1.00800           0
      4863 MEMB     45       POPC     C34      CTL2    -0.180000       12.0110           0
      4864 MEMB     45       POPC     H4X      HAL2     0.900000E-01   1.00800           0
      4865 MEMB     45       POPC     H4Y      HAL2     0.900000E-01   1.00800           0
      4866 MEMB     45       POPC     C35      CTL2    -0.180000       12.0110           0
      4867 MEMB     45       POPC     H5X      HAL2     0.900000E-01   1.00800           0
      4868 MEMB     45       POPC     H5Y      HAL2     0.900000E-01   1.00800           0
      4869 MEMB     45       POPC     C36      CTL2    -0.180000       12.0110           0
      4870 MEMB     45       POPC     H6X      HAL2     0.900000E-01   1.00800           0
      4871 MEMB     45       POPC     H6Y      HAL2     0.900000E-01   1.00800           0
      4872 MEMB     45       POPC     C37      CTL2    -0.180000       12.0110           0
      4873 MEMB     45       POPC     H7X      HAL2     0.900000E-01   1.00800           0
      4874 MEMB     45       POPC     H7Y      HAL2     0.900000E-01   1.00800           0
      4875 MEMB     45       POPC     C38      CTL2    -0.180000       12.0110           0
      4876 MEMB     45       POPC     H8X      HAL2     0.900000E-01   1.00800           0
      4877 MEMB     45       POPC     H8Y      HAL2     0.900000E-01   1.00800           0
      4878 MEMB     45       POPC     C39      CTL2    -0.180000       12.0110           0
      4879 MEMB     45       POPC     H9X      HAL2     0.900000E-01   1.00800           0
      4880 MEMB     45       POPC     H9Y      HAL2     0.900000E-01   1.00800           0
      4881 MEMB     45       POPC     C310     CTL2    -0.180000       12.0110           0
      4882 MEMB     45       POPC     H10X     HAL2     0.900000E-01   1.00800           0
      4883 MEMB     45       POPC     H10Y     HAL2     0.900000E-01   1.00800           0
      4884 MEMB     45       POPC     C311     CTL2    -0.180000       12.0110           0
      4885 MEMB     45       POPC     H11X     HAL2     0.900000E-01   1.00800           0
      4886 MEMB     45       POPC     H11Y     HAL2     0.900000E-01   1.00800           0
      4887 MEMB     45       POPC     C312     CTL2    -0.180000       12.0110           0
      4888 MEMB     45       POPC     H12X     HAL2     0.900000E-01   1.00800           0
      4889 MEMB     45       POPC     H12Y     HAL2     0.900000E-01   1.00800           0
      4890 MEMB     45       POPC     C313     CTL2    -0.180000       12.0110           0
      4891 MEMB     45       POPC     H13X     HAL2     0.900000E-01   1.00800           0
      4892 MEMB     45       POPC     H13Y     HAL2     0.900000E-01   1.00800           0
      4893 MEMB     45       POPC     C314     CTL2    -0.180000       12.0110           0
      4894 MEMB     45       POPC     H14X     HAL2     0.900000E-01   1.00800           0
      4895 MEMB     45       POPC     H14Y     HAL2     0.900000E-01   1.00800           0
      4896 MEMB     45       POPC     C315     CTL2    -0.180000       12.0110           0
      4897 MEMB     45       POPC     H15X     HAL2     0.900000E-01   1.00800           0
      4898 MEMB     45       POPC     H15Y     HAL2     0.900000E-01   1.00800           0
      4899 MEMB     45       POPC     C316     CTL3    -0.270000       12.0110           0
      4900 MEMB     45       POPC     H16X     HAL3     0.900000E-01   1.00800           0
      4901 MEMB     45       POPC     H16Y     HAL3     0.900000E-01   1.00800           0
      4902 MEMB     45       POPC     H16Z     HAL3     0.900000E-01   1.00800           0
      4903 MEMB     46       POPE     N        NH3L    -0.300000       14.0070           0
      4904 MEMB     46       POPE     HN1      HCL      0.330000       1.00800           0
      4905 MEMB     46       POPE     HN2      HCL      0.330000       1.00800           0
      4906 MEMB     46       POPE     HN3      HCL      0.330000       1.00800           0
      4907 MEMB     46       POPE     C12      CTL2     0.130000       12.0110           0
      4908 MEMB     46       POPE     H12A     HAL2     0.900000E-01   1.00800           0
      4909 MEMB     46       POPE     H12B     HAL2     0.900000E-01   1.00800           0
      4910 MEMB     46       POPE     C11      CTL2    -0.800000E-01   12.0110           0
      4911 MEMB     46       POPE     H11A     HAL2     0.900000E-01   1.00800           0
      4912 MEMB     46       POPE     H11B     HAL2     0.900000E-01   1.00800           0
      4913 MEMB     46       POPE     P        PL       1.500000       30.9740           0
      4914 MEMB     46       POPE     O13      O2L     -0.780000       15.9994           0
      4915 MEMB     46       POPE     O14      O2L     -0.780000       15.9994           0
      4916 MEMB     46       POPE     O11      OSLP    -0.570000       15.9994           0
      4917 MEMB     46       POPE     O12      OSLP    -0.570000       15.9994           0
      4918 MEMB     46       POPE     C1       CTL2    -0.800000E-01   12.0110           0
      4919 MEMB     46       POPE     HA       HAL2     0.900000E-01   1.00800           0
      4920 MEMB     46       POPE     HB       HAL2     0.900000E-01   1.00800           0
      4921 MEMB     46       POPE     C2       CTL1     0.170000       12.0110           0
      4922 MEMB     46       POPE     HS       HAL1     0.900000E-01   1.00800           0
      4923 MEMB     46       POPE     O21      OSL     -0.490000       15.9994           0
      4924 MEMB     46       POPE     C21      CL       0.900000       12.0110           0
      4925 MEMB     46       POPE     O22      OBL     -0.630000       15.9994           0
      4926 MEMB     46       POPE     C22      CTL2    -0.220000       12.0110           0
      4927 MEMB     46       POPE     H2R      HAL2     0.900000E-01   1.00800           0
      4928 MEMB     46       POPE     H2S      HAL2     0.900000E-01   1.00800           0
      4929 MEMB     46       POPE     C3       CTL2     0.800000E-01   12.0110           0
      4930 MEMB     46       POPE     HX       HAL2     0.900000E-01   1.00800           0
      4931 MEMB     46       POPE     HY       HAL2     0.900000E-01   1.00800           0
      4932 MEMB     46       POPE     O31      OSL     -0.490000       15.9994           0
      4933 MEMB     46       POPE     C31      CL       0.900000       12.0110           0
      4934 MEMB     46       POPE     O32      OBL     -0.630000       15.9994           0
      4935 MEMB     46       POPE     C32      CTL2    -0.220000       12.0110           0
      4936 MEMB     46       POPE     H2X      HAL2     0.900000E-01   1.00800           0
      4937 MEMB     46       POPE     H2Y      HAL2     0.900000E-01   1.00800           0
      4938 MEMB     46       POPE     C23      CTL2    -0.180000       12.0110           0
      4939 MEMB     46       POPE     H3R      HAL2     0.900000E-01   1.00800           0
      4940 MEMB     46       POPE     H3S      HAL2     0.900000E-01   1.00800           0
      4941 MEMB     46       POPE     C24      CTL2    -0.180000       12.0110           0
      4942 MEMB     46       POPE     H4R      HAL2     0.900000E-01   1.00800           0
      4943 MEMB     46       POPE     H4S      HAL2     0.900000E-01   1.00800           0
      4944 MEMB     46       POPE     C25      CTL2    -0.180000       12.0110           0
      4945 MEMB     46       POPE     H5R      HAL2     0.900000E-01   1.00800           0
      4946 MEMB     46       POPE     H5S      HAL2     0.900000E-01   1.00800           0
      4947 MEMB     46       POPE     C26      CTL2    -0.180000       12.0110           0
      4948 MEMB     46       POPE     H6R      HAL2     0.900000E-01   1.00800           0
      4949 MEMB     46       POPE     H6S      HAL2     0.900000E-01   1.00800           0
      4950 MEMB     46       POPE     C27      CTL2    -0.180000       12.0110           0
      4951 MEMB     46       POPE     H7R      HAL2     0.900000E-01   1.00800           0
      4952 MEMB     46       POPE     H7S      HAL2     0.900000E-01   1.00800           0
      4953 MEMB     46       POPE     C28      CTL2    -0.180000       12.0110           0
      4954 MEMB     46       POPE     H8R      HAL2     0.900000E-01   1.00800           0
      4955 MEMB     46       POPE     H8S      HAL2     0.900000E-01   1.00800           0
      4956 MEMB     46       POPE     C29      CEL1    -0.150000       12.0110           0
      4957 MEMB     46       POPE     H91      HEL1     0.150000       1.00800           0
      4958 MEMB     46       POPE     C210     CEL1    -0.150000       12.0110           0
      4959 MEMB     46       POPE     H101     HEL1     0.150000       1.00800           0
      4960 MEMB     46       POPE     C211     CTL2    -0.180000       12.0110           0
      4961 MEMB     46       POPE     H11R     HAL2     0.900000E-01   1.00800           0
      4962 MEMB     46       POPE     H11S     HAL2     0.900000E-01   1.00800           0
      4963 MEMB     46       POPE     C212     CTL2    -0.180000       12.0110           0
      4964 MEMB     46       POPE     H12R     HAL2     0.900000E-01   1.00800           0
      4965 MEMB     46       POPE     H12S     HAL2     0.900000E-01   1.00800           0
      4966 MEMB     46       POPE     C213     CTL2    -0.180000       12.0110           0
      4967 MEMB     46       POPE     H13R     HAL2     0.900000E-01   1.00800           0
      4968 MEMB     46       POPE     H13S     HAL2     0.900000E-01   1.00800           0
      4969 MEMB     46       POPE     C214     CTL2    -0.180000       12.0110           0
      4970 MEMB     46       POPE     H14R     HAL2     0.900000E-01   1.00800           0
      4971 MEMB     46       POPE     H14S     HAL2     0.900000E-01   1.00800           0
      4972 MEMB     46       POPE     C215     CTL2    -0.180000       12.0110           0
      4973 MEMB     46       POPE     H15R     HAL2     0.900000E-01   1.00800           0
      4974 MEMB     46       POPE     H15S     HAL2     0.900000E-01   1.00800           0
      4975 MEMB     46       POPE     C216     CTL2    -0.180000       12.0110           0
      4976 MEMB     46       POPE     H16R     HAL2     0.900000E-01   1.00800           0
      4977 MEMB     46       POPE     H16S     HAL2     0.900000E-01   1.00800           0
      4978 MEMB     46       POPE     C217     CTL2    -0.180000       12.0110           0
      4979 MEMB     46       POPE     H17R     HAL2     0.900000E-01   1.00800           0
      4980 MEMB     46       POPE     H17S     HAL2     0.900000E-01   1.00800           0
      4981 MEMB     46       POPE     C218     CTL3    -0.270000       12.0110           0
      4982 MEMB     46       POPE     H18R     HAL3     0.900000E-01   1.00800           0
      4983 MEMB     46       POPE     H18S     HAL3     0.900000E-01   1.00800           0
      4984 MEMB     46       POPE     H18T     HAL3     0.900000E-01   1.00800           0
      4985 MEMB     46       POPE     C33      CTL2    -0.180000       12.0110           0
      4986 MEMB     46       POPE     H3X      HAL2     0.900000E-01   1.00800           0
      4987 MEMB     46       POPE     H3Y      HAL2     0.900000E-01   1.00800           0
      4988 MEMB     46       POPE     C34      CTL2    -0.180000       12.0110           0
      4989 MEMB     46       POPE     H4X      HAL2     0.900000E-01   1.00800           0
      4990 MEMB     46       POPE     H4Y      HAL2     0.900000E-01   1.00800           0
      4991 MEMB     46       POPE     C35      CTL2    -0.180000       12.0110           0
      4992 MEMB     46       POPE     H5X      HAL2     0.900000E-01   1.00800           0
      4993 MEMB     46       POPE     H5Y      HAL2     0.900000E-01   1.00800           0
      4994 MEMB     46       POPE     C36      CTL2    -0.180000       12.0110           0
      4995 MEMB     46       POPE     H6X      HAL2     0.900000E-01   1.00800           0
      4996 MEMB     46       POPE     H6Y      HAL2     0.900000E-01   1.00800           0
      4997 MEMB     46       POPE     C37      CTL2    -0.180000       12.0110           0
      4998 MEMB     46       POPE     H7X      HAL2     0.900000E-01   1.00800           0
      4999 MEMB     46       POPE     H7Y      HAL2     0.900000E-01   1.00800           0
      5000 MEMB     46       POPE     C38      CTL2    -0.180000       12.0110           0
      5001 MEMB     46       POPE     H8X      HAL2     0.900000E-01   1.00800           0
      5002 MEMB     46       POPE     H8Y      HAL2     0.900000E-01   1.00800           0
      5003 MEMB     46       POPE     C39      CTL2    -0.180000       12.0110           0
      5004 MEMB     46       POPE     H9X      HAL2     0.900000E-01   1.00800           0
      5005 MEMB     46       POPE     H9Y      HAL2     0.900000E-01   1.00800           0
      5006 MEMB     46       POPE     C310     CTL2    -0.180000       12.0110           0
      5007 MEMB     46       POPE     H10X     HAL2     0.900000E-01   1.00800           0
      5008 MEMB     46       POPE     H10Y     HAL2     0.900000E-01   1.00800           0
      5009 MEMB     46       POPE     C311     CTL2    -0.180000       12.0110           0
      5010 MEMB     46       POPE     H11X     HAL2     0.900000E-01   1.00800           0
      5011 MEMB     46       POPE     H11Y     HAL2     0.900000E-01   1.00800           0
      5012 MEMB     46       POPE     C312     CTL2    -0.180000       12.0110           0
      5013 MEMB     46       POPE     H12X     HAL2     0.900000E-01   1.00800           0
      5014 MEMB     46       POPE     H12Y     HAL2     0.900000E-01   1.00800           0
      5015 MEMB     46       POPE     C313     CTL2    -0.180000       12.0110           0
      5016 MEMB     46       POPE     H13X     HAL2     0.900000E-01   1.00800           0
      5017 MEMB     46       POPE     H13Y     HAL2     0.900000E-01   1.00800           0
      5018 MEMB     46       POPE     C314     CTL2    -0.180000       12.0110           0
      5019 MEMB     46       POPE     H14X     HAL2     0.900000E-01   1.00800           0
      5020 MEMB     46       POPE     H14Y     HAL2     0.900000E-01   1.00800           0
      5021 MEMB     46       POPE     C315     CTL2    -0.180000       12.0110           0
      5022 MEMB     46       POPE     H15X     HAL2     0.900000E-01   1.00800           0
      5023 MEMB     46       POPE     H15Y     HAL2     0.900000E-01   1.00800           0
      5024 MEMB     46       POPE     C316     CTL3    -0.270000       12.0110           0
      5025 MEMB     46       POPE     H16X     HAL3     0.900000E-01   1.00800           0
      5026 MEMB     46       POPE     H16Y     HAL3     0.900000E-01   1.00800           0
      5027 MEMB     46       POPE     H16Z     HAL3     0.900000E-01   1.00800           0
      5028 MEMB     47       POPE     N        NH3L    -0.300000       14.0070           0
      5029 MEMB     47       POPE     HN1      HCL      0.330000       1.00800           0
      5030 MEMB     47       POPE     HN2      HCL      0.330000       1.00800           0
      5031 MEMB     47       POPE     HN3      HCL      0.330000       1.00800           0
      5032 MEMB     47       POPE     C12      CTL2     0.130000       12.0110           0
      5033 MEMB     47       POPE     H12A     HAL2     0.900000E-01   1.00800           0
      5034 MEMB     47       POPE     H12B     HAL2     0.900000E-01   1.00800           0
      5035 MEMB     47       POPE     C11      CTL2    -0.800000E-01   12.0110           0
      5036 MEMB     47       POPE     H11A     HAL2     0.900000E-01   1.00800           0
      5037 MEMB     47       POPE     H11B     HAL2     0.900000E-01   1.00800           0
      5038 MEMB     47       POPE     P        PL       1.500000       30.9740           0
      5039 MEMB     47       POPE     O13      O2L     -0.780000       15.9994           0
      5040 MEMB     47       POPE     O14      O2L     -0.780000       15.9994           0
      5041 MEMB     47       POPE     O11      OSLP    -0.570000       15.9994           0
      5042 MEMB     47       POPE     O12      OSLP    -0.570000       15.9994           0
      5043 MEMB     47       POPE     C1       CTL2    -0.800000E-01   12.0110           0
      5044 MEMB     47       POPE     HA       HAL2     0.900000E-01   1.00800           0
      5045 MEMB     47       POPE     HB       HAL2     0.900000E-01   1.00800           0
      5046 MEMB     47       POPE     C2       CTL1     0.170000       12.0110           0
      5047 MEMB     47       POPE     HS       HAL1     0.900000E-01   1.00800           0
      5048 MEMB     47       POPE     O21      OSL     -0.490000       15.9994           0
      5049 MEMB     47       POPE     C21      CL       0.900000       12.0110           0
      5050 MEMB     47       POPE     O22      OBL     -0.630000       15.9994           0
      5051 MEMB     47       POPE     C22      CTL2    -0.220000       12.0110           0
      5052 MEMB     47       POPE     H2R      HAL2     0.900000E-01   1.00800           0
      5053 MEMB     47       POPE     H2S      HAL2     0.900000E-01   1.00800           0
      5054 MEMB     47       POPE     C3       CTL2     0.800000E-01   12.0110           0
      5055 MEMB     47       POPE     HX       HAL2     0.900000E-01   1.00800           0
      5056 MEMB     47       POPE     HY       HAL2     0.900000E-01   1.00800           0
      5057 MEMB     47       POPE     O31      OSL     -0.490000       15.9994           0
      5058 MEMB     47       POPE     C31      CL       0.900000       12.0110           0
      5059 MEMB     47       POPE     O32      OBL     -0.630000       15.9994           0
      5060 MEMB     47       POPE     C32      CTL2    -0.220000       12.0110           0
      5061 MEMB     47       POPE     H2X      HAL2     0.900000E-01   1.00800           0
      5062 MEMB     47       POPE     H2Y      HAL2     0.900000E-01   1.00800           0
      5063 MEMB     47       POPE     C23      CTL2    -0.180000       12.0110           0
      5064 MEMB     47       POPE     H3R      HAL2     0.900000E-01   1.00800           0
      5065 MEMB     47       POPE     H3S      HAL2     0.900000E-01   1.00800           0
      5066 MEMB     47       POPE     C24      CTL2    -0.180000       12.0110           0
      5067 MEMB     47       POPE     H4R      HAL2     0.900000E-01   1.00800           0
      5068 MEMB     47       POPE     H4S      HAL2     0.900000E-01   1.00800           0
      5069 MEMB     47       POPE     C25      CTL2    -0.180000       12.0110           0
      5070 MEMB     47       POPE     H5R      HAL2     0.900000E-01   1.00800           0
      5071 MEMB     47       POPE     H5S      HAL2     0.900000E-01   1.00800           0
      5072 MEMB     47       POPE     C26      CTL2    -0.180000       12.0110           0
      5073 MEMB     47       POPE     H6R      HAL2     0.900000E-01   1.00800           0
      5074 MEMB     47       POPE     H6S      HAL2     0.900000E-01   1.00800           0
      5075 MEMB     47       POPE     C27      CTL2    -0.180000       12.0110           0
      5076 MEMB     47       POPE     H7R      HAL2     0.900000E-01   1.00800           0
      5077 MEMB     47       POPE     H7S      HAL2     0.900000E-01   1.00800           0
      5078 MEMB     47       POPE     C28      CTL2    -0.180000       12.0110           0
      5079 MEMB     47       POPE     H8R      HAL2     0.900000E-01   1.00800           0
      5080 MEMB     47       POPE     H8S      HAL2     0.900000E-01   1.00800           0
      5081 MEMB     47       POPE     C29      CEL1    -0.150000       12.0110           0
      5082 MEMB     47       POPE     H91      HEL1     0.150000       1.00800           0
      5083 MEMB     47       POPE     C210     CEL1    -0.150000       12.0110           0
      5084 MEMB     47       POPE     H101     HEL1     0.150000       1.00800           0
      5085 MEMB     47       POPE     C211     CTL2    -0.180000       12.0110           0
      5086 MEMB     47       POPE     H11R     HAL2     0.900000E-01   1.00800           0
      5087 MEMB     47       POPE     H11S     HAL2     0.900000E-01   1.00800           0
      5088 MEMB     47       POPE     C212     CTL2    -0.180000       12.0110           0
      5089 MEMB     47       POPE     H12R     HAL2     0.900000E-01   1.00800           0
      5090 MEMB     47       POPE     H12S     HAL2     0.900000E-01   1.00800           0
      5091 MEMB     47       POPE     C213     CTL2    -0.180000       12.0110           0
      5092 MEMB     47       POPE     H13R     HAL2     0.900000E-01   1.00800           0
      5093 MEMB     47       POPE     H13S     HAL2     0.900000E-01   1.00800           0
      5094 MEMB     47       POPE     C214     CTL2    -0.180000       12.0110           0
      5095 MEMB     47       POPE     H14R     HAL2     0.900000E-01   1.00800           0
      5096 MEMB     47       POPE     H14S     HAL2     0.900000E-01   1.00800           0
      5097 MEMB     47       POPE     C215     CTL2    -0.180000       12.0110           0
      5098 MEMB     47       POPE     H15R     HAL2     0.900000E-01   1.00800           0
      5099 MEMB     47       POPE     H15S     HAL2     0.900000E-01   1.00800           0
      5100 MEMB     47       POPE     C216     CTL2    -0.180000       12.0110           0
      5101 MEMB     47       POPE     H16R     HAL2     0.900000E-01   1.00800           0
      5102 MEMB     47       POPE     H16S     HAL2     0.900000E-01   1.00800           0
      5103 MEMB     47       POPE     C217     CTL2    -0.180000       12.0110           0
      5104 MEMB     47       POPE     H17R     HAL2     0.900000E-01   1.00800           0
      5105 MEMB     47       POPE     H17S     HAL2     0.900000E-01   1.00800           0
      5106 MEMB     47       POPE     C218     CTL3    -0.270000       12.0110           0
      5107 MEMB     47       POPE     H18R     HAL3     0.900000E-01   1.00800           0
      5108 MEMB     47       POPE     H18S     HAL3     0.900000E-01   1.00800           0
      5109 MEMB     47       POPE     H18T     HAL3     0.900000E-01   1.00800           0
      5110 MEMB     47       POPE     C33      CTL2    -0.180000       12.0110           0
      5111 MEMB     47       POPE     H3X      HAL2     0.900000E-01   1.00800           0
      5112 MEMB     47       POPE     H3Y      HAL2     0.900000E-01   1.00800           0
      5113 MEMB     47       POPE     C34      CTL2    -0.180000       12.0110           0
      5114 MEMB     47       POPE     H4X      HAL2     0.900000E-01   1.00800           0
      5115 MEMB     47       POPE     H4Y      HAL2     0.900000E-01   1.00800           0
      5116 MEMB     47       POPE     C35      CTL2    -0.180000       12.0110           0
      5117 MEMB     47       POPE     H5X      HAL2     0.900000E-01   1.00800           0
      5118 MEMB     47       POPE     H5Y      HAL2     0.900000E-01   1.00800           0
      5119 MEMB     47       POPE     C36      CTL2    -0.180000       12.0110           0
      5120 MEMB     47       POPE     H6X      HAL2     0.900000E-01   1.00800           0
      5121 MEMB     47       POPE     H6Y      HAL2     0.900000E-01   1.00800           0
      5122 MEMB     47       POPE     C37      CTL2    -0.180000       12.0110           0
      5123 MEMB     47       POPE     H7X      HAL2     0.900000E-01   1.00800           0
      5124 MEMB     47       POPE     H7Y      HAL2     0.900000E-01   1.00800           0
      5125 MEMB     47       POPE     C38      CTL2    -0.180000       12.0110           0
      5126 MEMB     47       POPE     H8X      HAL2     0.900000E-01   1.00800           0
      5127 MEMB     47       POPE     H8Y      HAL2     0.900000E-01   1.00800           0
      5128 MEMB     47       POPE     C39      CTL2    -0.180000       12.0110           0
      5129 MEMB     47       POPE     H9X      HAL2     0.900000E-01   1.00800           0
      5130 MEMB     47       POPE     H9Y      HAL2     0.900000E-01   1.00800           0
      5131 MEMB     47       POPE     C310     CTL2    -0.180000       12.0110           0
      5132 MEMB     47       POPE     H10X     HAL2     0.900000E-01   1.00800           0
      5133 MEMB     47       POPE     H10Y     HAL2     0.900000E-01   1.00800           0
      5134 MEMB     47       POPE     C311     CTL2    -0.180000       12.0110           0
      5135 MEMB     47       POPE     H11X     HAL2     0.900000E-01   1.00800           0
      5136 MEMB     47       POPE     H11Y     HAL2     0.900000E-01   1.00800           0
      5137 MEMB     47       POPE     C312     CTL2    -0.180000       12.0110           0
      5138 MEMB     47       POPE     H12X     HAL2     0.900000E-01   1.00800           0
      5139 MEMB     47       POPE     H12Y     HAL2     0.900000E-01   1.00800           0
      5140 MEMB     47       POPE     C313     CTL2    -0.180000       12.0110           0
      5141 MEMB     47       POPE     H13X     HAL2     0.900000E-01   1.00800           0
      5142 MEMB     47       POPE     H13Y     HAL2     0.900000E-01   1.00800           0
      5143 MEMB     47       POPE     C314     CTL2    -0.180000       12.0110           0
      5144 MEMB     47       POPE     H14X     HAL2     0.900000E-01   1.00800           0
      5145 MEMB     47       POPE     H14Y     HAL2     0.900000E-01   1.00800           0
      5146 MEMB     47       POPE     C315     CTL2    -0.180000       12.0110           0
      5147 MEMB     47       POPE     H15X     HAL2     0.900000E-01   1.00800           0
      5148 MEMB     47       POPE     H15Y     HAL2     0.900000E-01   1.00800           0
      5149 MEMB     47       POPE     C316     CTL3    -0.270000       12.0110           0
      5150 MEMB     47       POPE     H16X     HAL3     0.900000E-01   1.00800           0
      5151 MEMB     47       POPE     H16Y     HAL3     0.900000E-01   1.00800           0
      5152 MEMB     47       POPE     H16Z     HAL3     0.900000E-01   1.00800           0
      5153 MEMB     48       POPE     N        NH3L    -0.300000       14.0070           0
      5154 MEMB     48       POPE     HN1      HCL      0.330000       1.00800           0
      5155 MEMB     48       POPE     HN2      HCL      0.330000       1.00800           0
      5156 MEMB     48       POPE     HN3      HCL      0.330000       1.00800           0
      5157 MEMB     48       POPE     C12      CTL2     0.130000       12.0110           0
      5158 MEMB     48       POPE     H12A     HAL2     0.900000E-01   1.00800           0
      5159 MEMB     48       POPE     H12B     HAL2     0.900000E-01   1.00800           0
      5160 MEMB     48       POPE     C11      CTL2    -0.800000E-01   12.0110           0
      5161 MEMB     48       POPE     H11A     HAL2     0.900000E-01   1.00800           0
      5162 MEMB     48       POPE     H11B     HAL2     0.900000E-01   1.00800           0
      5163 MEMB     48       POPE     P        PL       1.500000       30.9740           0
      5164 MEMB     48       POPE     O13      O2L     -0.780000       15.9994           0
      5165 MEMB     48       POPE     O14      O2L     -0.780000       15.9994           0
      5166 MEMB     48       POPE     O11      OSLP    -0.570000       15.9994           0
      5167 MEMB     48       POPE     O12      OSLP    -0.570000       15.9994           0
      5168 MEMB     48       POPE     C1       CTL2    -0.800000E-01   12.0110           0
      5169 MEMB     48       POPE     HA       HAL2     0.900000E-01   1.00800           0
      5170 MEMB     48       POPE     HB       HAL2     0.900000E-01   1.00800           0
      5171 MEMB     48       POPE     C2       CTL1     0.170000       12.0110           0
      5172 MEMB     48       POPE     HS       HAL1     0.900000E-01   1.00800           0
      5173 MEMB     48       POPE     O21      OSL     -0.490000       15.9994           0
      5174 MEMB     48       POPE     C21      CL       0.900000       12.0110           0
      5175 MEMB     48       POPE     O22      OBL     -0.630000       15.9994           0
      5176 MEMB     48       POPE     C22      CTL2    -0.220000       12.0110           0
      5177 MEMB     48       POPE     H2R      HAL2     0.900000E-01   1.00800           0
      5178 MEMB     48       POPE     H2S      HAL2     0.900000E-01   1.00800           0
      5179 MEMB     48       POPE     C3       CTL2     0.800000E-01   12.0110           0
      5180 MEMB     48       POPE     HX       HAL2     0.900000E-01   1.00800           0
      5181 MEMB     48       POPE     HY       HAL2     0.900000E-01   1.00800           0
      5182 MEMB     48       POPE     O31      OSL     -0.490000       15.9994           0
      5183 MEMB     48       POPE     C31      CL       0.900000       12.0110           0
      5184 MEMB     48       POPE     O32      OBL     -0.630000       15.9994           0
      5185 MEMB     48       POPE     C32      CTL2    -0.220000       12.0110           0
      5186 MEMB     48       POPE     H2X      HAL2     0.900000E-01   1.00800           0
      5187 MEMB     48       POPE     H2Y      HAL2     0.900000E-01   1.00800           0
      5188 MEMB     48       POPE     C23      CTL2    -0.180000       12.0110           0
      5189 MEMB     48       POPE     H3R      HAL2     0.900000E-01   1.00800           0
      5190 MEMB     48       POPE     H3S      HAL2     0.900000E-01   1.00800           0
      5191 MEMB     48       POPE     C24      CTL2    -0.180000       12.0110           0
      5192 MEMB     48       POPE     H4R      HAL2     0.900000E-01   1.00800           0
      5193 MEMB     48       POPE     H4S      HAL2     0.900000E-01   1.00800           0
      5194 MEMB     48       POPE     C25      CTL2    -0.180000       12.0110           0
      5195 MEMB     48       POPE     H5R      HAL2     0.900000E-01   1.00800           0
      5196 MEMB     48       POPE     H5S      HAL2     0.900000E-01   1.00800           0
      5197 MEMB     48       POPE     C26      CTL2    -0.180000       12.0110           0
      5198 MEMB     48       POPE     H6R      HAL2     0.900000E-01   1.00800           0
      5199 MEMB     48       POPE     H6S      HAL2     0.900000E-01   1.00800           0
      5200 MEMB     48       POPE     C27      CTL2    -0.180000       12.0110           0
      5201 MEMB     48       POPE     H7R      HAL2     0.900000E-01   1.00800           0
      5202 MEMB     48       POPE     H7S      HAL2     0.900000E-01   1.00800           0
      5203 MEMB     48       POPE     C28      CTL2    -0.180000       12.0110           0
      5204 MEMB     48       POPE     H8R      HAL2     0.900000E-01   1.00800           0
      5205 MEMB     48       POPE     H8S      HAL2     0.900000E-01   1.00800           0
      5206 MEMB     48       POPE     C29      CEL1    -0.150000       12.0110           0
      5207 MEMB     48       POPE     H91      HEL1     0.150000       1.00800           0
      5208 MEMB     48       POPE     C210     CEL1    -0.150000       12.0110           0
      5209 MEMB     48       POPE     H101     HEL1     0.150000       1.00800           0
      5210 MEMB     48       POPE     C211     CTL2    -0.180000       12.0110           0
      5211 MEMB     48       POPE     H11R     HAL2     0.900000E-01   1.00800           0
      5212 MEMB     48       POPE     H11S     HAL2     0.900000E-01   1.00800           0
      5213 MEMB     48       POPE     C212     CTL2    -0.180000       12.0110           0
      5214 MEMB     48       POPE     H12R     HAL2     0.900000E-01   1.00800           0
      5215 MEMB     48       POPE     H12S     HAL2     0.900000E-01   1.00800           0
      5216 MEMB     48       POPE     C213     CTL2    -0.180000       12.0110           0
      5217 MEMB     48       POPE     H13R     HAL2     0.900000E-01   1.00800           0
      5218 MEMB     48       POPE     H13S     HAL2     0.900000E-01   1.00800           0
      5219 MEMB     48       POPE     C214     CTL2    -0.180000       12.0110           0
      5220 MEMB     48       POPE     H14R     HAL2     0.900000E-01   1.00800           0
      5221 MEMB     48       POPE     H14S     HAL2     0.900000E-01   1.00800           0
      5222 MEMB     48       POPE     C215     CTL2    -0.180000       12.0110           0
      5223 MEMB     48       POPE     H15R     HAL2     0.900000E-01   1.00800           0
      5224 MEMB     48       POPE     H15S     HAL2     0.900000E-01   1.00800           0
      5225 MEMB     48       POPE     C216     CTL2    -0.180000       12.0110           0
      5226 MEMB     48       POPE     H16R     HAL2     0.900000E-01   1.00800           0
      5227 MEMB     48       POPE     H16S     HAL2     0.900000E-01   1.00800           0
      5228 MEMB     48       POPE     C217     CTL2    -0.180000       12.0110           0
      5229 MEMB     48       POPE     H17R     HAL2     0.900000E-01   1.00800           0
      5230 MEMB     48       POPE     H17S     HAL2     0.900000E-01   1.00800           0
      5231 MEMB     48       POPE     C218     CTL3    -0.270000       12.0110           0
      5232 MEMB     48       POPE     H18R     HAL3     0.900000E-01   1.00800           0
      5233 MEMB     48       POPE     H18S     HAL3     0.900000E-01   1.00800           0
      5234 MEMB     48       POPE     H18T     HAL3     0.900000E-01   1.00800           0
      5235 MEMB     48       POPE     C33      CTL2    -0.180000       12.0110           0
      5236 MEMB     48       POPE     H3X      HAL2     0.900000E-01   1.00800           0
      5237 MEMB     48       POPE     H3Y      HAL2     0.900000E-01   1.00800           0
      5238 MEMB     48       POPE     C34      CTL2    -0.180000       12.0110           0
      5239 MEMB     48       POPE     H4X      HAL2     0.900000E-01   1.00800           0
      5240 MEMB     48       POPE     H4Y      HAL2     0.900000E-01   1.00800           0
      5241 MEMB     48       POPE     C35      CTL2    -0.180000       12.0110           0
      5242 MEMB     48       POPE     H5X      HAL2     0.900000E-01   1.00800           0
      5243 MEMB     48       POPE     H5Y      HAL2     0.900000E-01   1.00800           0
      5244 MEMB     48       POPE     C36      CTL2    -0.180000       12.0110           0
      5245 MEMB     48       POPE     H6X      HAL2     0.900000E-01   1.00800           0
      5246 MEMB     48       POPE     H6Y      HAL2     0.900000E-01   1.00800           0
      5247 MEMB     48       POPE     C37      CTL2    -0.180000       12.0110           0
      5248 MEMB     48       POPE     H7X      HAL2     0.900000E-01   1.00800           0
      5249 MEMB     48       POPE     H7Y      HAL2     0.900000E-01   1.00800           0
      5250 MEMB     48       POPE     C38      CTL2    -0.180000       12.0110           0
      5251 MEMB     48       POPE     H8X      HAL2     0.900000E-01   1.00800           0
      5252 MEMB     48       POPE     H8Y      HAL2     0.900000E-01   1.00800           0
      5253 MEMB     48       POPE     C39      CTL2    -0.180000       12.0110           0
      5254 MEMB     48       POPE     H9X      HAL2     0.900000E-01   1.00800           0
      5255 MEMB     48       POPE     H9Y      HAL2     0.900000E-01   1.00800           0
      5256 MEMB     48       POPE     C310     CTL2    -0.180000       12.0110           0
      5257 MEMB     48       POPE     H10X     HAL2     0.900000E-01   1.00800           0
      5258 MEMB     48       POPE     H10Y     HAL2     0.900000E-01   1.00800           0
      5259 MEMB     48       POPE     C311     CTL2    -0.180000       12.0110           0
      5260 MEMB     48       POPE     H11X     HAL2     0.900000E-01   1.00800           0
      5261 MEMB     48       POPE     H11Y     HAL2     0.900000E-01   1.00800           0
      5262 MEMB     48       POPE     C312     CTL2    -0.180000       12.0110           0
      5263 MEMB     48       POPE     H12X     HAL2     0.900000E-01   1.00800           0
      5264 MEMB     48       POPE     H12Y     HAL2     0.900000E-01   1.00800           0
      5265 MEMB     48       POPE     C313     CTL2    -0.180000       12.0110           0
      5266 MEMB     48       POPE     H13X     HAL2     0.900000E-01   1.00800           0
      5267 MEMB     48       POPE     H13Y     HAL2     0.900000E-01   1.00800           0
      5268 MEMB     48       POPE     C314     CTL2    -0.180000       12.0110           0
      5269 MEMB     48       POPE     H14X     HAL2     0.900000E-01   1.00800           0
      5270 MEMB     48       POPE     H14Y     HAL2     0.900000E-01   1.00800           0
      5271 MEMB     48       POPE     C315     CTL2    -0.180000       12.0110           0
      5272 MEMB     48       POPE     H15X     HAL2     0.900000E-01   1.00800           0
      5273 MEMB     48       POPE     H15Y     HAL2     0.900000E-01   1.00800           0
      5274 MEMB     48       POPE     C316     CTL3    -0.270000       12.0110           0
      5275 MEMB     48       POPE     H16X     HAL3     0.900000E-01   1.00800           0
      5276 MEMB     48       POPE     H16Y     HAL3     0.900000E-01   1.00800           0
      5277 MEMB     48       POPE     H16Z     HAL3     0.900000E-01   1.00800           0
      5278 MEMB     49       PSM      N        NTL     -0.600000       14.0070           0
      5279 MEMB     49       PSM      C15      CTL5    -0.350000       12.0110           0
      5280 MEMB     49       PSM      H15A     HL       0.250000       1.00800           0
      5281 MEMB     49       PSM      H15B     HL       0.250000       1.00800           0
      5282 MEMB     49       PSM      H15C     HL       0.250000       1.00800           0
      5283 MEMB     49       PSM      C14      CTL5    -0.350000       12.0110           0
      5284 MEMB     49       PSM      H14A     HL       0.250000       1.00800           0
      5285 MEMB     49       PSM      H14B     HL       0.250000       1.00800           0
      5286 MEMB     49       PSM      H14C     HL       0.250000       1.00800           0
      5287 MEMB     49       PSM      C13      CTL5    -0.350000       12.0110           0
      5288 MEMB     49       PSM      H13A     HL       0.250000       1.00800           0
      5289 MEMB     49       PSM      H13B     HL       0.250000       1.00800           0
      5290 MEMB     49       PSM      H13C     HL       0.250000       1.00800           0
      5291 MEMB     49       PSM      C12      CTL2    -0.100000       12.0110           0
      5292 MEMB     49       PSM      H12A     HL       0.250000       1.00800           0
      5293 MEMB     49       PSM      H12B     HL       0.250000       1.00800           0
      5294 MEMB     49       PSM      C11      CTL2    -0.800000E-01   12.0110           0
      5295 MEMB     49       PSM      H11A     HAL2     0.900000E-01   1.00800           0
      5296 MEMB     49       PSM      H11B     HAL2     0.900000E-01   1.00800           0
      5297 MEMB     49       PSM      P        PL       1.500000       30.9740           0
      5298 MEMB     49       PSM      O13      O2L     -0.780000       15.9994           0
      5299 MEMB     49       PSM      O14      O2L     -0.780000       15.9994           0
      5300 MEMB     49       PSM      O11      OSLP    -0.570000       15.9994           0
      5301 MEMB     49       PSM      O12      OSLP    -0.570000       15.9994           0
      5302 MEMB     49       PSM      C1S      CTL2    -0.800000E-01   12.0110           0
      5303 MEMB     49       PSM      H1S      HAL2     0.900000E-01   1.00800           0
      5304 MEMB     49       PSM      H1T      HAL2     0.900000E-01   1.00800           0
      5305 MEMB     49       PSM      NF       NHL     -0.700000       14.0070           0
      5306 MEMB     49       PSM      HNF      H        0.350000       1.00800           0
      5307 MEMB     49       PSM      C2S      CTL1     0.300000       12.0110           0
      5308 MEMB     49       PSM      H2S      HAL1     0.500000E-01   1.00800           0
      5309 MEMB     49       PSM      C3S      CTO1     0.500000       12.0110           0
      5310 MEMB     49       PSM      H3S      HAL1    -0.110000       1.00800           0
      5311 MEMB     49       PSM      O3       OHL     -0.690000       15.9994           0
      5312 MEMB     49       PSM      HO3      HOL      0.300000       1.00800           0
      5313 MEMB     49       PSM      C4S      CEL3    -0.150000       12.0110           0
      5314 MEMB     49       PSM      H4S      HEL1     0.150000       1.00800           0
      5315 MEMB     49       PSM      C5S      CEL3    -0.150000       12.0110           0
      5316 MEMB     49       PSM      H5S      HEL1     0.150000       1.00800           0
      5317 MEMB     49       PSM      C6S      CTL2    -0.180000       12.0110           0
      5318 MEMB     49       PSM      H6S      HAL2     0.900000E-01   1.00800           0
      5319 MEMB     49       PSM      H6T      HAL2     0.900000E-01   1.00800           0
      5320 MEMB     49       PSM      C7S      CTL2    -0.180000       12.0110           0
      5321 MEMB     49       PSM      H7S      HAL2     0.900000E-01   1.00800           0
      5322 MEMB     49       PSM      H7T      HAL2     0.900000E-01   1.00800           0
      5323 MEMB     49       PSM      C8S      CTL2    -0.180000       12.0110           0
      5324 MEMB     49       PSM      H8S      HAL2     0.900000E-01   1.00800           0
      5325 MEMB     49       PSM      H8T      HAL2     0.900000E-01   1.00800           0
      5326 MEMB     49       PSM      C9S      CTL2    -0.180000       12.0110           0
      5327 MEMB     49       PSM      H9S      HAL2     0.900000E-01   1.00800           0
      5328 MEMB     49       PSM      H9T      HAL2     0.900000E-01   1.00800           0
      5329 MEMB     49       PSM      C10S     CTL2    -0.180000       12.0110           0
      5330 MEMB     49       PSM      H10S     HAL2     0.900000E-01   1.00800           0
      5331 MEMB     49       PSM      H10T     HAL2     0.900000E-01   1.00800           0
      5332 MEMB     49       PSM      C11S     CTL2    -0.180000       12.0110           0
      5333 MEMB     49       PSM      H11S     HAL2     0.900000E-01   1.00800           0
      5334 MEMB     49       PSM      H11T     HAL2     0.900000E-01   1.00800           0
      5335 MEMB     49       PSM      C12S     CTL2    -0.180000       12.0110           0
      5336 MEMB     49       PSM      H12S     HAL2     0.900000E-01   1.00800           0
      5337 MEMB     49       PSM      H12T     HAL2     0.900000E-01   1.00800           0
      5338 MEMB     49       PSM      C13S     CTL2    -0.180000       12.0110           0
      5339 MEMB     49       PSM      H13S     HAL2     0.900000E-01   1.00800           0
      5340 MEMB     49       PSM      H13T     HAL2     0.900000E-01   1.00800           0
      5341 MEMB     49       PSM      C14S     CTL2    -0.180000       12.0110           0
      5342 MEMB     49       PSM      H14S     HAL2     0.900000E-01   1.00800           0
      5343 MEMB     49       PSM      H14T     HAL2     0.900000E-01   1.00800           0
      5344 MEMB     49       PSM      C15S     CTL2    -0.180000       12.0110           0
      5345 MEMB     49       PSM      H15S     HAL2     0.900000E-01   1.00800           0
      5346 MEMB     49       PSM      H15T     HAL2     0.900000E-01   1.00800           0
      5347 MEMB     49       PSM      C16S     CTL2    -0.180000       12.0110           0
      5348 MEMB     49       PSM      H16S     HAL2     0.900000E-01   1.00800           0
      5349 MEMB     49       PSM      H16T     HAL2     0.900000E-01   1.00800           0
      5350 MEMB     49       PSM      C17S     CTL2    -0.180000       12.0110           0
      5351 MEMB     49       PSM      H17S     HAL2     0.900000E-01   1.00800           0
      5352 MEMB     49       PSM      H17T     HAL2     0.900000E-01   1.00800           0
      5353 MEMB     49       PSM      C18S     CTL3    -0.270000       12.0110           0
      5354 MEMB     49       PSM      H18S     HAL3     0.900000E-01   1.00800           0
      5355 MEMB     49       PSM      H18T     HAL3     0.900000E-01   1.00800           0
      5356 MEMB     49       PSM      H18U     HAL3     0.900000E-01   1.00800           0
      5357 MEMB     49       PSM      C1F      C        0.550000       12.0110           0
      5358 MEMB     49       PSM      OF       O       -0.600000       15.9994           0
      5359 MEMB     49       PSM      C2F      CTL2    -0.700000E-01   12.0110           0
      5360 MEMB     49       PSM      H2F      HAL2     0.600000E-01   1.00800           0
      5361 MEMB     49       PSM      H2G      HAL2     0.600000E-01   1.00800           0
      5362 MEMB     49       PSM      C3F      CTL2    -0.180000       12.0110           0
      5363 MEMB     49       PSM      H3F      HAL2     0.900000E-01   1.00800           0
      5364 MEMB     49       PSM      H3G      HAL2     0.900000E-01   1.00800           0
      5365 MEMB     49       PSM      C4F      CTL2    -0.180000       12.0110           0
      5366 MEMB     49       PSM      H4F      HAL2     0.900000E-01   1.00800           0
      5367 MEMB     49       PSM      H4G      HAL2     0.900000E-01   1.00800           0
      5368 MEMB     49       PSM      C5F      CTL2    -0.180000       12.0110           0
      5369 MEMB     49       PSM      H5F      HAL2     0.900000E-01   1.00800           0
      5370 MEMB     49       PSM      H5G      HAL2     0.900000E-01   1.00800           0
      5371 MEMB     49       PSM      C6F      CTL2    -0.180000       12.0110           0
      5372 MEMB     49       PSM      H6F      HAL2     0.900000E-01   1.00800           0
      5373 MEMB     49       PSM      H6G      HAL2     0.900000E-01   1.00800           0
      5374 MEMB     49       PSM      C7F      CTL2    -0.180000       12.0110           0
      5375 MEMB     49       PSM      H7F      HAL2     0.900000E-01   1.00800           0
      5376 MEMB     49       PSM      H7G      HAL2     0.900000E-01   1.00800           0
      5377 MEMB     49       PSM      C8F      CTL2    -0.180000       12.0110           0
      5378 MEMB     49       PSM      H8F      HAL2     0.900000E-01   1.00800           0
      5379 MEMB     49       PSM      H8G      HAL2     0.900000E-01   1.00800           0
      5380 MEMB     49       PSM      C9F      CTL2    -0.180000       12.0110           0
      5381 MEMB     49       PSM      H9F      HAL2     0.900000E-01   1.00800           0
      5382 MEMB     49       PSM      H9G      HAL2     0.900000E-01   1.00800           0
      5383 MEMB     49       PSM      C10F     CTL2    -0.180000       12.0110           0
      5384 MEMB     49       PSM      H10F     HAL2     0.900000E-01   1.00800           0
      5385 MEMB     49       PSM      H10G     HAL2     0.900000E-01   1.00800           0
      5386 MEMB     49       PSM      C11F     CTL2    -0.180000       12.0110           0
      5387 MEMB     49       PSM      H11F     HAL2     0.900000E-01   1.00800           0
      5388 MEMB     49       PSM      H11G     HAL2     0.900000E-01   1.00800           0
      5389 MEMB     49       PSM      C12F     CTL2    -0.180000       12.0110           0
      5390 MEMB     49       PSM      H12F     HAL2     0.900000E-01   1.00800           0
      5391 MEMB     49       PSM      H12G     HAL2     0.900000E-01   1.00800           0
      5392 MEMB     49       PSM      C13F     CTL2    -0.180000       12.0110           0
      5393 MEMB     49       PSM      H13F     HAL2     0.900000E-01   1.00800           0
      5394 MEMB     49       PSM      H13G     HAL2     0.900000E-01   1.00800           0
      5395 MEMB     49       PSM      C14F     CTL2    -0.180000       12.0110           0
      5396 MEMB     49       PSM      H14F     HAL2     0.900000E-01   1.00800           0
      5397 MEMB     49       PSM      H14G     HAL2     0.900000E-01   1.00800           0
      5398 MEMB     49       PSM      C15F     CTL2    -0.180000       12.0110           0
      5399 MEMB     49       PSM      H15F     HAL2     0.900000E-01   1.00800           0
      5400 MEMB     49       PSM      H15G     HAL2     0.900000E-01   1.00800           0
      5401 MEMB     49       PSM      C16F     CTL3    -0.270000       12.0110           0
      5402 MEMB     49       PSM      H16F     HAL3     0.900000E-01   1.00800           0
      5403 MEMB     49       PSM      H16G     HAL3     0.900000E-01   1.00800           0
      5404 MEMB     49       PSM      H16H     HAL3     0.900000E-01   1.00800           0
      5405 MEMB     50       PSM      N        NTL     -0.600000       14.0070           0
      5406 MEMB     50       PSM      C15      CTL5    -0.350000       12.0110           0
      5407 MEMB     50       PSM      H15A     HL       0.250000       1.00800           0
      5408 MEMB     50       PSM      H15B     HL       0.250000       1.00800           0
      5409 MEMB     50       PSM      H15C     HL       0.250000       1.00800           0
      5410 MEMB     50       PSM      C14      CTL5    -0.350000       12.0110           0
      5411 MEMB     50       PSM      H14A     HL       0.250000       1.00800           0
      5412 MEMB     50       PSM      H14B     HL       0.250000       1.00800           0
      5413 MEMB     50       PSM      H14C     HL       0.250000       1.00800           0
      5414 MEMB     50       PSM      C13      CTL5    -0.350000       12.0110           0
      5415 MEMB     50       PSM      H13A     HL       0.250000       1.00800           0
      5416 MEMB     50       PSM      H13B     HL       0.250000       1.00800           0
      5417 MEMB     50       PSM      H13C     HL       0.250000       1.00800           0
      5418 MEMB     50       PSM      C12      CTL2    -0.100000       12.0110           0
      5419 MEMB     50       PSM      H12A     HL       0.250000       1.00800           0
      5420 MEMB     50       PSM      H12B     HL       0.250000       1.00800           0
      5421 MEMB     50       PSM      C11      CTL2    -0.800000E-01   12.0110           0
      5422 MEMB     50       PSM      H11A     HAL2     0.900000E-01   1.00800           0
      5423 MEMB     50       PSM      H11B     HAL2     0.900000E-01   1.00800           0
      5424 MEMB     50       PSM      P        PL       1.500000       30.9740           0
      5425 MEMB     50       PSM      O13      O2L     -0.780000       15.9994           0
      5426 MEMB     50       PSM      O14      O2L     -0.780000       15.9994           0
      5427 MEMB     50       PSM      O11      OSLP    -0.570000       15.9994           0
      5428 MEMB     50       PSM      O12      OSLP    -0.570000       15.9994           0
      5429 MEMB     50       PSM      C1S      CTL2    -0.800000E-01   12.0110           0
      5430 MEMB     50       PSM      H1S      HAL2     0.900000E-01   1.00800           0
      5431 MEMB     50       PSM      H1T      HAL2     0.900000E-01   1.00800           0
      5432 MEMB     50       PSM      NF       NHL     -0.700000       14.0070           0
      5433 MEMB     50       PSM      HNF      H        0.350000       1.00800           0
      5434 MEMB     50       PSM      C2S      CTL1     0.300000       12.0110           0
      5435 MEMB     50       PSM      H2S      HAL1     0.500000E-01   1.00800           0
      5436 MEMB     50       PSM      C3S      CTO1     0.500000       12.0110           0
      5437 MEMB     50       PSM      H3S      HAL1    -0.110000       1.00800           0
      5438 MEMB     50       PSM      O3       OHL     -0.690000       15.9994           0
      5439 MEMB     50       PSM      HO3      HOL      0.300000       1.00800           0
      5440 MEMB     50       PSM      C4S      CEL3    -0.150000       12.0110           0
      5441 MEMB     50       PSM      H4S      HEL1     0.150000       1.00800           0
      5442 MEMB     50       PSM      C5S      CEL3    -0.150000       12.0110           0
      5443 MEMB     50       PSM      H5S      HEL1     0.150000       1.00800           0
      5444 MEMB     50       PSM      C6S      CTL2    -0.180000       12.0110           0
      5445 MEMB     50       PSM      H6S      HAL2     0.900000E-01   1.00800           0
      5446 MEMB     50       PSM      H6T      HAL2     0.900000E-01   1.00800           0
      5447 MEMB     50       PSM      C7S      CTL2    -0.180000       12.0110           0
      5448 MEMB     50       PSM      H7S      HAL2     0.900000E-01   1.00800           0
      5449 MEMB     50       PSM      H7T      HAL2     0.900000E-01   1.00800           0
      5450 MEMB     50       PSM      C8S      CTL2    -0.180000       12.0110           0
      5451 MEMB     50       PSM      H8S      HAL2     0.900000E-01   1.00800           0
      5452 MEMB     50       PSM      H8T      HAL2     0.900000E-01   1.00800           0
      5453 MEMB     50       PSM      C9S      CTL2    -0.180000       12.0110           0
      5454 MEMB     50       PSM      H9S      HAL2     0.900000E-01   1.00800           0
      5455 MEMB     50       PSM      H9T      HAL2     0.900000E-01   1.00800           0
      5456 MEMB     50       PSM      C10S     CTL2    -0.180000       12.0110           0
      5457 MEMB     50       PSM      H10S     HAL2     0.900000E-01   1.00800           0
      5458 MEMB     50       PSM      H10T     HAL2     0.900000E-01   1.00800           0
      5459 MEMB     50       PSM      C11S     CTL2    -0.180000       12.0110           0
      5460 MEMB     50       PSM      H11S     HAL2     0.900000E-01   1.00800           0
      5461 MEMB     50       PSM      H11T     HAL2     0.900000E-01   1.00800           0
      5462 MEMB     50       PSM      C12S     CTL2    -0.180000       12.0110           0
      5463 MEMB     50       PSM      H12S     HAL2     0.900000E-01   1.00800           0
      5464 MEMB     50       PSM      H12T     HAL2     0.900000E-01   1.00800           0
      5465 MEMB     50       PSM      C13S     CTL2    -0.180000       12.0110           0
      5466 MEMB     50       PSM      H13S     HAL2     0.900000E-01   1.00800           0
      5467 MEMB     50       PSM      H13T     HAL2     0.900000E-01   1.00800           0
      5468 MEMB     50       PSM      C14S     CTL2    -0.180000       12.0110           0
      5469 MEMB     50       PSM      H14S     HAL2     0.900000E-01   1.00800           0
      5470 MEMB     50       PSM      H14T     HAL2     0.900000E-01   1.00800           0
      5471 MEMB     50       PSM      C15S     CTL2    -0.180000       12.0110           0
      5472 MEMB     50       PSM      H15S     HAL2     0.900000E-01   1.00800           0
      5473 MEMB     50       PSM      H15T     HAL2     0.900000E-01   1.00800           0
      5474 MEMB     50       PSM      C16S     CTL2    -0.180000       12.0110           0
      5475 MEMB     50       PSM      H16S     HAL2     0.900000E-01   1.00800           0
      5476 MEMB     50       PSM      H16T     HAL2     0.900000E-01   1.00800           0
      5477 MEMB     50       PSM      C17S     CTL2    -0.180000       12.0110           0
      5478 MEMB     50       PSM      H17S     HAL2     0.900000E-01   1.00800           0
      5479 MEMB     50       PSM      H17T     HAL2     0.900000E-01   1.00800           0
      5480 MEMB     50       PSM      C18S     CTL3    -0.270000       12.0110           0
      5481 MEMB     50       PSM      H18S     HAL3     0.900000E-01   1.00800           0
      5482 MEMB     50       PSM      H18T     HAL3     0.900000E-01   1.00800           0
      5483 MEMB     50       PSM      H18U     HAL3     0.900000E-01   1.00800           0
      5484 MEMB     50       PSM      C1F      C        0.550000       12.0110           0
      5485 MEMB     50       PSM      OF       O       -0.600000       15.9994           0
      5486 MEMB     50       PSM      C2F      CTL2    -0.700000E-01   12.0110           0
      5487 MEMB     50       PSM      H2F      HAL2     0.600000E-01   1.00800           0
      5488 MEMB     50       PSM      H2G      HAL2     0.600000E-01   1.00800           0
      5489 MEMB     50       PSM      C3F      CTL2    -0.180000       12.0110           0
      5490 MEMB     50       PSM      H3F      HAL2     0.900000E-01   1.00800           0
      5491 MEMB     50       PSM      H3G      HAL2     0.900000E-01   1.00800           0
      5492 MEMB     50       PSM      C4F      CTL2    -0.180000       12.0110           0
      5493 MEMB     50       PSM      H4F      HAL2     0.900000E-01   1.00800           0
      5494 MEMB     50       PSM      H4G      HAL2     0.900000E-01   1.00800           0
      5495 MEMB     50       PSM      C5F      CTL2    -0.180000       12.0110           0
      5496 MEMB     50       PSM      H5F      HAL2     0.900000E-01   1.00800           0
      5497 MEMB     50       PSM      H5G      HAL2     0.900000E-01   1.00800           0
      5498 MEMB     50       PSM      C6F      CTL2    -0.180000       12.0110           0
      5499 MEMB     50       PSM      H6F      HAL2     0.900000E-01   1.00800           0
      5500 MEMB     50       PSM      H6G      HAL2     0.900000E-01   1.00800           0
      5501 MEMB     50       PSM      C7F      CTL2    -0.180000       12.0110           0
      5502 MEMB     50       PSM      H7F      HAL2     0.900000E-01   1.00800           0
      5503 MEMB     50       PSM      H7G      HAL2     0.900000E-01   1.00800           0
      5504 MEMB     50       PSM      C8F      CTL2    -0.180000       12.0110           0
      5505 MEMB     50       PSM      H8F      HAL2     0.900000E-01   1.00800           0
      5506 MEMB     50       PSM      H8G      HAL2     0.900000E-01   1.00800           0
      5507 MEMB     50       PSM      C9F      CTL2    -0.180000       12.0110           0
      5508 MEMB     50       PSM      H9F      HAL2     0.900000E-01   1.00800           0
      5509 MEMB     50       PSM      H9G      HAL2     0.900000E-01   1.00800           0
      5510 MEMB     50       PSM      C10F     CTL2    -0.180000       12.0110           0
      5511 MEMB     50       PSM      H10F     HAL2     0.900000E-01   1.00800           0
      5512 MEMB     50       PSM      H10G     HAL2     0.900000E-01   1.00800           0
      5513 MEMB     50       PSM      C11F     CTL2    -0.180000       12.0110           0
      5514 MEMB     50       PSM      H11F     HAL2     0.900000E-01   1.00800           0
      5515 MEMB     50       PSM      H11G     HAL2     0.900000E-01   1.00800           0
      5516 MEMB     50       PSM      C12F     CTL2    -0.180000       12.0110           0
      5517 MEMB     50       PSM      H12F     HAL2     0.900000E-01   1.00800           0
      5518 MEMB     50       PSM      H12G     HAL2     0.900000E-01   1.00800           0
      5519 MEMB     50       PSM      C13F     CTL2    -0.180000       12.0110           0
      5520 MEMB     50       PSM      H13F     HAL2     0.900000E-01   1.00800           0
      5521 MEMB     50       PSM      H13G     HAL2     0.900000E-01   1.00800           0
      5522 MEMB     50       PSM      C14F     CTL2    -0.180000       12.0110           0
      5523 MEMB     50       PSM      H14F     HAL2     0.900000E-01   1.00800           0
      5524 MEMB     50       PSM      H14G     HAL2     0.900000E-01   1.00800           0
      5525 MEMB     50       PSM      C15F     CTL2    -0.180000       12.0110           0
      5526 MEMB     50       PSM      H15F     HAL2     0.900000E-01   1.00800           0
      5527 MEMB     50       PSM      H15G     HAL2     0.900000E-01   1.00800           0
      5528 MEMB     50       PSM      C16F     CTL3    -0.270000       12.0110           0
      5529 MEMB     50       PSM      H16F     HAL3     0.900000E-01   1.00800           0
      5530 MEMB     50       PSM      H16G     HAL3     0.900000E-01   1.00800           0
      5531 MEMB     50       PSM      H16H     HAL3     0.900000E-01   1.00800           0
      5532 MEMB     51       POPE     N        NH3L    -0.300000       14.0070           0
      5533 MEMB     51       POPE     HN1      HCL      0.330000       1.00800           0
      5534 MEMB     51       POPE     HN2      HCL      0.330000       1.00800           0
      5535 MEMB     51       POPE     HN3      HCL      0.330000       1.00800           0
      5536 MEMB     51       POPE     C12      CTL2     0.130000       12.0110           0
      5537 MEMB     51       POPE     H12A     HAL2     0.900000E-01   1.00800           0
      5538 MEMB     51       POPE     H12B     HAL2     0.900000E-01   1.00800           0
      5539 MEMB     51       POPE     C11      CTL2    -0.800000E-01   12.0110           0
      5540 MEMB     51       POPE     H11A     HAL2     0.900000E-01   1.00800           0
      5541 MEMB     51       POPE     H11B     HAL2     0.900000E-01   1.00800           0
      5542 MEMB     51       POPE     P        PL       1.500000       30.9740           0
      5543 MEMB     51       POPE     O13      O2L     -0.780000       15.9994           0
      5544 MEMB     51       POPE     O14      O2L     -0.780000       15.9994           0
      5545 MEMB     51       POPE     O11      OSLP    -0.570000       15.9994           0
      5546 MEMB     51       POPE     O12      OSLP    -0.570000       15.9994           0
      5547 MEMB     51       POPE     C1       CTL2    -0.800000E-01   12.0110           0
      5548 MEMB     51       POPE     HA       HAL2     0.900000E-01   1.00800           0
      5549 MEMB     51       POPE     HB       HAL2     0.900000E-01   1.00800           0
      5550 MEMB     51       POPE     C2       CTL1     0.170000       12.0110           0
      5551 MEMB     51       POPE     HS       HAL1     0.900000E-01   1.00800           0
      5552 MEMB     51       POPE     O21      OSL     -0.490000       15.9994           0
      5553 MEMB     51       POPE     C21      CL       0.900000       12.0110           0
      5554 MEMB     51       POPE     O22      OBL     -0.630000       15.9994           0
      5555 MEMB     51       POPE     C22      CTL2    -0.220000       12.0110           0
      5556 MEMB     51       POPE     H2R      HAL2     0.900000E-01   1.00800           0
      5557 MEMB     51       POPE     H2S      HAL2     0.900000E-01   1.00800           0
      5558 MEMB     51       POPE     C3       CTL2     0.800000E-01   12.0110           0
      5559 MEMB     51       POPE     HX       HAL2     0.900000E-01   1.00800           0
      5560 MEMB     51       POPE     HY       HAL2     0.900000E-01   1.00800           0
      5561 MEMB     51       POPE     O31      OSL     -0.490000       15.9994           0
      5562 MEMB     51       POPE     C31      CL       0.900000       12.0110           0
      5563 MEMB     51       POPE     O32      OBL     -0.630000       15.9994           0
      5564 MEMB     51       POPE     C32      CTL2    -0.220000       12.0110           0
      5565 MEMB     51       POPE     H2X      HAL2     0.900000E-01   1.00800           0
      5566 MEMB     51       POPE     H2Y      HAL2     0.900000E-01   1.00800           0
      5567 MEMB     51       POPE     C23      CTL2    -0.180000       12.0110           0
      5568 MEMB     51       POPE     H3R      HAL2     0.900000E-01   1.00800           0
      5569 MEMB     51       POPE     H3S      HAL2     0.900000E-01   1.00800           0
      5570 MEMB     51       POPE     C24      CTL2    -0.180000       12.0110           0
      5571 MEMB     51       POPE     H4R      HAL2     0.900000E-01   1.00800           0
      5572 MEMB     51       POPE     H4S      HAL2     0.900000E-01   1.00800           0
      5573 MEMB     51       POPE     C25      CTL2    -0.180000       12.0110           0
      5574 MEMB     51       POPE     H5R      HAL2     0.900000E-01   1.00800           0
      5575 MEMB     51       POPE     H5S      HAL2     0.900000E-01   1.00800           0
      5576 MEMB     51       POPE     C26      CTL2    -0.180000       12.0110           0
      5577 MEMB     51       POPE     H6R      HAL2     0.900000E-01   1.00800           0
      5578 MEMB     51       POPE     H6S      HAL2     0.900000E-01   1.00800           0
      5579 MEMB     51       POPE     C27      CTL2    -0.180000       12.0110           0
      5580 MEMB     51       POPE     H7R      HAL2     0.900000E-01   1.00800           0
      5581 MEMB     51       POPE     H7S      HAL2     0.900000E-01   1.00800           0
      5582 MEMB     51       POPE     C28      CTL2    -0.180000       12.0110           0
      5583 MEMB     51       POPE     H8R      HAL2     0.900000E-01   1.00800           0
      5584 MEMB     51       POPE     H8S      HAL2     0.900000E-01   1.00800           0
      5585 MEMB     51       POPE     C29      CEL1    -0.150000       12.0110           0
      5586 MEMB     51       POPE     H91      HEL1     0.150000       1.00800           0
      5587 MEMB     51       POPE     C210     CEL1    -0.150000       12.0110           0
      5588 MEMB     51       POPE     H101     HEL1     0.150000       1.00800           0
      5589 MEMB     51       POPE     C211     CTL2    -0.180000       12.0110           0
      5590 MEMB     51       POPE     H11R     HAL2     0.900000E-01   1.00800           0
      5591 MEMB     51       POPE     H11S     HAL2     0.900000E-01   1.00800           0
      5592 MEMB     51       POPE     C212     CTL2    -0.180000       12.0110           0
      5593 MEMB     51       POPE     H12R     HAL2     0.900000E-01   1.00800           0
      5594 MEMB     51       POPE     H12S     HAL2     0.900000E-01   1.00800           0
      5595 MEMB     51       POPE     C213     CTL2    -0.180000       12.0110           0
      5596 MEMB     51       POPE     H13R     HAL2     0.900000E-01   1.00800           0
      5597 MEMB     51       POPE     H13S     HAL2     0.900000E-01   1.00800           0
      5598 MEMB     51       POPE     C214     CTL2    -0.180000       12.0110           0
      5599 MEMB     51       POPE     H14R     HAL2     0.900000E-01   1.00800           0
      5600 MEMB     51       POPE     H14S     HAL2     0.900000E-01   1.00800           0
      5601 MEMB     51       POPE     C215     CTL2    -0.180000       12.0110           0
      5602 MEMB     51       POPE     H15R     HAL2     0.900000E-01   1.00800           0
      5603 MEMB     51       POPE     H15S     HAL2     0.900000E-01   1.00800           0
      5604 MEMB     51       POPE     C216     CTL2    -0.180000       12.0110           0
      5605 MEMB     51       POPE     H16R     HAL2     0.900000E-01   1.00800           0
      5606 MEMB     51       POPE     H16S     HAL2     0.900000E-01   1.00800           0
      5607 MEMB     51       POPE     C217     CTL2    -0.180000       12.0110           0
      5608 MEMB     51       POPE     H17R     HAL2     0.900000E-01   1.00800           0
      5609 MEMB     51       POPE     H17S     HAL2     0.900000E-01   1.00800           0
      5610 MEMB     51       POPE     C218     CTL3    -0.270000       12.0110           0
      5611 MEMB     51       POPE     H18R     HAL3     0.900000E-01   1.00800           0
      5612 MEMB     51       POPE     H18S     HAL3     0.900000E-01   1.00800           0
      5613 MEMB     51       POPE     H18T     HAL3     0.900000E-01   1.00800           0
      5614 MEMB     51       POPE     C33      CTL2    -0.180000       12.0110           0
      5615 MEMB     51       POPE     H3X      HAL2     0.900000E-01   1.00800           0
      5616 MEMB     51       POPE     H3Y      HAL2     0.900000E-01   1.00800           0
      5617 MEMB     51       POPE     C34      CTL2    -0.180000       12.0110           0
      5618 MEMB     51       POPE     H4X      HAL2     0.900000E-01   1.00800           0
      5619 MEMB     51       POPE     H4Y      HAL2     0.900000E-01   1.00800           0
      5620 MEMB     51       POPE     C35      CTL2    -0.180000       12.0110           0
      5621 MEMB     51       POPE     H5X      HAL2     0.900000E-01   1.00800           0
      5622 MEMB     51       POPE     H5Y      HAL2     0.900000E-01   1.00800           0
      5623 MEMB     51       POPE     C36      CTL2    -0.180000       12.0110           0
      5624 MEMB     51       POPE     H6X      HAL2     0.900000E-01   1.00800           0
      5625 MEMB     51       POPE     H6Y      HAL2     0.900000E-01   1.00800           0
      5626 MEMB     51       POPE     C37      CTL2    -0.180000       12.0110           0
      5627 MEMB     51       POPE     H7X      HAL2     0.900000E-01   1.00800           0
      5628 MEMB     51       POPE     H7Y      HAL2     0.900000E-01   1.00800           0
      5629 MEMB     51       POPE     C38      CTL2    -0.180000       12.0110           0
      5630 MEMB     51       POPE     H8X      HAL2     0.900000E-01   1.00800           0
      5631 MEMB     51       POPE     H8Y      HAL2     0.900000E-01   1.00800           0
      5632 MEMB     51       POPE     C39      CTL2    -0.180000       12.0110           0
      5633 MEMB     51       POPE     H9X      HAL2     0.900000E-01   1.00800           0
      5634 MEMB     51       POPE     H9Y      HAL2     0.900000E-01   1.00800           0
      5635 MEMB     51       POPE     C310     CTL2    -0.180000       12.0110           0
      5636 MEMB     51       POPE     H10X     HAL2     0.900000E-01   1.00800           0
      5637 MEMB     51       POPE     H10Y     HAL2     0.900000E-01   1.00800           0
      5638 MEMB     51       POPE     C311     CTL2    -0.180000       12.0110           0
      5639 MEMB     51       POPE     H11X     HAL2     0.900000E-01   1.00800           0
      5640 MEMB     51       POPE     H11Y     HAL2     0.900000E-01   1.00800           0
      5641 MEMB     51       POPE     C312     CTL2    -0.180000       12.0110           0
      5642 MEMB     51       POPE     H12X     HAL2     0.900000E-01   1.00800           0
      5643 MEMB     51       POPE     H12Y     HAL2     0.900000E-01   1.00800           0
      5644 MEMB     51       POPE     C313     CTL2    -0.180000       12.0110           0
      5645 MEMB     51       POPE     H13X     HAL2     0.900000E-01   1.00800           0
      5646 MEMB     51       POPE     H13Y     HAL2     0.900000E-01   1.00800           0
      5647 MEMB     51       POPE     C314     CTL2    -0.180000       12.0110           0
      5648 MEMB     51       POPE     H14X     HAL2     0.900000E-01   1.00800           0
      5649 MEMB     51       POPE     H14Y     HAL2     0.900000E-01   1.00800           0
      5650 MEMB     51       POPE     C315     CTL2    -0.180000       12.0110           0
      5651 MEMB     51       POPE     H15X     HAL2     0.900000E-01   1.00800           0
      5652 MEMB     51       POPE     H15Y     HAL2     0.900000E-01   1.00800           0
      5653 MEMB     51       POPE     C316     CTL3    -0.270000       12.0110           0
      5654 MEMB     51       POPE     H16X     HAL3     0.900000E-01   1.00800           0
      5655 MEMB     51       POPE     H16Y     HAL3     0.900000E-01   1.00800           0
      5656 MEMB     51       POPE     H16Z     HAL3     0.900000E-01   1.00800           0
      5657 MEMB     52       POPE     N        NH3L    -0.300000       14.0070           0
      5658 MEMB     52       POPE     HN1      HCL      0.330000       1.00800           0
      5659 MEMB     52       POPE     HN2      HCL      0.330000       1.00800           0
      5660 MEMB     52       POPE     HN3      HCL      0.330000       1.00800           0
      5661 MEMB     52       POPE     C12      CTL2     0.130000       12.0110           0
      5662 MEMB     52       POPE     H12A     HAL2     0.900000E-01   1.00800           0
      5663 MEMB     52       POPE     H12B     HAL2     0.900000E-01   1.00800           0
      5664 MEMB     52       POPE     C11      CTL2    -0.800000E-01   12.0110           0
      5665 MEMB     52       POPE     H11A     HAL2     0.900000E-01   1.00800           0
      5666 MEMB     52       POPE     H11B     HAL2     0.900000E-01   1.00800           0
      5667 MEMB     52       POPE     P        PL       1.500000       30.9740           0
      5668 MEMB     52       POPE     O13      O2L     -0.780000       15.9994           0
      5669 MEMB     52       POPE     O14      O2L     -0.780000       15.9994           0
      5670 MEMB     52       POPE     O11      OSLP    -0.570000       15.9994           0
      5671 MEMB     52       POPE     O12      OSLP    -0.570000       15.9994           0
      5672 MEMB     52       POPE     C1       CTL2    -0.800000E-01   12.0110           0
      5673 MEMB     52       POPE     HA       HAL2     0.900000E-01   1.00800           0
      5674 MEMB     52       POPE     HB       HAL2     0.900000E-01   1.00800           0
      5675 MEMB     52       POPE     C2       CTL1     0.170000       12.0110           0
      5676 MEMB     52       POPE     HS       HAL1     0.900000E-01   1.00800           0
      5677 MEMB     52       POPE     O21      OSL     -0.490000       15.9994           0
      5678 MEMB     52       POPE     C21      CL       0.900000       12.0110           0
      5679 MEMB     52       POPE     O22      OBL     -0.630000       15.9994           0
      5680 MEMB     52       POPE     C22      CTL2    -0.220000       12.0110           0
      5681 MEMB     52       POPE     H2R      HAL2     0.900000E-01   1.00800           0
      5682 MEMB     52       POPE     H2S      HAL2     0.900000E-01   1.00800           0
      5683 MEMB     52       POPE     C3       CTL2     0.800000E-01   12.0110           0
      5684 MEMB     52       POPE     HX       HAL2     0.900000E-01   1.00800           0
      5685 MEMB     52       POPE     HY       HAL2     0.900000E-01   1.00800           0
      5686 MEMB     52       POPE     O31      OSL     -0.490000       15.9994           0
      5687 MEMB     52       POPE     C31      CL       0.900000       12.0110           0
      5688 MEMB     52       POPE     O32      OBL     -0.630000       15.9994           0
      5689 MEMB     52       POPE     C32      CTL2    -0.220000       12.0110           0
      5690 MEMB     52       POPE     H2X      HAL2     0.900000E-01   1.00800           0
      5691 MEMB     52       POPE     H2Y      HAL2     0.900000E-01   1.00800           0
      5692 MEMB     52       POPE     C23      CTL2    -0.180000       12.0110           0
      5693 MEMB     52       POPE     H3R      HAL2     0.900000E-01   1.00800           0
      5694 MEMB     52       POPE     H3S      HAL2     0.900000E-01   1.00800           0
      5695 MEMB     52       POPE     C24      CTL2    -0.180000       12.0110           0
      5696 MEMB     52       POPE     H4R      HAL2     0.900000E-01   1.00800           0
      5697 MEMB     52       POPE     H4S      HAL2     0.900000E-01   1.00800           0
      5698 MEMB     52       POPE     C25      CTL2    -0.180000       12.0110           0
      5699 MEMB     52       POPE     H5R      HAL2     0.900000E-01   1.00800           0
      5700 MEMB     52       POPE     H5S      HAL2     0.900000E-01   1.00800           0
      5701 MEMB     52       POPE     C26      CTL2    -0.180000       12.0110           0
      5702 MEMB     52       POPE     H6R      HAL2     0.900000E-01   1.00800           0
      5703 MEMB     52       POPE     H6S      HAL2     0.900000E-01   1.00800           0
      5704 MEMB     52       POPE     C27      CTL2    -0.180000       12.0110           0
      5705 MEMB     52       POPE     H7R      HAL2     0.900000E-01   1.00800           0
      5706 MEMB     52       POPE     H7S      HAL2     0.900000E-01   1.00800           0
      5707 MEMB     52       POPE     C28      CTL2    -0.180000       12.0110           0
      5708 MEMB     52       POPE     H8R      HAL2     0.900000E-01   1.00800           0
      5709 MEMB     52       POPE     H8S      HAL2     0.900000E-01   1.00800           0
      5710 MEMB     52       POPE     C29      CEL1    -0.150000       12.0110           0
      5711 MEMB     52       POPE     H91      HEL1     0.150000       1.00800           0
      5712 MEMB     52       POPE     C210     CEL1    -0.150000       12.0110           0
      5713 MEMB     52       POPE     H101     HEL1     0.150000       1.00800           0
      5714 MEMB     52       POPE     C211     CTL2    -0.180000       12.0110           0
      5715 MEMB     52       POPE     H11R     HAL2     0.900000E-01   1.00800           0
      5716 MEMB     52       POPE     H11S     HAL2     0.900000E-01   1.00800           0
      5717 MEMB     52       POPE     C212     CTL2    -0.180000       12.0110           0
      5718 MEMB     52       POPE     H12R     HAL2     0.900000E-01   1.00800           0
      5719 MEMB     52       POPE     H12S     HAL2     0.900000E-01   1.00800           0
      5720 MEMB     52       POPE     C213     CTL2    -0.180000       12.0110           0
      5721 MEMB     52       POPE     H13R     HAL2     0.900000E-01   1.00800           0
      5722 MEMB     52       POPE     H13S     HAL2     0.900000E-01   1.00800           0
      5723 MEMB     52       POPE     C214     CTL2    -0.180000       12.0110           0
      5724 MEMB     52       POPE     H14R     HAL2     0.900000E-01   1.00800           0
      5725 MEMB     52       POPE     H14S     HAL2     0.900000E-01   1.00800           0
      5726 MEMB     52       POPE     C215     CTL2    -0.180000       12.0110           0
      5727 MEMB     52       POPE     H15R     HAL2     0.900000E-01   1.00800           0
      5728 MEMB     52       POPE     H15S     HAL2     0.900000E-01   1.00800           0
      5729 MEMB     52       POPE     C216     CTL2    -0.180000       12.0110           0
      5730 MEMB     52       POPE     H16R     HAL2     0.900000E-01   1.00800           0
      5731 MEMB     52       POPE     H16S     HAL2     0.900000E-01   1.00800           0
      5732 MEMB     52       POPE     C217     CTL2    -0.180000       12.0110           0
      5733 MEMB     52       POPE     H17R     HAL2     0.900000E-01   1.00800           0
      5734 MEMB     52       POPE     H17S     HAL2     0.900000E-01   1.00800           0
      5735 MEMB     52       POPE     C218     CTL3    -0.270000       12.0110           0
      5736 MEMB     52       POPE     H18R     HAL3     0.900000E-01   1.00800           0
      5737 MEMB     52       POPE     H18S     HAL3     0.900000E-01   1.00800           0
      5738 MEMB     52       POPE     H18T     HAL3     0.900000E-01   1.00800           0
      5739 MEMB     52       POPE     C33      CTL2    -0.180000       12.0110           0
      5740 MEMB     52       POPE     H3X      HAL2     0.900000E-01   1.00800           0
      5741 MEMB     52       POPE     H3Y      HAL2     0.900000E-01   1.00800           0
      5742 MEMB     52       POPE     C34      CTL2    -0.180000       12.0110           0
      5743 MEMB     52       POPE     H4X      HAL2     0.900000E-01   1.00800           0
      5744 MEMB     52       POPE     H4Y      HAL2     0.900000E-01   1.00800           0
      5745 MEMB     52       POPE     C35      CTL2    -0.180000       12.0110           0
      5746 MEMB     52       POPE     H5X      HAL2     0.900000E-01   1.00800           0
      5747 MEMB     52       POPE     H5Y      HAL2     0.900000E-01   1.00800           0
      5748 MEMB     52       POPE     C36      CTL2    -0.180000       12.0110           0
      5749 MEMB     52       POPE     H6X      HAL2     0.900000E-01   1.00800           0
      5750 MEMB     52       POPE     H6Y      HAL2     0.900000E-01   1.00800           0
      5751 MEMB     52       POPE     C37      CTL2    -0.180000       12.0110           0
      5752 MEMB     52       POPE     H7X      HAL2     0.900000E-01   1.00800           0
      5753 MEMB     52       POPE     H7Y      HAL2     0.900000E-01   1.00800           0
      5754 MEMB     52       POPE     C38      CTL2    -0.180000       12.0110           0
      5755 MEMB     52       POPE     H8X      HAL2     0.900000E-01   1.00800           0
      5756 MEMB     52       POPE     H8Y      HAL2     0.900000E-01   1.00800           0
      5757 MEMB     52       POPE     C39      CTL2    -0.180000       12.0110           0
      5758 MEMB     52       POPE     H9X      HAL2     0.900000E-01   1.00800           0
      5759 MEMB     52       POPE     H9Y      HAL2     0.900000E-01   1.00800           0
      5760 MEMB     52       POPE     C310     CTL2    -0.180000       12.0110           0
      5761 MEMB     52       POPE     H10X     HAL2     0.900000E-01   1.00800           0
      5762 MEMB     52       POPE     H10Y     HAL2     0.900000E-01   1.00800           0
      5763 MEMB     52       POPE     C311     CTL2    -0.180000       12.0110           0
      5764 MEMB     52       POPE     H11X     HAL2     0.900000E-01   1.00800           0
      5765 MEMB     52       POPE     H11Y     HAL2     0.900000E-01   1.00800           0
      5766 MEMB     52       POPE     C312     CTL2    -0.180000       12.0110           0
      5767 MEMB     52       POPE     H12X     HAL2     0.900000E-01   1.00800           0
      5768 MEMB     52       POPE     H12Y     HAL2     0.900000E-01   1.00800           0
      5769 MEMB     52       POPE     C313     CTL2    -0.180000       12.0110           0
      5770 MEMB     52       POPE     H13X     HAL2     0.900000E-01   1.00800           0
      5771 MEMB     52       POPE     H13Y     HAL2     0.900000E-01   1.00800           0
      5772 MEMB     52       POPE     C314     CTL2    -0.180000       12.0110           0
      5773 MEMB     52       POPE     H14X     HAL2     0.900000E-01   1.00800           0
      5774 MEMB     52       POPE     H14Y     HAL2     0.900000E-01   1.00800           0
      5775 MEMB     52       POPE     C315     CTL2    -0.180000       12.0110           0
      5776 MEMB     52       POPE     H15X     HAL2     0.900000E-01   1.00800           0
      5777 MEMB     52       POPE     H15Y     HAL2     0.900000E-01   1.00800           0
      5778 MEMB     52       POPE     C316     CTL3    -0.270000       12.0110           0
      5779 MEMB     52       POPE     H16X     HAL3     0.900000E-01   1.00800           0
      5780 MEMB     52       POPE     H16Y     HAL3     0.900000E-01   1.00800           0
      5781 MEMB     52       POPE     H16Z     HAL3     0.900000E-01   1.00800           0
      5782 MEMB     53       PSM      N        NTL     -0.600000       14.0070           0
      5783 MEMB     53       PSM      C15      CTL5    -0.350000       12.0110           0
      5784 MEMB     53       PSM      H15A     HL       0.250000       1.00800           0
      5785 MEMB     53       PSM      H15B     HL       0.250000       1.00800           0
      5786 MEMB     53       PSM      H15C     HL       0.250000       1.00800           0
      5787 MEMB     53       PSM      C14      CTL5    -0.350000       12.0110           0
      5788 MEMB     53       PSM      H14A     HL       0.250000       1.00800           0
      5789 MEMB     53       PSM      H14B     HL       0.250000       1.00800           0
      5790 MEMB     53       PSM      H14C     HL       0.250000       1.00800           0
      5791 MEMB     53       PSM      C13      CTL5    -0.350000       12.0110           0
      5792 MEMB     53       PSM      H13A     HL       0.250000       1.00800           0
      5793 MEMB     53       PSM      H13B     HL       0.250000       1.00800           0
      5794 MEMB     53       PSM      H13C     HL       0.250000       1.00800           0
      5795 MEMB     53       PSM      C12      CTL2    -0.100000       12.0110           0
      5796 MEMB     53       PSM      H12A     HL       0.250000       1.00800           0
      5797 MEMB     53       PSM      H12B     HL       0.250000       1.00800           0
      5798 MEMB     53       PSM      C11      CTL2    -0.800000E-01   12.0110           0
      5799 MEMB     53       PSM      H11A     HAL2     0.900000E-01   1.00800           0
      5800 MEMB     53       PSM      H11B     HAL2     0.900000E-01   1.00800           0
      5801 MEMB     53       PSM      P        PL       1.500000       30.9740           0
      5802 MEMB     53       PSM      O13      O2L     -0.780000       15.9994           0
      5803 MEMB     53       PSM      O14      O2L     -0.780000       15.9994           0
      5804 MEMB     53       PSM      O11      OSLP    -0.570000       15.9994           0
      5805 MEMB     53       PSM      O12      OSLP    -0.570000       15.9994           0
      5806 MEMB     53       PSM      C1S      CTL2    -0.800000E-01   12.0110           0
      5807 MEMB     53       PSM      H1S      HAL2     0.900000E-01   1.00800           0
      5808 MEMB     53       PSM      H1T      HAL2     0.900000E-01   1.00800           0
      5809 MEMB     53       PSM      NF       NHL     -0.700000       14.0070           0
      5810 MEMB     53       PSM      HNF      H        0.350000       1.00800           0
      5811 MEMB     53       PSM      C2S      CTL1     0.300000       12.0110           0
      5812 MEMB     53       PSM      H2S      HAL1     0.500000E-01   1.00800           0
      5813 MEMB     53       PSM      C3S      CTO1     0.500000       12.0110           0
      5814 MEMB     53       PSM      H3S      HAL1    -0.110000       1.00800           0
      5815 MEMB     53       PSM      O3       OHL     -0.690000       15.9994           0
      5816 MEMB     53       PSM      HO3      HOL      0.300000       1.00800           0
      5817 MEMB     53       PSM      C4S      CEL3    -0.150000       12.0110           0
      5818 MEMB     53       PSM      H4S      HEL1     0.150000       1.00800           0
      5819 MEMB     53       PSM      C5S      CEL3    -0.150000       12.0110           0
      5820 MEMB     53       PSM      H5S      HEL1     0.150000       1.00800           0
      5821 MEMB     53       PSM      C6S      CTL2    -0.180000       12.0110           0
      5822 MEMB     53       PSM      H6S      HAL2     0.900000E-01   1.00800           0
      5823 MEMB     53       PSM      H6T      HAL2     0.900000E-01   1.00800           0
      5824 MEMB     53       PSM      C7S      CTL2    -0.180000       12.0110           0
      5825 MEMB     53       PSM      H7S      HAL2     0.900000E-01   1.00800           0
      5826 MEMB     53       PSM      H7T      HAL2     0.900000E-01   1.00800           0
      5827 MEMB     53       PSM      C8S      CTL2    -0.180000       12.0110           0
      5828 MEMB     53       PSM      H8S      HAL2     0.900000E-01   1.00800           0
      5829 MEMB     53       PSM      H8T      HAL2     0.900000E-01   1.00800           0
      5830 MEMB     53       PSM      C9S      CTL2    -0.180000       12.0110           0
      5831 MEMB     53       PSM      H9S      HAL2     0.900000E-01   1.00800           0
      5832 MEMB     53       PSM      H9T      HAL2     0.900000E-01   1.00800           0
      5833 MEMB     53       PSM      C10S     CTL2    -0.180000       12.0110           0
      5834 MEMB     53       PSM      H10S     HAL2     0.900000E-01   1.00800           0
      5835 MEMB     53       PSM      H10T     HAL2     0.900000E-01   1.00800           0
      5836 MEMB     53       PSM      C11S     CTL2    -0.180000       12.0110           0
      5837 MEMB     53       PSM      H11S     HAL2     0.900000E-01   1.00800           0
      5838 MEMB     53       PSM      H11T     HAL2     0.900000E-01   1.00800           0
      5839 MEMB     53       PSM      C12S     CTL2    -0.180000       12.0110           0
      5840 MEMB     53       PSM      H12S     HAL2     0.900000E-01   1.00800           0
      5841 MEMB     53       PSM      H12T     HAL2     0.900000E-01   1.00800           0
      5842 MEMB     53       PSM      C13S     CTL2    -0.180000       12.0110           0
      5843 MEMB     53       PSM      H13S     HAL2     0.900000E-01   1.00800           0
      5844 MEMB     53       PSM      H13T     HAL2     0.900000E-01   1.00800           0
      5845 MEMB     53       PSM      C14S     CTL2    -0.180000       12.0110           0
      5846 MEMB     53       PSM      H14S     HAL2     0.900000E-01   1.00800           0
      5847 MEMB     53       PSM      H14T     HAL2     0.900000E-01   1.00800           0
      5848 MEMB     53       PSM      C15S     CTL2    -0.180000       12.0110           0
      5849 MEMB     53       PSM      H15S     HAL2     0.900000E-01   1.00800           0
      5850 MEMB     53       PSM      H15T     HAL2     0.900000E-01   1.00800           0
      5851 MEMB     53       PSM      C16S     CTL2    -0.180000       12.0110           0
      5852 MEMB     53       PSM      H16S     HAL2     0.900000E-01   1.00800           0
      5853 MEMB     53       PSM      H16T     HAL2     0.900000E-01   1.00800           0
      5854 MEMB     53       PSM      C17S     CTL2    -0.180000       12.0110           0
      5855 MEMB     53       PSM      H17S     HAL2     0.900000E-01   1.00800           0
      5856 MEMB     53       PSM      H17T     HAL2     0.900000E-01   1.00800           0
      5857 MEMB     53       PSM      C18S     CTL3    -0.270000       12.0110           0
      5858 MEMB     53       PSM      H18S     HAL3     0.900000E-01   1.00800           0
      5859 MEMB     53       PSM      H18T     HAL3     0.900000E-01   1.00800           0
      5860 MEMB     53       PSM      H18U     HAL3     0.900000E-01   1.00800           0
      5861 MEMB     53       PSM      C1F      C        0.550000       12.0110           0
      5862 MEMB     53       PSM      OF       O       -0.600000       15.9994           0
      5863 MEMB     53       PSM      C2F      CTL2    -0.700000E-01   12.0110           0
      5864 MEMB     53       PSM      H2F      HAL2     0.600000E-01   1.00800           0
      5865 MEMB     53       PSM      H2G      HAL2     0.600000E-01   1.00800           0
      5866 MEMB     53       PSM      C3F      CTL2    -0.180000       12.0110           0
      5867 MEMB     53       PSM      H3F      HAL2     0.900000E-01   1.00800           0
      5868 MEMB     53       PSM      H3G      HAL2     0.900000E-01   1.00800           0
      5869 MEMB     53       PSM      C4F      CTL2    -0.180000       12.0110           0
      5870 MEMB     53       PSM      H4F      HAL2     0.900000E-01   1.00800           0
      5871 MEMB     53       PSM      H4G      HAL2     0.900000E-01   1.00800           0
      5872 MEMB     53       PSM      C5F      CTL2    -0.180000       12.0110           0
      5873 MEMB     53       PSM      H5F      HAL2     0.900000E-01   1.00800           0
      5874 MEMB     53       PSM      H5G      HAL2     0.900000E-01   1.00800           0
      5875 MEMB     53       PSM      C6F      CTL2    -0.180000       12.0110           0
      5876 MEMB     53       PSM      H6F      HAL2     0.900000E-01   1.00800           0
      5877 MEMB     53       PSM      H6G      HAL2     0.900000E-01   1.00800           0
      5878 MEMB     53       PSM      C7F      CTL2    -0.180000       12.0110           0
      5879 MEMB     53       PSM      H7F      HAL2     0.900000E-01   1.00800           0
      5880 MEMB     53       PSM      H7G      HAL2     0.900000E-01   1.00800           0
      5881 MEMB     53       PSM      C8F      CTL2    -0.180000       12.0110           0
      5882 MEMB     53       PSM      H8F      HAL2     0.900000E-01   1.00800           0
      5883 MEMB     53       PSM      H8G      HAL2     0.900000E-01   1.00800           0
      5884 MEMB     53       PSM      C9F      CTL2    -0.180000       12.0110           0
      5885 MEMB     53       PSM      H9F      HAL2     0.900000E-01   1.00800           0
      5886 MEMB     53       PSM      H9G      HAL2     0.900000E-01   1.00800           0
      5887 MEMB     53       PSM      C10F     CTL2    -0.180000       12.0110           0
      5888 MEMB     53       PSM      H10F     HAL2     0.900000E-01   1.00800           0
      5889 MEMB     53       PSM      H10G     HAL2     0.900000E-01   1.00800           0
      5890 MEMB     53       PSM      C11F     CTL2    -0.180000       12.0110           0
      5891 MEMB     53       PSM      H11F     HAL2     0.900000E-01   1.00800           0
      5892 MEMB     53       PSM      H11G     HAL2     0.900000E-01   1.00800           0
      5893 MEMB     53       PSM      C12F     CTL2    -0.180000       12.0110           0
      5894 MEMB     53       PSM      H12F     HAL2     0.900000E-01   1.00800           0
      5895 MEMB     53       PSM      H12G     HAL2     0.900000E-01   1.00800           0
      5896 MEMB     53       PSM      C13F     CTL2    -0.180000       12.0110           0
      5897 MEMB     53       PSM      H13F     HAL2     0.900000E-01   1.00800           0
      5898 MEMB     53       PSM      H13G     HAL2     0.900000E-01   1.00800           0
      5899 MEMB     53       PSM      C14F     CTL2    -0.180000       12.0110           0
      5900 MEMB     53       PSM      H14F     HAL2     0.900000E-01   1.00800           0
      5901 MEMB     53       PSM      H14G     HAL2     0.900000E-01   1.00800           0
      5902 MEMB     53       PSM      C15F     CTL2    -0.180000       12.0110           0
      5903 MEMB     53       PSM      H15F     HAL2     0.900000E-01   1.00800           0
      5904 MEMB     53       PSM      H15G     HAL2     0.900000E-01   1.00800           0
      5905 MEMB     53       PSM      C16F     CTL3    -0.270000       12.0110           0
      5906 MEMB     53       PSM      H16F     HAL3     0.900000E-01   1.00800           0
      5907 MEMB     53       PSM      H16G     HAL3     0.900000E-01   1.00800           0
      5908 MEMB     53       PSM      H16H     HAL3     0.900000E-01   1.00800           0
      5909 MEMB     54       POPS     N        NH3L    -0.300000       14.0070           0
      5910 MEMB     54       POPS     HN1      HCL      0.330000       1.00800           0
      5911 MEMB     54       POPS     HN2      HCL      0.330000       1.00800           0
      5912 MEMB     54       POPS     HN3      HCL      0.330000       1.00800           0
      5913 MEMB     54       POPS     C12      CTL1     0.210000       12.0110           0
      5914 MEMB     54       POPS     H12A     HBL      0.100000       1.00800           0
      5915 MEMB     54       POPS     C13      CCL      0.340000       12.0110           0
      5916 MEMB     54       POPS     O13A     OCL     -0.670000       15.9994           0
      5917 MEMB     54       POPS     O13B     OCL     -0.670000       15.9994           0
      5918 MEMB     54       POPS     C11      CTL2    -0.800000E-01   12.0110           0
      5919 MEMB     54       POPS     H11A     HAL2     0.900000E-01   1.00800           0
      5920 MEMB     54       POPS     H11B     HAL2     0.900000E-01   1.00800           0
      5921 MEMB     54       POPS     P        PL       1.500000       30.9740           0
      5922 MEMB     54       POPS     O13      O2L     -0.780000       15.9994           0
      5923 MEMB     54       POPS     O14      O2L     -0.780000       15.9994           0
      5924 MEMB     54       POPS     O12      OSLP    -0.570000       15.9994           0
      5925 MEMB     54       POPS     O11      OSLP    -0.570000       15.9994           0
      5926 MEMB     54       POPS     C1       CTL2    -0.800000E-01   12.0110           0
      5927 MEMB     54       POPS     HA       HAL2     0.900000E-01   1.00800           0
      5928 MEMB     54       POPS     HB       HAL2     0.900000E-01   1.00800           0
      5929 MEMB     54       POPS     C2       CTL1     0.170000       12.0110           0
      5930 MEMB     54       POPS     HS       HAL1     0.900000E-01   1.00800           0
      5931 MEMB     54       POPS     O21      OSL     -0.490000       15.9994           0
      5932 MEMB     54       POPS     C21      CL       0.900000       12.0110           0
      5933 MEMB     54       POPS     O22      OBL     -0.630000       15.9994           0
      5934 MEMB     54       POPS     C22      CTL2    -0.220000       12.0110           0
      5935 MEMB     54       POPS     H2R      HAL2     0.900000E-01   1.00800           0
      5936 MEMB     54       POPS     H2S      HAL2     0.900000E-01   1.00800           0
      5937 MEMB     54       POPS     C3       CTL2     0.800000E-01   12.0110           0
      5938 MEMB     54       POPS     HX       HAL2     0.900000E-01   1.00800           0
      5939 MEMB     54       POPS     HY       HAL2     0.900000E-01   1.00800           0
      5940 MEMB     54       POPS     O31      OSL     -0.490000       15.9994           0
      5941 MEMB     54       POPS     C31      CL       0.900000       12.0110           0
      5942 MEMB     54       POPS     O32      OBL     -0.630000       15.9994           0
      5943 MEMB     54       POPS     C32      CTL2    -0.220000       12.0110           0
      5944 MEMB     54       POPS     H2X      HAL2     0.900000E-01   1.00800           0
      5945 MEMB     54       POPS     H2Y      HAL2     0.900000E-01   1.00800           0
      5946 MEMB     54       POPS     C23      CTL2    -0.180000       12.0110           0
      5947 MEMB     54       POPS     H3R      HAL2     0.900000E-01   1.00800           0
      5948 MEMB     54       POPS     H3S      HAL2     0.900000E-01   1.00800           0
      5949 MEMB     54       POPS     C24      CTL2    -0.180000       12.0110           0
      5950 MEMB     54       POPS     H4R      HAL2     0.900000E-01   1.00800           0
      5951 MEMB     54       POPS     H4S      HAL2     0.900000E-01   1.00800           0
      5952 MEMB     54       POPS     C25      CTL2    -0.180000       12.0110           0
      5953 MEMB     54       POPS     H5R      HAL2     0.900000E-01   1.00800           0
      5954 MEMB     54       POPS     H5S      HAL2     0.900000E-01   1.00800           0
      5955 MEMB     54       POPS     C26      CTL2    -0.180000       12.0110           0
      5956 MEMB     54       POPS     H6R      HAL2     0.900000E-01   1.00800           0
      5957 MEMB     54       POPS     H6S      HAL2     0.900000E-01   1.00800           0
      5958 MEMB     54       POPS     C27      CTL2    -0.180000       12.0110           0
      5959 MEMB     54       POPS     H7R      HAL2     0.900000E-01   1.00800           0
      5960 MEMB     54       POPS     H7S      HAL2     0.900000E-01   1.00800           0
      5961 MEMB     54       POPS     C28      CTL2    -0.180000       12.0110           0
      5962 MEMB     54       POPS     H8R      HAL2     0.900000E-01   1.00800           0
      5963 MEMB     54       POPS     H8S      HAL2     0.900000E-01   1.00800           0
      5964 MEMB     54       POPS     C29      CEL1    -0.150000       12.0110           0
      5965 MEMB     54       POPS     H91      HEL1     0.150000       1.00800           0
      5966 MEMB     54       POPS     C210     CEL1    -0.150000       12.0110           0
      5967 MEMB     54       POPS     H101     HEL1     0.150000       1.00800           0
      5968 MEMB     54       POPS     C211     CTL2    -0.180000       12.0110           0
      5969 MEMB     54       POPS     H11R     HAL2     0.900000E-01   1.00800           0
      5970 MEMB     54       POPS     H11S     HAL2     0.900000E-01   1.00800           0
      5971 MEMB     54       POPS     C212     CTL2    -0.180000       12.0110           0
      5972 MEMB     54       POPS     H12R     HAL2     0.900000E-01   1.00800           0
      5973 MEMB     54       POPS     H12S     HAL2     0.900000E-01   1.00800           0
      5974 MEMB     54       POPS     C213     CTL2    -0.180000       12.0110           0
      5975 MEMB     54       POPS     H13R     HAL2     0.900000E-01   1.00800           0
      5976 MEMB     54       POPS     H13S     HAL2     0.900000E-01   1.00800           0
      5977 MEMB     54       POPS     C214     CTL2    -0.180000       12.0110           0
      5978 MEMB     54       POPS     H14R     HAL2     0.900000E-01   1.00800           0
      5979 MEMB     54       POPS     H14S     HAL2     0.900000E-01   1.00800           0
      5980 MEMB     54       POPS     C215     CTL2    -0.180000       12.0110           0
      5981 MEMB     54       POPS     H15R     HAL2     0.900000E-01   1.00800           0
      5982 MEMB     54       POPS     H15S     HAL2     0.900000E-01   1.00800           0
      5983 MEMB     54       POPS     C216     CTL2    -0.180000       12.0110           0
      5984 MEMB     54       POPS     H16R     HAL2     0.900000E-01   1.00800           0
      5985 MEMB     54       POPS     H16S     HAL2     0.900000E-01   1.00800           0
      5986 MEMB     54       POPS     C217     CTL2    -0.180000       12.0110           0
      5987 MEMB     54       POPS     H17R     HAL2     0.900000E-01   1.00800           0
      5988 MEMB     54       POPS     H17S     HAL2     0.900000E-01   1.00800           0
      5989 MEMB     54       POPS     C218     CTL3    -0.270000       12.0110           0
      5990 MEMB     54       POPS     H18R     HAL3     0.900000E-01   1.00800           0
      5991 MEMB     54       POPS     H18S     HAL3     0.900000E-01   1.00800           0
      5992 MEMB     54       POPS     H18T     HAL3     0.900000E-01   1.00800           0
      5993 MEMB     54       POPS     C33      CTL2    -0.180000       12.0110           0
      5994 MEMB     54       POPS     H3X      HAL2     0.900000E-01   1.00800           0
      5995 MEMB     54       POPS     H3Y      HAL2     0.900000E-01   1.00800           0
      5996 MEMB     54       POPS     C34      CTL2    -0.180000       12.0110           0
      5997 MEMB     54       POPS     H4X      HAL2     0.900000E-01   1.00800           0
      5998 MEMB     54       POPS     H4Y      HAL2     0.900000E-01   1.00800           0
      5999 MEMB     54       POPS     C35      CTL2    -0.180000       12.0110           0
      6000 MEMB     54       POPS     H5X      HAL2     0.900000E-01   1.00800           0
      6001 MEMB     54       POPS     H5Y      HAL2     0.900000E-01   1.00800           0
      6002 MEMB     54       POPS     C36      CTL2    -0.180000       12.0110           0
      6003 MEMB     54       POPS     H6X      HAL2     0.900000E-01   1.00800           0
      6004 MEMB     54       POPS     H6Y      HAL2     0.900000E-01   1.00800           0
      6005 MEMB     54       POPS     C37      CTL2    -0.180000       12.0110           0
      6006 MEMB     54       POPS     H7X      HAL2     0.900000E-01   1.00800           0
      6007 MEMB     54       POPS     H7Y      HAL2     0.900000E-01   1.00800           0
      6008 MEMB     54       POPS     C38      CTL2    -0.180000       12.0110           0
      6009 MEMB     54       POPS     H8X      HAL2     0.900000E-01   1.00800           0
      6010 MEMB     54       POPS     H8Y      HAL2     0.900000E-01   1.00800           0
      6011 MEMB     54       POPS     C39      CTL2    -0.180000       12.0110           0
      6012 MEMB     54       POPS     H9X      HAL2     0.900000E-01   1.00800           0
      6013 MEMB     54       POPS     H9Y      HAL2     0.900000E-01   1.00800           0
      6014 MEMB     54       POPS     C310     CTL2    -0.180000       12.0110           0
      6015 MEMB     54       POPS     H10X     HAL2     0.900000E-01   1.00800           0
      6016 MEMB     54       POPS     H10Y     HAL2     0.900000E-01   1.00800           0
      6017 MEMB     54       POPS     C311     CTL2    -0.180000       12.0110           0
      6018 MEMB     54       POPS     H11X     HAL2     0.900000E-01   1.00800           0
      6019 MEMB     54       POPS     H11Y     HAL2     0.900000E-01   1.00800           0
      6020 MEMB     54       POPS     C312     CTL2    -0.180000       12.0110           0
      6021 MEMB     54       POPS     H12X     HAL2     0.900000E-01   1.00800           0
      6022 MEMB     54       POPS     H12Y     HAL2     0.900000E-01   1.00800           0
      6023 MEMB     54       POPS     C313     CTL2    -0.180000       12.0110           0
      6024 MEMB     54       POPS     H13X     HAL2     0.900000E-01   1.00800           0
      6025 MEMB     54       POPS     H13Y     HAL2     0.900000E-01   1.00800           0
      6026 MEMB     54       POPS     C314     CTL2    -0.180000       12.0110           0
      6027 MEMB     54       POPS     H14X     HAL2     0.900000E-01   1.00800           0
      6028 MEMB     54       POPS     H14Y     HAL2     0.900000E-01   1.00800           0
      6029 MEMB     54       POPS     C315     CTL2    -0.180000       12.0110           0
      6030 MEMB     54       POPS     H15X     HAL2     0.900000E-01   1.00800           0
      6031 MEMB     54       POPS     H15Y     HAL2     0.900000E-01   1.00800           0
      6032 MEMB     54       POPS     C316     CTL3    -0.270000       12.0110           0
      6033 MEMB     54       POPS     H16X     HAL3     0.900000E-01   1.00800           0
      6034 MEMB     54       POPS     H16Y     HAL3     0.900000E-01   1.00800           0
      6035 MEMB     54       POPS     H16Z     HAL3     0.900000E-01   1.00800           0
      6036 MEMB     55       POPE     N        NH3L    -0.300000       14.0070           0
      6037 MEMB     55       POPE     HN1      HCL      0.330000       1.00800           0
      6038 MEMB     55       POPE     HN2      HCL      0.330000       1.00800           0
      6039 MEMB     55       POPE     HN3      HCL      0.330000       1.00800           0
      6040 MEMB     55       POPE     C12      CTL2     0.130000       12.0110           0
      6041 MEMB     55       POPE     H12A     HAL2     0.900000E-01   1.00800           0
      6042 MEMB     55       POPE     H12B     HAL2     0.900000E-01   1.00800           0
      6043 MEMB     55       POPE     C11      CTL2    -0.800000E-01   12.0110           0
      6044 MEMB     55       POPE     H11A     HAL2     0.900000E-01   1.00800           0
      6045 MEMB     55       POPE     H11B     HAL2     0.900000E-01   1.00800           0
      6046 MEMB     55       POPE     P        PL       1.500000       30.9740           0
      6047 MEMB     55       POPE     O13      O2L     -0.780000       15.9994           0
      6048 MEMB     55       POPE     O14      O2L     -0.780000       15.9994           0
      6049 MEMB     55       POPE     O11      OSLP    -0.570000       15.9994           0
      6050 MEMB     55       POPE     O12      OSLP    -0.570000       15.9994           0
      6051 MEMB     55       POPE     C1       CTL2    -0.800000E-01   12.0110           0
      6052 MEMB     55       POPE     HA       HAL2     0.900000E-01   1.00800           0
      6053 MEMB     55       POPE     HB       HAL2     0.900000E-01   1.00800           0
      6054 MEMB     55       POPE     C2       CTL1     0.170000       12.0110           0
      6055 MEMB     55       POPE     HS       HAL1     0.900000E-01   1.00800           0
      6056 MEMB     55       POPE     O21      OSL     -0.490000       15.9994           0
      6057 MEMB     55       POPE     C21      CL       0.900000       12.0110           0
      6058 MEMB     55       POPE     O22      OBL     -0.630000       15.9994           0
      6059 MEMB     55       POPE     C22      CTL2    -0.220000       12.0110           0
      6060 MEMB     55       POPE     H2R      HAL2     0.900000E-01   1.00800           0
      6061 MEMB     55       POPE     H2S      HAL2     0.900000E-01   1.00800           0
      6062 MEMB     55       POPE     C3       CTL2     0.800000E-01   12.0110           0
      6063 MEMB     55       POPE     HX       HAL2     0.900000E-01   1.00800           0
      6064 MEMB     55       POPE     HY       HAL2     0.900000E-01   1.00800           0
      6065 MEMB     55       POPE     O31      OSL     -0.490000       15.9994           0
      6066 MEMB     55       POPE     C31      CL       0.900000       12.0110           0
      6067 MEMB     55       POPE     O32      OBL     -0.630000       15.9994           0
      6068 MEMB     55       POPE     C32      CTL2    -0.220000       12.0110           0
      6069 MEMB     55       POPE     H2X      HAL2     0.900000E-01   1.00800           0
      6070 MEMB     55       POPE     H2Y      HAL2     0.900000E-01   1.00800           0
      6071 MEMB     55       POPE     C23      CTL2    -0.180000       12.0110           0
      6072 MEMB     55       POPE     H3R      HAL2     0.900000E-01   1.00800           0
      6073 MEMB     55       POPE     H3S      HAL2     0.900000E-01   1.00800           0
      6074 MEMB     55       POPE     C24      CTL2    -0.180000       12.0110           0
      6075 MEMB     55       POPE     H4R      HAL2     0.900000E-01   1.00800           0
      6076 MEMB     55       POPE     H4S      HAL2     0.900000E-01   1.00800           0
      6077 MEMB     55       POPE     C25      CTL2    -0.180000       12.0110           0
      6078 MEMB     55       POPE     H5R      HAL2     0.900000E-01   1.00800           0
      6079 MEMB     55       POPE     H5S      HAL2     0.900000E-01   1.00800           0
      6080 MEMB     55       POPE     C26      CTL2    -0.180000       12.0110           0
      6081 MEMB     55       POPE     H6R      HAL2     0.900000E-01   1.00800           0
      6082 MEMB     55       POPE     H6S      HAL2     0.900000E-01   1.00800           0
      6083 MEMB     55       POPE     C27      CTL2    -0.180000       12.0110           0
      6084 MEMB     55       POPE     H7R      HAL2     0.900000E-01   1.00800           0
      6085 MEMB     55       POPE     H7S      HAL2     0.900000E-01   1.00800           0
      6086 MEMB     55       POPE     C28      CTL2    -0.180000       12.0110           0
      6087 MEMB     55       POPE     H8R      HAL2     0.900000E-01   1.00800           0
      6088 MEMB     55       POPE     H8S      HAL2     0.900000E-01   1.00800           0
      6089 MEMB     55       POPE     C29      CEL1    -0.150000       12.0110           0
      6090 MEMB     55       POPE     H91      HEL1     0.150000       1.00800           0
      6091 MEMB     55       POPE     C210     CEL1    -0.150000       12.0110           0
      6092 MEMB     55       POPE     H101     HEL1     0.150000       1.00800           0
      6093 MEMB     55       POPE     C211     CTL2    -0.180000       12.0110           0
      6094 MEMB     55       POPE     H11R     HAL2     0.900000E-01   1.00800           0
      6095 MEMB     55       POPE     H11S     HAL2     0.900000E-01   1.00800           0
      6096 MEMB     55       POPE     C212     CTL2    -0.180000       12.0110           0
      6097 MEMB     55       POPE     H12R     HAL2     0.900000E-01   1.00800           0
      6098 MEMB     55       POPE     H12S     HAL2     0.900000E-01   1.00800           0
      6099 MEMB     55       POPE     C213     CTL2    -0.180000       12.0110           0
      6100 MEMB     55       POPE     H13R     HAL2     0.900000E-01   1.00800           0
      6101 MEMB     55       POPE     H13S     HAL2     0.900000E-01   1.00800           0
      6102 MEMB     55       POPE     C214     CTL2    -0.180000       12.0110           0
      6103 MEMB     55       POPE     H14R     HAL2     0.900000E-01   1.00800           0
      6104 MEMB     55       POPE     H14S     HAL2     0.900000E-01   1.00800           0
      6105 MEMB     55       POPE     C215     CTL2    -0.180000       12.0110           0
      6106 MEMB     55       POPE     H15R     HAL2     0.900000E-01   1.00800           0
      6107 MEMB     55       POPE     H15S     HAL2     0.900000E-01   1.00800           0
      6108 MEMB     55       POPE     C216     CTL2    -0.180000       12.0110           0
      6109 MEMB     55       POPE     H16R     HAL2     0.900000E-01   1.00800           0
      6110 MEMB     55       POPE     H16S     HAL2     0.900000E-01   1.00800           0
      6111 MEMB     55       POPE     C217     CTL2    -0.180000       12.0110           0
      6112 MEMB     55       POPE     H17R     HAL2     0.900000E-01   1.00800           0
      6113 MEMB     55       POPE     H17S     HAL2     0.900000E-01   1.00800           0
      6114 MEMB     55       POPE     C218     CTL3    -0.270000       12.0110           0
      6115 MEMB     55       POPE     H18R     HAL3     0.900000E-01   1.00800           0
      6116 MEMB     55       POPE     H18S     HAL3     0.900000E-01   1.00800           0
      6117 MEMB     55       POPE     H18T     HAL3     0.900000E-01   1.00800           0
      6118 MEMB     55       POPE     C33      CTL2    -0.180000       12.0110           0
      6119 MEMB     55       POPE     H3X      HAL2     0.900000E-01   1.00800           0
      6120 MEMB     55       POPE     H3Y      HAL2     0.900000E-01   1.00800           0
      6121 MEMB     55       POPE     C34      CTL2    -0.180000       12.0110           0
      6122 MEMB     55       POPE     H4X      HAL2     0.900000E-01   1.00800           0
      6123 MEMB     55       POPE     H4Y      HAL2     0.900000E-01   1.00800           0
      6124 MEMB     55       POPE     C35      CTL2    -0.180000       12.0110           0
      6125 MEMB     55       POPE     H5X      HAL2     0.900000E-01   1.00800           0
      6126 MEMB     55       POPE     H5Y      HAL2     0.900000E-01   1.00800           0
      6127 MEMB     55       POPE     C36      CTL2    -0.180000       12.0110           0
      6128 MEMB     55       POPE     H6X      HAL2     0.900000E-01   1.00800           0
      6129 MEMB     55       POPE     H6Y      HAL2     0.900000E-01   1.00800           0
      6130 MEMB     55       POPE     C37      CTL2    -0.180000       12.0110           0
      6131 MEMB     55       POPE     H7X      HAL2     0.900000E-01   1.00800           0
      6132 MEMB     55       POPE     H7Y      HAL2     0.900000E-01   1.00800           0
      6133 MEMB     55       POPE     C38      CTL2    -0.180000       12.0110           0
      6134 MEMB     55       POPE     H8X      HAL2     0.900000E-01   1.00800           0
      6135 MEMB     55       POPE     H8Y      HAL2     0.900000E-01   1.00800           0
      6136 MEMB     55       POPE     C39      CTL2    -0.180000       12.0110           0
      6137 MEMB     55       POPE     H9X      HAL2     0.900000E-01   1.00800           0
      6138 MEMB     55       POPE     H9Y      HAL2     0.900000E-01   1.00800           0
      6139 MEMB     55       POPE     C310     CTL2    -0.180000       12.0110           0
      6140 MEMB     55       POPE     H10X     HAL2     0.900000E-01   1.00800           0
      6141 MEMB     55       POPE     H10Y     HAL2     0.900000E-01   1.00800           0
      6142 MEMB     55       POPE     C311     CTL2    -0.180000       12.0110           0
      6143 MEMB     55       POPE     H11X     HAL2     0.900000E-01   1.00800           0
      6144 MEMB     55       POPE     H11Y     HAL2     0.900000E-01   1.00800           0
      6145 MEMB     55       POPE     C312     CTL2    -0.180000       12.0110           0
      6146 MEMB     55       POPE     H12X     HAL2     0.900000E-01   1.00800           0
      6147 MEMB     55       POPE     H12Y     HAL2     0.900000E-01   1.00800           0
      6148 MEMB     55       POPE     C313     CTL2    -0.180000       12.0110           0
      6149 MEMB     55       POPE     H13X     HAL2     0.900000E-01   1.00800           0
      6150 MEMB     55       POPE     H13Y     HAL2     0.900000E-01   1.00800           0
      6151 MEMB     55       POPE     C314     CTL2    -0.180000       12.0110           0
      6152 MEMB     55       POPE     H14X     HAL2     0.900000E-01   1.00800           0
      6153 MEMB     55       POPE     H14Y     HAL2     0.900000E-01   1.00800           0
      6154 MEMB     55       POPE     C315     CTL2    -0.180000       12.0110           0
      6155 MEMB     55       POPE     H15X     HAL2     0.900000E-01   1.00800           0
      6156 MEMB     55       POPE     H15Y     HAL2     0.900000E-01   1.00800           0
      6157 MEMB     55       POPE     C316     CTL3    -0.270000       12.0110           0
      6158 MEMB     55       POPE     H16X     HAL3     0.900000E-01   1.00800           0
      6159 MEMB     55       POPE     H16Y     HAL3     0.900000E-01   1.00800           0
      6160 MEMB     55       POPE     H16Z     HAL3     0.900000E-01   1.00800           0
      6161 MEMB     56       POPC     N        NTL     -0.600000       14.0070           0
      6162 MEMB     56       POPC     C12      CTL2    -0.100000       12.0110           0
      6163 MEMB     56       POPC     H12A     HL       0.250000       1.00800           0
      6164 MEMB     56       POPC     H12B     HL       0.250000       1.00800           0
      6165 MEMB     56       POPC     C13      CTL5    -0.350000       12.0110           0
      6166 MEMB     56       POPC     H13A     HL       0.250000       1.00800           0
      6167 MEMB     56       POPC     H13B     HL       0.250000       1.00800           0
      6168 MEMB     56       POPC     H13C     HL       0.250000       1.00800           0
      6169 MEMB     56       POPC     C14      CTL5    -0.350000       12.0110           0
      6170 MEMB     56       POPC     H14A     HL       0.250000       1.00800           0
      6171 MEMB     56       POPC     H14B     HL       0.250000       1.00800           0
      6172 MEMB     56       POPC     H14C     HL       0.250000       1.00800           0
      6173 MEMB     56       POPC     C15      CTL5    -0.350000       12.0110           0
      6174 MEMB     56       POPC     H15A     HL       0.250000       1.00800           0
      6175 MEMB     56       POPC     H15B     HL       0.250000       1.00800           0
      6176 MEMB     56       POPC     H15C     HL       0.250000       1.00800           0
      6177 MEMB     56       POPC     C11      CTL2    -0.800000E-01   12.0110           0
      6178 MEMB     56       POPC     H11A     HAL2     0.900000E-01   1.00800           0
      6179 MEMB     56       POPC     H11B     HAL2     0.900000E-01   1.00800           0
      6180 MEMB     56       POPC     P        PL       1.500000       30.9740           0
      6181 MEMB     56       POPC     O13      O2L     -0.780000       15.9994           0
      6182 MEMB     56       POPC     O14      O2L     -0.780000       15.9994           0
      6183 MEMB     56       POPC     O12      OSLP    -0.570000       15.9994           0
      6184 MEMB     56       POPC     O11      OSLP    -0.570000       15.9994           0
      6185 MEMB     56       POPC     C1       CTL2    -0.800000E-01   12.0110           0
      6186 MEMB     56       POPC     HA       HAL2     0.900000E-01   1.00800           0
      6187 MEMB     56       POPC     HB       HAL2     0.900000E-01   1.00800           0
      6188 MEMB     56       POPC     C2       CTL1     0.170000       12.0110           0
      6189 MEMB     56       POPC     HS       HAL1     0.900000E-01   1.00800           0
      6190 MEMB     56       POPC     O21      OSL     -0.490000       15.9994           0
      6191 MEMB     56       POPC     C21      CL       0.900000       12.0110           0
      6192 MEMB     56       POPC     O22      OBL     -0.630000       15.9994           0
      6193 MEMB     56       POPC     C22      CTL2    -0.220000       12.0110           0
      6194 MEMB     56       POPC     H2R      HAL2     0.900000E-01   1.00800           0
      6195 MEMB     56       POPC     H2S      HAL2     0.900000E-01   1.00800           0
      6196 MEMB     56       POPC     C3       CTL2     0.800000E-01   12.0110           0
      6197 MEMB     56       POPC     HX       HAL2     0.900000E-01   1.00800           0
      6198 MEMB     56       POPC     HY       HAL2     0.900000E-01   1.00800           0
      6199 MEMB     56       POPC     O31      OSL     -0.490000       15.9994           0
      6200 MEMB     56       POPC     C31      CL       0.900000       12.0110           0
      6201 MEMB     56       POPC     O32      OBL     -0.630000       15.9994           0
      6202 MEMB     56       POPC     C32      CTL2    -0.220000       12.0110           0
      6203 MEMB     56       POPC     H2X      HAL2     0.900000E-01   1.00800           0
      6204 MEMB     56       POPC     H2Y      HAL2     0.900000E-01   1.00800           0
      6205 MEMB     56       POPC     C23      CTL2    -0.180000       12.0110           0
      6206 MEMB     56       POPC     H3R      HAL2     0.900000E-01   1.00800           0
      6207 MEMB     56       POPC     H3S      HAL2     0.900000E-01   1.00800           0
      6208 MEMB     56       POPC     C24      CTL2    -0.180000       12.0110           0
      6209 MEMB     56       POPC     H4R      HAL2     0.900000E-01   1.00800           0
      6210 MEMB     56       POPC     H4S      HAL2     0.900000E-01   1.00800           0
      6211 MEMB     56       POPC     C25      CTL2    -0.180000       12.0110           0
      6212 MEMB     56       POPC     H5R      HAL2     0.900000E-01   1.00800           0
      6213 MEMB     56       POPC     H5S      HAL2     0.900000E-01   1.00800           0
      6214 MEMB     56       POPC     C26      CTL2    -0.180000       12.0110           0
      6215 MEMB     56       POPC     H6R      HAL2     0.900000E-01   1.00800           0
      6216 MEMB     56       POPC     H6S      HAL2     0.900000E-01   1.00800           0
      6217 MEMB     56       POPC     C27      CTL2    -0.180000       12.0110           0
      6218 MEMB     56       POPC     H7R      HAL2     0.900000E-01   1.00800           0
      6219 MEMB     56       POPC     H7S      HAL2     0.900000E-01   1.00800           0
      6220 MEMB     56       POPC     C28      CTL2    -0.180000       12.0110           0
      6221 MEMB     56       POPC     H8R      HAL2     0.900000E-01   1.00800           0
      6222 MEMB     56       POPC     H8S      HAL2     0.900000E-01   1.00800           0
      6223 MEMB     56       POPC     C29      CEL1    -0.150000       12.0110           0
      6224 MEMB     56       POPC     H91      HEL1     0.150000       1.00800           0
      6225 MEMB     56       POPC     C210     CEL1    -0.150000       12.0110           0
      6226 MEMB     56       POPC     H101     HEL1     0.150000       1.00800           0
      6227 MEMB     56       POPC     C211     CTL2    -0.180000       12.0110           0
      6228 MEMB     56       POPC     H11R     HAL2     0.900000E-01   1.00800           0
      6229 MEMB     56       POPC     H11S     HAL2     0.900000E-01   1.00800           0
      6230 MEMB     56       POPC     C212     CTL2    -0.180000       12.0110           0
      6231 MEMB     56       POPC     H12R     HAL2     0.900000E-01   1.00800           0
      6232 MEMB     56       POPC     H12S     HAL2     0.900000E-01   1.00800           0
      6233 MEMB     56       POPC     C213     CTL2    -0.180000       12.0110           0
      6234 MEMB     56       POPC     H13R     HAL2     0.900000E-01   1.00800           0
      6235 MEMB     56       POPC     H13S     HAL2     0.900000E-01   1.00800           0
      6236 MEMB     56       POPC     C214     CTL2    -0.180000       12.0110           0
      6237 MEMB     56       POPC     H14R     HAL2     0.900000E-01   1.00800           0
      6238 MEMB     56       POPC     H14S     HAL2     0.900000E-01   1.00800           0
      6239 MEMB     56       POPC     C215     CTL2    -0.180000       12.0110           0
      6240 MEMB     56       POPC     H15R     HAL2     0.900000E-01   1.00800           0
      6241 MEMB     56       POPC     H15S     HAL2     0.900000E-01   1.00800           0
      6242 MEMB     56       POPC     C216     CTL2    -0.180000       12.0110           0
      6243 MEMB     56       POPC     H16R     HAL2     0.900000E-01   1.00800           0
      6244 MEMB     56       POPC     H16S     HAL2     0.900000E-01   1.00800           0
      6245 MEMB     56       POPC     C217     CTL2    -0.180000       12.0110           0
      6246 MEMB     56       POPC     H17R     HAL2     0.900000E-01   1.00800           0
      6247 MEMB     56       POPC     H17S     HAL2     0.900000E-01   1.00800           0
      6248 MEMB     56       POPC     C218     CTL3    -0.270000       12.0110           0
      6249 MEMB     56       POPC     H18R     HAL3     0.900000E-01   1.00800           0
      6250 MEMB     56       POPC     H18S     HAL3     0.900000E-01   1.00800           0
      6251 MEMB     56       POPC     H18T     HAL3     0.900000E-01   1.00800           0
      6252 MEMB     56       POPC     C33      CTL2    -0.180000       12.0110           0
      6253 MEMB     56       POPC     H3X      HAL2     0.900000E-01   1.00800           0
      6254 MEMB     56       POPC     H3Y      HAL2     0.900000E-01   1.00800           0
      6255 MEMB     56       POPC     C34      CTL2    -0.180000       12.0110           0
      6256 MEMB     56       POPC     H4X      HAL2     0.900000E-01   1.00800           0
      6257 MEMB     56       POPC     H4Y      HAL2     0.900000E-01   1.00800           0
      6258 MEMB     56       POPC     C35      CTL2    -0.180000       12.0110           0
      6259 MEMB     56       POPC     H5X      HAL2     0.900000E-01   1.00800           0
      6260 MEMB     56       POPC     H5Y      HAL2     0.900000E-01   1.00800           0
      6261 MEMB     56       POPC     C36      CTL2    -0.180000       12.0110           0
      6262 MEMB     56       POPC     H6X      HAL2     0.900000E-01   1.00800           0
      6263 MEMB     56       POPC     H6Y      HAL2     0.900000E-01   1.00800           0
      6264 MEMB     56       POPC     C37      CTL2    -0.180000       12.0110           0
      6265 MEMB     56       POPC     H7X      HAL2     0.900000E-01   1.00800           0
      6266 MEMB     56       POPC     H7Y      HAL2     0.900000E-01   1.00800           0
      6267 MEMB     56       POPC     C38      CTL2    -0.180000       12.0110           0
      6268 MEMB     56       POPC     H8X      HAL2     0.900000E-01   1.00800           0
      6269 MEMB     56       POPC     H8Y      HAL2     0.900000E-01   1.00800           0
      6270 MEMB     56       POPC     C39      CTL2    -0.180000       12.0110           0
      6271 MEMB     56       POPC     H9X      HAL2     0.900000E-01   1.00800           0
      6272 MEMB     56       POPC     H9Y      HAL2     0.900000E-01   1.00800           0
      6273 MEMB     56       POPC     C310     CTL2    -0.180000       12.0110           0
      6274 MEMB     56       POPC     H10X     HAL2     0.900000E-01   1.00800           0
      6275 MEMB     56       POPC     H10Y     HAL2     0.900000E-01   1.00800           0
      6276 MEMB     56       POPC     C311     CTL2    -0.180000       12.0110           0
      6277 MEMB     56       POPC     H11X     HAL2     0.900000E-01   1.00800           0
      6278 MEMB     56       POPC     H11Y     HAL2     0.900000E-01   1.00800           0
      6279 MEMB     56       POPC     C312     CTL2    -0.180000       12.0110           0
      6280 MEMB     56       POPC     H12X     HAL2     0.900000E-01   1.00800           0
      6281 MEMB     56       POPC     H12Y     HAL2     0.900000E-01   1.00800           0
      6282 MEMB     56       POPC     C313     CTL2    -0.180000       12.0110           0
      6283 MEMB     56       POPC     H13X     HAL2     0.900000E-01   1.00800           0
      6284 MEMB     56       POPC     H13Y     HAL2     0.900000E-01   1.00800           0
      6285 MEMB     56       POPC     C314     CTL2    -0.180000       12.0110           0
      6286 MEMB     56       POPC     H14X     HAL2     0.900000E-01   1.00800           0
      6287 MEMB     56       POPC     H14Y     HAL2     0.900000E-01   1.00800           0
      6288 MEMB     56       POPC     C315     CTL2    -0.180000       12.0110           0
      6289 MEMB     56       POPC     H15X     HAL2     0.900000E-01   1.00800           0
      6290 MEMB     56       POPC     H15Y     HAL2     0.900000E-01   1.00800           0
      6291 MEMB     56       POPC     C316     CTL3    -0.270000       12.0110           0
      6292 MEMB     56       POPC     H16X     HAL3     0.900000E-01   1.00800           0
      6293 MEMB     56       POPC     H16Y     HAL3     0.900000E-01   1.00800           0
      6294 MEMB     56       POPC     H16Z     HAL3     0.900000E-01   1.00800           0
      6295 MEMB     57       POPE     N        NH3L    -0.300000       14.0070           0
      6296 MEMB     57       POPE     HN1      HCL      0.330000       1.00800           0
      6297 MEMB     57       POPE     HN2      HCL      0.330000       1.00800           0
      6298 MEMB     57       POPE     HN3      HCL      0.330000       1.00800           0
      6299 MEMB     57       POPE     C12      CTL2     0.130000       12.0110           0
      6300 MEMB     57       POPE     H12A     HAL2     0.900000E-01   1.00800           0
      6301 MEMB     57       POPE     H12B     HAL2     0.900000E-01   1.00800           0
      6302 MEMB     57       POPE     C11      CTL2    -0.800000E-01   12.0110           0
      6303 MEMB     57       POPE     H11A     HAL2     0.900000E-01   1.00800           0
      6304 MEMB     57       POPE     H11B     HAL2     0.900000E-01   1.00800           0
      6305 MEMB     57       POPE     P        PL       1.500000       30.9740           0
      6306 MEMB     57       POPE     O13      O2L     -0.780000       15.9994           0
      6307 MEMB     57       POPE     O14      O2L     -0.780000       15.9994           0
      6308 MEMB     57       POPE     O11      OSLP    -0.570000       15.9994           0
      6309 MEMB     57       POPE     O12      OSLP    -0.570000       15.9994           0
      6310 MEMB     57       POPE     C1       CTL2    -0.800000E-01   12.0110           0
      6311 MEMB     57       POPE     HA       HAL2     0.900000E-01   1.00800           0
      6312 MEMB     57       POPE     HB       HAL2     0.900000E-01   1.00800           0
      6313 MEMB     57       POPE     C2       CTL1     0.170000       12.0110           0
      6314 MEMB     57       POPE     HS       HAL1     0.900000E-01   1.00800           0
      6315 MEMB     57       POPE     O21      OSL     -0.490000       15.9994           0
      6316 MEMB     57       POPE     C21      CL       0.900000       12.0110           0
      6317 MEMB     57       POPE     O22      OBL     -0.630000       15.9994           0
      6318 MEMB     57       POPE     C22      CTL2    -0.220000       12.0110           0
      6319 MEMB     57       POPE     H2R      HAL2     0.900000E-01   1.00800           0
      6320 MEMB     57       POPE     H2S      HAL2     0.900000E-01   1.00800           0
      6321 MEMB     57       POPE     C3       CTL2     0.800000E-01   12.0110           0
      6322 MEMB     57       POPE     HX       HAL2     0.900000E-01   1.00800           0
      6323 MEMB     57       POPE     HY       HAL2     0.900000E-01   1.00800           0
      6324 MEMB     57       POPE     O31      OSL     -0.490000       15.9994           0
      6325 MEMB     57       POPE     C31      CL       0.900000       12.0110           0
      6326 MEMB     57       POPE     O32      OBL     -0.630000       15.9994           0
      6327 MEMB     57       POPE     C32      CTL2    -0.220000       12.0110           0
      6328 MEMB     57       POPE     H2X      HAL2     0.900000E-01   1.00800           0
      6329 MEMB     57       POPE     H2Y      HAL2     0.900000E-01   1.00800           0
      6330 MEMB     57       POPE     C23      CTL2    -0.180000       12.0110           0
      6331 MEMB     57       POPE     H3R      HAL2     0.900000E-01   1.00800           0
      6332 MEMB     57       POPE     H3S      HAL2     0.900000E-01   1.00800           0
      6333 MEMB     57       POPE     C24      CTL2    -0.180000       12.0110           0
      6334 MEMB     57       POPE     H4R      HAL2     0.900000E-01   1.00800           0
      6335 MEMB     57       POPE     H4S      HAL2     0.900000E-01   1.00800           0
      6336 MEMB     57       POPE     C25      CTL2    -0.180000       12.0110           0
      6337 MEMB     57       POPE     H5R      HAL2     0.900000E-01   1.00800           0
      6338 MEMB     57       POPE     H5S      HAL2     0.900000E-01   1.00800           0
      6339 MEMB     57       POPE     C26      CTL2    -0.180000       12.0110           0
      6340 MEMB     57       POPE     H6R      HAL2     0.900000E-01   1.00800           0
      6341 MEMB     57       POPE     H6S      HAL2     0.900000E-01   1.00800           0
      6342 MEMB     57       POPE     C27      CTL2    -0.180000       12.0110           0
      6343 MEMB     57       POPE     H7R      HAL2     0.900000E-01   1.00800           0
      6344 MEMB     57       POPE     H7S      HAL2     0.900000E-01   1.00800           0
      6345 MEMB     57       POPE     C28      CTL2    -0.180000       12.0110           0
      6346 MEMB     57       POPE     H8R      HAL2     0.900000E-01   1.00800           0
      6347 MEMB     57       POPE     H8S      HAL2     0.900000E-01   1.00800           0
      6348 MEMB     57       POPE     C29      CEL1    -0.150000       12.0110           0
      6349 MEMB     57       POPE     H91      HEL1     0.150000       1.00800           0
      6350 MEMB     57       POPE     C210     CEL1    -0.150000       12.0110           0
      6351 MEMB     57       POPE     H101     HEL1     0.150000       1.00800           0
      6352 MEMB     57       POPE     C211     CTL2    -0.180000       12.0110           0
      6353 MEMB     57       POPE     H11R     HAL2     0.900000E-01   1.00800           0
      6354 MEMB     57       POPE     H11S     HAL2     0.900000E-01   1.00800           0
      6355 MEMB     57       POPE     C212     CTL2    -0.180000       12.0110           0
      6356 MEMB     57       POPE     H12R     HAL2     0.900000E-01   1.00800           0
      6357 MEMB     57       POPE     H12S     HAL2     0.900000E-01   1.00800           0
      6358 MEMB     57       POPE     C213     CTL2    -0.180000       12.0110           0
      6359 MEMB     57       POPE     H13R     HAL2     0.900000E-01   1.00800           0
      6360 MEMB     57       POPE     H13S     HAL2     0.900000E-01   1.00800           0
      6361 MEMB     57       POPE     C214     CTL2    -0.180000       12.0110           0
      6362 MEMB     57       POPE     H14R     HAL2     0.900000E-01   1.00800           0
      6363 MEMB     57       POPE     H14S     HAL2     0.900000E-01   1.00800           0
      6364 MEMB     57       POPE     C215     CTL2    -0.180000       12.0110           0
      6365 MEMB     57       POPE     H15R     HAL2     0.900000E-01   1.00800           0
      6366 MEMB     57       POPE     H15S     HAL2     0.900000E-01   1.00800           0
      6367 MEMB     57       POPE     C216     CTL2    -0.180000       12.0110           0
      6368 MEMB     57       POPE     H16R     HAL2     0.900000E-01   1.00800           0
      6369 MEMB     57       POPE     H16S     HAL2     0.900000E-01   1.00800           0
      6370 MEMB     57       POPE     C217     CTL2    -0.180000       12.0110           0
      6371 MEMB     57       POPE     H17R     HAL2     0.900000E-01   1.00800           0
      6372 MEMB     57       POPE     H17S     HAL2     0.900000E-01   1.00800           0
      6373 MEMB     57       POPE     C218     CTL3    -0.270000       12.0110           0
      6374 MEMB     57       POPE     H18R     HAL3     0.900000E-01   1.00800           0
      6375 MEMB     57       POPE     H18S     HAL3     0.900000E-01   1.00800           0
      6376 MEMB     57       POPE     H18T     HAL3     0.900000E-01   1.00800           0
      6377 MEMB     57       POPE     C33      CTL2    -0.180000       12.0110           0
      6378 MEMB     57       POPE     H3X      HAL2     0.900000E-01   1.00800           0
      6379 MEMB     57       POPE     H3Y      HAL2     0.900000E-01   1.00800           0
      6380 MEMB     57       POPE     C34      CTL2    -0.180000       12.0110           0
      6381 MEMB     57       POPE     H4X      HAL2     0.900000E-01   1.00800           0
      6382 MEMB     57       POPE     H4Y      HAL2     0.900000E-01   1.00800           0
      6383 MEMB     57       POPE     C35      CTL2    -0.180000       12.0110           0
      6384 MEMB     57       POPE     H5X      HAL2     0.900000E-01   1.00800           0
      6385 MEMB     57       POPE     H5Y      HAL2     0.900000E-01   1.00800           0
      6386 MEMB     57       POPE     C36      CTL2    -0.180000       12.0110           0
      6387 MEMB     57       POPE     H6X      HAL2     0.900000E-01   1.00800           0
      6388 MEMB     57       POPE     H6Y      HAL2     0.900000E-01   1.00800           0
      6389 MEMB     57       POPE     C37      CTL2    -0.180000       12.0110           0
      6390 MEMB     57       POPE     H7X      HAL2     0.900000E-01   1.00800           0
      6391 MEMB     57       POPE     H7Y      HAL2     0.900000E-01   1.00800           0
      6392 MEMB     57       POPE     C38      CTL2    -0.180000       12.0110           0
      6393 MEMB     57       POPE     H8X      HAL2     0.900000E-01   1.00800           0
      6394 MEMB     57       POPE     H8Y      HAL2     0.900000E-01   1.00800           0
      6395 MEMB     57       POPE     C39      CTL2    -0.180000       12.0110           0
      6396 MEMB     57       POPE     H9X      HAL2     0.900000E-01   1.00800           0
      6397 MEMB     57       POPE     H9Y      HAL2     0.900000E-01   1.00800           0
      6398 MEMB     57       POPE     C310     CTL2    -0.180000       12.0110           0
      6399 MEMB     57       POPE     H10X     HAL2     0.900000E-01   1.00800           0
      6400 MEMB     57       POPE     H10Y     HAL2     0.900000E-01   1.00800           0
      6401 MEMB     57       POPE     C311     CTL2    -0.180000       12.0110           0
      6402 MEMB     57       POPE     H11X     HAL2     0.900000E-01   1.00800           0
      6403 MEMB     57       POPE     H11Y     HAL2     0.900000E-01   1.00800           0
      6404 MEMB     57       POPE     C312     CTL2    -0.180000       12.0110           0
      6405 MEMB     57       POPE     H12X     HAL2     0.900000E-01   1.00800           0
      6406 MEMB     57       POPE     H12Y     HAL2     0.900000E-01   1.00800           0
      6407 MEMB     57       POPE     C313     CTL2    -0.180000       12.0110           0
      6408 MEMB     57       POPE     H13X     HAL2     0.900000E-01   1.00800           0
      6409 MEMB     57       POPE     H13Y     HAL2     0.900000E-01   1.00800           0
      6410 MEMB     57       POPE     C314     CTL2    -0.180000       12.0110           0
      6411 MEMB     57       POPE     H14X     HAL2     0.900000E-01   1.00800           0
      6412 MEMB     57       POPE     H14Y     HAL2     0.900000E-01   1.00800           0
      6413 MEMB     57       POPE     C315     CTL2    -0.180000       12.0110           0
      6414 MEMB     57       POPE     H15X     HAL2     0.900000E-01   1.00800           0
      6415 MEMB     57       POPE     H15Y     HAL2     0.900000E-01   1.00800           0
      6416 MEMB     57       POPE     C316     CTL3    -0.270000       12.0110           0
      6417 MEMB     57       POPE     H16X     HAL3     0.900000E-01   1.00800           0
      6418 MEMB     57       POPE     H16Y     HAL3     0.900000E-01   1.00800           0
      6419 MEMB     57       POPE     H16Z     HAL3     0.900000E-01   1.00800           0
      6420 MEMB     58       POPC     N        NTL     -0.600000       14.0070           0
      6421 MEMB     58       POPC     C12      CTL2    -0.100000       12.0110           0
      6422 MEMB     58       POPC     H12A     HL       0.250000       1.00800           0
      6423 MEMB     58       POPC     H12B     HL       0.250000       1.00800           0
      6424 MEMB     58       POPC     C13      CTL5    -0.350000       12.0110           0
      6425 MEMB     58       POPC     H13A     HL       0.250000       1.00800           0
      6426 MEMB     58       POPC     H13B     HL       0.250000       1.00800           0
      6427 MEMB     58       POPC     H13C     HL       0.250000       1.00800           0
      6428 MEMB     58       POPC     C14      CTL5    -0.350000       12.0110           0
      6429 MEMB     58       POPC     H14A     HL       0.250000       1.00800           0
      6430 MEMB     58       POPC     H14B     HL       0.250000       1.00800           0
      6431 MEMB     58       POPC     H14C     HL       0.250000       1.00800           0
      6432 MEMB     58       POPC     C15      CTL5    -0.350000       12.0110           0
      6433 MEMB     58       POPC     H15A     HL       0.250000       1.00800           0
      6434 MEMB     58       POPC     H15B     HL       0.250000       1.00800           0
      6435 MEMB     58       POPC     H15C     HL       0.250000       1.00800           0
      6436 MEMB     58       POPC     C11      CTL2    -0.800000E-01   12.0110           0
      6437 MEMB     58       POPC     H11A     HAL2     0.900000E-01   1.00800           0
      6438 MEMB     58       POPC     H11B     HAL2     0.900000E-01   1.00800           0
      6439 MEMB     58       POPC     P        PL       1.500000       30.9740           0
      6440 MEMB     58       POPC     O13      O2L     -0.780000       15.9994           0
      6441 MEMB     58       POPC     O14      O2L     -0.780000       15.9994           0
      6442 MEMB     58       POPC     O12      OSLP    -0.570000       15.9994           0
      6443 MEMB     58       POPC     O11      OSLP    -0.570000       15.9994           0
      6444 MEMB     58       POPC     C1       CTL2    -0.800000E-01   12.0110           0
      6445 MEMB     58       POPC     HA       HAL2     0.900000E-01   1.00800           0
      6446 MEMB     58       POPC     HB       HAL2     0.900000E-01   1.00800           0
      6447 MEMB     58       POPC     C2       CTL1     0.170000       12.0110           0
      6448 MEMB     58       POPC     HS       HAL1     0.900000E-01   1.00800           0
      6449 MEMB     58       POPC     O21      OSL     -0.490000       15.9994           0
      6450 MEMB     58       POPC     C21      CL       0.900000       12.0110           0
      6451 MEMB     58       POPC     O22      OBL     -0.630000       15.9994           0
      6452 MEMB     58       POPC     C22      CTL2    -0.220000       12.0110           0
      6453 MEMB     58       POPC     H2R      HAL2     0.900000E-01   1.00800           0
      6454 MEMB     58       POPC     H2S      HAL2     0.900000E-01   1.00800           0
      6455 MEMB     58       POPC     C3       CTL2     0.800000E-01   12.0110           0
      6456 MEMB     58       POPC     HX       HAL2     0.900000E-01   1.00800           0
      6457 MEMB     58       POPC     HY       HAL2     0.900000E-01   1.00800           0
      6458 MEMB     58       POPC     O31      OSL     -0.490000       15.9994           0
      6459 MEMB     58       POPC     C31      CL       0.900000       12.0110           0
      6460 MEMB     58       POPC     O32      OBL     -0.630000       15.9994           0
      6461 MEMB     58       POPC     C32      CTL2    -0.220000       12.0110           0
      6462 MEMB     58       POPC     H2X      HAL2     0.900000E-01   1.00800           0
      6463 MEMB     58       POPC     H2Y      HAL2     0.900000E-01   1.00800           0
      6464 MEMB     58       POPC     C23      CTL2    -0.180000       12.0110           0
      6465 MEMB     58       POPC     H3R      HAL2     0.900000E-01   1.00800           0
      6466 MEMB     58       POPC     H3S      HAL2     0.900000E-01   1.00800           0
      6467 MEMB     58       POPC     C24      CTL2    -0.180000       12.0110           0
      6468 MEMB     58       POPC     H4R      HAL2     0.900000E-01   1.00800           0
      6469 MEMB     58       POPC     H4S      HAL2     0.900000E-01   1.00800           0
      6470 MEMB     58       POPC     C25      CTL2    -0.180000       12.0110           0
      6471 MEMB     58       POPC     H5R      HAL2     0.900000E-01   1.00800           0
      6472 MEMB     58       POPC     H5S      HAL2     0.900000E-01   1.00800           0
      6473 MEMB     58       POPC     C26      CTL2    -0.180000       12.0110           0
      6474 MEMB     58       POPC     H6R      HAL2     0.900000E-01   1.00800           0
      6475 MEMB     58       POPC     H6S      HAL2     0.900000E-01   1.00800           0
      6476 MEMB     58       POPC     C27      CTL2    -0.180000       12.0110           0
      6477 MEMB     58       POPC     H7R      HAL2     0.900000E-01   1.00800           0
      6478 MEMB     58       POPC     H7S      HAL2     0.900000E-01   1.00800           0
      6479 MEMB     58       POPC     C28      CTL2    -0.180000       12.0110           0
      6480 MEMB     58       POPC     H8R      HAL2     0.900000E-01   1.00800           0
      6481 MEMB     58       POPC     H8S      HAL2     0.900000E-01   1.00800           0
      6482 MEMB     58       POPC     C29      CEL1    -0.150000       12.0110           0
      6483 MEMB     58       POPC     H91      HEL1     0.150000       1.00800           0
      6484 MEMB     58       POPC     C210     CEL1    -0.150000       12.0110           0
      6485 MEMB     58       POPC     H101     HEL1     0.150000       1.00800           0
      6486 MEMB     58       POPC     C211     CTL2    -0.180000       12.0110           0
      6487 MEMB     58       POPC     H11R     HAL2     0.900000E-01   1.00800           0
      6488 MEMB     58       POPC     H11S     HAL2     0.900000E-01   1.00800           0
      6489 MEMB     58       POPC     C212     CTL2    -0.180000       12.0110           0
      6490 MEMB     58       POPC     H12R     HAL2     0.900000E-01   1.00800           0
      6491 MEMB     58       POPC     H12S     HAL2     0.900000E-01   1.00800           0
      6492 MEMB     58       POPC     C213     CTL2    -0.180000       12.0110           0
      6493 MEMB     58       POPC     H13R     HAL2     0.900000E-01   1.00800           0
      6494 MEMB     58       POPC     H13S     HAL2     0.900000E-01   1.00800           0
      6495 MEMB     58       POPC     C214     CTL2    -0.180000       12.0110           0
      6496 MEMB     58       POPC     H14R     HAL2     0.900000E-01   1.00800           0
      6497 MEMB     58       POPC     H14S     HAL2     0.900000E-01   1.00800           0
      6498 MEMB     58       POPC     C215     CTL2    -0.180000       12.0110           0
      6499 MEMB     58       POPC     H15R     HAL2     0.900000E-01   1.00800           0
      6500 MEMB     58       POPC     H15S     HAL2     0.900000E-01   1.00800           0
      6501 MEMB     58       POPC     C216     CTL2    -0.180000       12.0110           0
      6502 MEMB     58       POPC     H16R     HAL2     0.900000E-01   1.00800           0
      6503 MEMB     58       POPC     H16S     HAL2     0.900000E-01   1.00800           0
      6504 MEMB     58       POPC     C217     CTL2    -0.180000       12.0110           0
      6505 MEMB     58       POPC     H17R     HAL2     0.900000E-01   1.00800           0
      6506 MEMB     58       POPC     H17S     HAL2     0.900000E-01   1.00800           0
      6507 MEMB     58       POPC     C218     CTL3    -0.270000       12.0110           0
      6508 MEMB     58       POPC     H18R     HAL3     0.900000E-01   1.00800           0
      6509 MEMB     58       POPC     H18S     HAL3     0.900000E-01   1.00800           0
      6510 MEMB     58       POPC     H18T     HAL3     0.900000E-01   1.00800           0
      6511 MEMB     58       POPC     C33      CTL2    -0.180000       12.0110           0
      6512 MEMB     58       POPC     H3X      HAL2     0.900000E-01   1.00800           0
      6513 MEMB     58       POPC     H3Y      HAL2     0.900000E-01   1.00800           0
      6514 MEMB     58       POPC     C34      CTL2    -0.180000       12.0110           0
      6515 MEMB     58       POPC     H4X      HAL2     0.900000E-01   1.00800           0
      6516 MEMB     58       POPC     H4Y      HAL2     0.900000E-01   1.00800           0
      6517 MEMB     58       POPC     C35      CTL2    -0.180000       12.0110           0
      6518 MEMB     58       POPC     H5X      HAL2     0.900000E-01   1.00800           0
      6519 MEMB     58       POPC     H5Y      HAL2     0.900000E-01   1.00800           0
      6520 MEMB     58       POPC     C36      CTL2    -0.180000       12.0110           0
      6521 MEMB     58       POPC     H6X      HAL2     0.900000E-01   1.00800           0
      6522 MEMB     58       POPC     H6Y      HAL2     0.900000E-01   1.00800           0
      6523 MEMB     58       POPC     C37      CTL2    -0.180000       12.0110           0
      6524 MEMB     58       POPC     H7X      HAL2     0.900000E-01   1.00800           0
      6525 MEMB     58       POPC     H7Y      HAL2     0.900000E-01   1.00800           0
      6526 MEMB     58       POPC     C38      CTL2    -0.180000       12.0110           0
      6527 MEMB     58       POPC     H8X      HAL2     0.900000E-01   1.00800           0
      6528 MEMB     58       POPC     H8Y      HAL2     0.900000E-01   1.00800           0
      6529 MEMB     58       POPC     C39      CTL2    -0.180000       12.0110           0
      6530 MEMB     58       POPC     H9X      HAL2     0.900000E-01   1.00800           0
      6531 MEMB     58       POPC     H9Y      HAL2     0.900000E-01   1.00800           0
      6532 MEMB     58       POPC     C310     CTL2    -0.180000       12.0110           0
      6533 MEMB     58       POPC     H10X     HAL2     0.900000E-01   1.00800           0
      6534 MEMB     58       POPC     H10Y     HAL2     0.900000E-01   1.00800           0
      6535 MEMB     58       POPC     C311     CTL2    -0.180000       12.0110           0
      6536 MEMB     58       POPC     H11X     HAL2     0.900000E-01   1.00800           0
      6537 MEMB     58       POPC     H11Y     HAL2     0.900000E-01   1.00800           0
      6538 MEMB     58       POPC     C312     CTL2    -0.180000       12.0110           0
      6539 MEMB     58       POPC     H12X     HAL2     0.900000E-01   1.00800           0
      6540 MEMB     58       POPC     H12Y     HAL2     0.900000E-01   1.00800           0
      6541 MEMB     58       POPC     C313     CTL2    -0.180000       12.0110           0
      6542 MEMB     58       POPC     H13X     HAL2     0.900000E-01   1.00800           0
      6543 MEMB     58       POPC     H13Y     HAL2     0.900000E-01   1.00800           0
      6544 MEMB     58       POPC     C314     CTL2    -0.180000       12.0110           0
      6545 MEMB     58       POPC     H14X     HAL2     0.900000E-01   1.00800           0
      6546 MEMB     58       POPC     H14Y     HAL2     0.900000E-01   1.00800           0
      6547 MEMB     58       POPC     C315     CTL2    -0.180000       12.0110           0
      6548 MEMB     58       POPC     H15X     HAL2     0.900000E-01   1.00800           0
      6549 MEMB     58       POPC     H15Y     HAL2     0.900000E-01   1.00800           0
      6550 MEMB     58       POPC     C316     CTL3    -0.270000       12.0110           0
      6551 MEMB     58       POPC     H16X     HAL3     0.900000E-01   1.00800           0
      6552 MEMB     58       POPC     H16Y     HAL3     0.900000E-01   1.00800           0
      6553 MEMB     58       POPC     H16Z     HAL3     0.900000E-01   1.00800           0
      6554 MEMB     59       POPC     N        NTL     -0.600000       14.0070           0
      6555 MEMB     59       POPC     C12      CTL2    -0.100000       12.0110           0
      6556 MEMB     59       POPC     H12A     HL       0.250000       1.00800           0
      6557 MEMB     59       POPC     H12B     HL       0.250000       1.00800           0
      6558 MEMB     59       POPC     C13      CTL5    -0.350000       12.0110           0
      6559 MEMB     59       POPC     H13A     HL       0.250000       1.00800           0
      6560 MEMB     59       POPC     H13B     HL       0.250000       1.00800           0
      6561 MEMB     59       POPC     H13C     HL       0.250000       1.00800           0
      6562 MEMB     59       POPC     C14      CTL5    -0.350000       12.0110           0
      6563 MEMB     59       POPC     H14A     HL       0.250000       1.00800           0
      6564 MEMB     59       POPC     H14B     HL       0.250000       1.00800           0
      6565 MEMB     59       POPC     H14C     HL       0.250000       1.00800           0
      6566 MEMB     59       POPC     C15      CTL5    -0.350000       12.0110           0
      6567 MEMB     59       POPC     H15A     HL       0.250000       1.00800           0
      6568 MEMB     59       POPC     H15B     HL       0.250000       1.00800           0
      6569 MEMB     59       POPC     H15C     HL       0.250000       1.00800           0
      6570 MEMB     59       POPC     C11      CTL2    -0.800000E-01   12.0110           0
      6571 MEMB     59       POPC     H11A     HAL2     0.900000E-01   1.00800           0
      6572 MEMB     59       POPC     H11B     HAL2     0.900000E-01   1.00800           0
      6573 MEMB     59       POPC     P        PL       1.500000       30.9740           0
      6574 MEMB     59       POPC     O13      O2L     -0.780000       15.9994           0
      6575 MEMB     59       POPC     O14      O2L     -0.780000       15.9994           0
      6576 MEMB     59       POPC     O12      OSLP    -0.570000       15.9994           0
      6577 MEMB     59       POPC     O11      OSLP    -0.570000       15.9994           0
      6578 MEMB     59       POPC     C1       CTL2    -0.800000E-01   12.0110           0
      6579 MEMB     59       POPC     HA       HAL2     0.900000E-01   1.00800           0
      6580 MEMB     59       POPC     HB       HAL2     0.900000E-01   1.00800           0
      6581 MEMB     59       POPC     C2       CTL1     0.170000       12.0110           0
      6582 MEMB     59       POPC     HS       HAL1     0.900000E-01   1.00800           0
      6583 MEMB     59       POPC     O21      OSL     -0.490000       15.9994           0
      6584 MEMB     59       POPC     C21      CL       0.900000       12.0110           0
      6585 MEMB     59       POPC     O22      OBL     -0.630000       15.9994           0
      6586 MEMB     59       POPC     C22      CTL2    -0.220000       12.0110           0
      6587 MEMB     59       POPC     H2R      HAL2     0.900000E-01   1.00800           0
      6588 MEMB     59       POPC     H2S      HAL2     0.900000E-01   1.00800           0
      6589 MEMB     59       POPC     C3       CTL2     0.800000E-01   12.0110           0
      6590 MEMB     59       POPC     HX       HAL2     0.900000E-01   1.00800           0
      6591 MEMB     59       POPC     HY       HAL2     0.900000E-01   1.00800           0
      6592 MEMB     59       POPC     O31      OSL     -0.490000       15.9994           0
      6593 MEMB     59       POPC     C31      CL       0.900000       12.0110           0
      6594 MEMB     59       POPC     O32      OBL     -0.630000       15.9994           0
      6595 MEMB     59       POPC     C32      CTL2    -0.220000       12.0110           0
      6596 MEMB     59       POPC     H2X      HAL2     0.900000E-01   1.00800           0
      6597 MEMB     59       POPC     H2Y      HAL2     0.900000E-01   1.00800           0
      6598 MEMB     59       POPC     C23      CTL2    -0.180000       12.0110           0
      6599 MEMB     59       POPC     H3R      HAL2     0.900000E-01   1.00800           0
      6600 MEMB     59       POPC     H3S      HAL2     0.900000E-01   1.00800           0
      6601 MEMB     59       POPC     C24      CTL2    -0.180000       12.0110           0
      6602 MEMB     59       POPC     H4R      HAL2     0.900000E-01   1.00800           0
      6603 MEMB     59       POPC     H4S      HAL2     0.900000E-01   1.00800           0
      6604 MEMB     59       POPC     C25      CTL2    -0.180000       12.0110           0
      6605 MEMB     59       POPC     H5R      HAL2     0.900000E-01   1.00800           0
      6606 MEMB     59       POPC     H5S      HAL2     0.900000E-01   1.00800           0
      6607 MEMB     59       POPC     C26      CTL2    -0.180000       12.0110           0
      6608 MEMB     59       POPC     H6R      HAL2     0.900000E-01   1.00800           0
      6609 MEMB     59       POPC     H6S      HAL2     0.900000E-01   1.00800           0
      6610 MEMB     59       POPC     C27      CTL2    -0.180000       12.0110           0
      6611 MEMB     59       POPC     H7R      HAL2     0.900000E-01   1.00800           0
      6612 MEMB     59       POPC     H7S      HAL2     0.900000E-01   1.00800           0
      6613 MEMB     59       POPC     C28      CTL2    -0.180000       12.0110           0
      6614 MEMB     59       POPC     H8R      HAL2     0.900000E-01   1.00800           0
      6615 MEMB     59       POPC     H8S      HAL2     0.900000E-01   1.00800           0
      6616 MEMB     59       POPC     C29      CEL1    -0.150000       12.0110           0
      6617 MEMB     59       POPC     H91      HEL1     0.150000       1.00800           0
      6618 MEMB     59       POPC     C210     CEL1    -0.150000       12.0110           0
      6619 MEMB     59       POPC     H101     HEL1     0.150000       1.00800           0
      6620 MEMB     59       POPC     C211     CTL2    -0.180000       12.0110           0
      6621 MEMB     59       POPC     H11R     HAL2     0.900000E-01   1.00800           0
      6622 MEMB     59       POPC     H11S     HAL2     0.900000E-01   1.00800           0
      6623 MEMB     59       POPC     C212     CTL2    -0.180000       12.0110           0
      6624 MEMB     59       POPC     H12R     HAL2     0.900000E-01   1.00800           0
      6625 MEMB     59       POPC     H12S     HAL2     0.900000E-01   1.00800           0
      6626 MEMB     59       POPC     C213     CTL2    -0.180000       12.0110           0
      6627 MEMB     59       POPC     H13R     HAL2     0.900000E-01   1.00800           0
      6628 MEMB     59       POPC     H13S     HAL2     0.900000E-01   1.00800           0
      6629 MEMB     59       POPC     C214     CTL2    -0.180000       12.0110           0
      6630 MEMB     59       POPC     H14R     HAL2     0.900000E-01   1.00800           0
      6631 MEMB     59       POPC     H14S     HAL2     0.900000E-01   1.00800           0
      6632 MEMB     59       POPC     C215     CTL2    -0.180000       12.0110           0
      6633 MEMB     59       POPC     H15R     HAL2     0.900000E-01   1.00800           0
      6634 MEMB     59       POPC     H15S     HAL2     0.900000E-01   1.00800           0
      6635 MEMB     59       POPC     C216     CTL2    -0.180000       12.0110           0
      6636 MEMB     59       POPC     H16R     HAL2     0.900000E-01   1.00800           0
      6637 MEMB     59       POPC     H16S     HAL2     0.900000E-01   1.00800           0
      6638 MEMB     59       POPC     C217     CTL2    -0.180000       12.0110           0
      6639 MEMB     59       POPC     H17R     HAL2     0.900000E-01   1.00800           0
      6640 MEMB     59       POPC     H17S     HAL2     0.900000E-01   1.00800           0
      6641 MEMB     59       POPC     C218     CTL3    -0.270000       12.0110           0
      6642 MEMB     59       POPC     H18R     HAL3     0.900000E-01   1.00800           0
      6643 MEMB     59       POPC     H18S     HAL3     0.900000E-01   1.00800           0
      6644 MEMB     59       POPC     H18T     HAL3     0.900000E-01   1.00800           0
      6645 MEMB     59       POPC     C33      CTL2    -0.180000       12.0110           0
      6646 MEMB     59       POPC     H3X      HAL2     0.900000E-01   1.00800           0
      6647 MEMB     59       POPC     H3Y      HAL2     0.900000E-01   1.00800           0
      6648 MEMB     59       POPC     C34      CTL2    -0.180000       12.0110           0
      6649 MEMB     59       POPC     H4X      HAL2     0.900000E-01   1.00800           0
      6650 MEMB     59       POPC     H4Y      HAL2     0.900000E-01   1.00800           0
      6651 MEMB     59       POPC     C35      CTL2    -0.180000       12.0110           0
      6652 MEMB     59       POPC     H5X      HAL2     0.900000E-01   1.00800           0
      6653 MEMB     59       POPC     H5Y      HAL2     0.900000E-01   1.00800           0
      6654 MEMB     59       POPC     C36      CTL2    -0.180000       12.0110           0
      6655 MEMB     59       POPC     H6X      HAL2     0.900000E-01   1.00800           0
      6656 MEMB     59       POPC     H6Y      HAL2     0.900000E-01   1.00800           0
      6657 MEMB     59       POPC     C37      CTL2    -0.180000       12.0110           0
      6658 MEMB     59       POPC     H7X      HAL2     0.900000E-01   1.00800           0
      6659 MEMB     59       POPC     H7Y      HAL2     0.900000E-01   1.00800           0
      6660 MEMB     59       POPC     C38      CTL2    -0.180000       12.0110           0
      6661 MEMB     59       POPC     H8X      HAL2     0.900000E-01   1.00800           0
      6662 MEMB     59       POPC     H8Y      HAL2     0.900000E-01   1.00800           0
      6663 MEMB     59       POPC     C39      CTL2    -0.180000       12.0110           0
      6664 MEMB     59       POPC     H9X      HAL2     0.900000E-01   1.00800           0
      6665 MEMB     59       POPC     H9Y      HAL2     0.900000E-01   1.00800           0
      6666 MEMB     59       POPC     C310     CTL2    -0.180000       12.0110           0
      6667 MEMB     59       POPC     H10X     HAL2     0.900000E-01   1.00800           0
      6668 MEMB     59       POPC     H10Y     HAL2     0.900000E-01   1.00800           0
      6669 MEMB     59       POPC     C311     CTL2    -0.180000       12.0110           0
      6670 MEMB     59       POPC     H11X     HAL2     0.900000E-01   1.00800           0
      6671 MEMB     59       POPC     H11Y     HAL2     0.900000E-01   1.00800           0
      6672 MEMB     59       POPC     C312     CTL2    -0.180000       12.0110           0
      6673 MEMB     59       POPC     H12X     HAL2     0.900000E-01   1.00800           0
      6674 MEMB     59       POPC     H12Y     HAL2     0.900000E-01   1.00800           0
      6675 MEMB     59       POPC     C313     CTL2    -0.180000       12.0110           0
      6676 MEMB     59       POPC     H13X     HAL2     0.900000E-01   1.00800           0
      6677 MEMB     59       POPC     H13Y     HAL2     0.900000E-01   1.00800           0
      6678 MEMB     59       POPC     C314     CTL2    -0.180000       12.0110           0
      6679 MEMB     59       POPC     H14X     HAL2     0.900000E-01   1.00800           0
      6680 MEMB     59       POPC     H14Y     HAL2     0.900000E-01   1.00800           0
      6681 MEMB     59       POPC     C315     CTL2    -0.180000       12.0110           0
      6682 MEMB     59       POPC     H15X     HAL2     0.900000E-01   1.00800           0
      6683 MEMB     59       POPC     H15Y     HAL2     0.900000E-01   1.00800           0
      6684 MEMB     59       POPC     C316     CTL3    -0.270000       12.0110           0
      6685 MEMB     59       POPC     H16X     HAL3     0.900000E-01   1.00800           0
      6686 MEMB     59       POPC     H16Y     HAL3     0.900000E-01   1.00800           0
      6687 MEMB     59       POPC     H16Z     HAL3     0.900000E-01   1.00800           0
      6688 MEMB     60       PSM      N        NTL     -0.600000       14.0070           0
      6689 MEMB     60       PSM      C15      CTL5    -0.350000       12.0110           0
      6690 MEMB     60       PSM      H15A     HL       0.250000       1.00800           0
      6691 MEMB     60       PSM      H15B     HL       0.250000       1.00800           0
      6692 MEMB     60       PSM      H15C     HL       0.250000       1.00800           0
      6693 MEMB     60       PSM      C14      CTL5    -0.350000       12.0110           0
      6694 MEMB     60       PSM      H14A     HL       0.250000       1.00800           0
      6695 MEMB     60       PSM      H14B     HL       0.250000       1.00800           0
      6696 MEMB     60       PSM      H14C     HL       0.250000       1.00800           0
      6697 MEMB     60       PSM      C13      CTL5    -0.350000       12.0110           0
      6698 MEMB     60       PSM      H13A     HL       0.250000       1.00800           0
      6699 MEMB     60       PSM      H13B     HL       0.250000       1.00800           0
      6700 MEMB     60       PSM      H13C     HL       0.250000       1.00800           0
      6701 MEMB     60       PSM      C12      CTL2    -0.100000       12.0110           0
      6702 MEMB     60       PSM      H12A     HL       0.250000       1.00800           0
      6703 MEMB     60       PSM      H12B     HL       0.250000       1.00800           0
      6704 MEMB     60       PSM      C11      CTL2    -0.800000E-01   12.0110           0
      6705 MEMB     60       PSM      H11A     HAL2     0.900000E-01   1.00800           0
      6706 MEMB     60       PSM      H11B     HAL2     0.900000E-01   1.00800           0
      6707 MEMB     60       PSM      P        PL       1.500000       30.9740           0
      6708 MEMB     60       PSM      O13      O2L     -0.780000       15.9994           0
      6709 MEMB     60       PSM      O14      O2L     -0.780000       15.9994           0
      6710 MEMB     60       PSM      O11      OSLP    -0.570000       15.9994           0
      6711 MEMB     60       PSM      O12      OSLP    -0.570000       15.9994           0
      6712 MEMB     60       PSM      C1S      CTL2    -0.800000E-01   12.0110           0
      6713 MEMB     60       PSM      H1S      HAL2     0.900000E-01   1.00800           0
      6714 MEMB     60       PSM      H1T      HAL2     0.900000E-01   1.00800           0
      6715 MEMB     60       PSM      NF       NHL     -0.700000       14.0070           0
      6716 MEMB     60       PSM      HNF      H        0.350000       1.00800           0
      6717 MEMB     60       PSM      C2S      CTL1     0.300000       12.0110           0
      6718 MEMB     60       PSM      H2S      HAL1     0.500000E-01   1.00800           0
      6719 MEMB     60       PSM      C3S      CTO1     0.500000       12.0110           0
      6720 MEMB     60       PSM      H3S      HAL1    -0.110000       1.00800           0
      6721 MEMB     60       PSM      O3       OHL     -0.690000       15.9994           0
      6722 MEMB     60       PSM      HO3      HOL      0.300000       1.00800           0
      6723 MEMB     60       PSM      C4S      CEL3    -0.150000       12.0110           0
      6724 MEMB     60       PSM      H4S      HEL1     0.150000       1.00800           0
      6725 MEMB     60       PSM      C5S      CEL3    -0.150000       12.0110           0
      6726 MEMB     60       PSM      H5S      HEL1     0.150000       1.00800           0
      6727 MEMB     60       PSM      C6S      CTL2    -0.180000       12.0110           0
      6728 MEMB     60       PSM      H6S      HAL2     0.900000E-01   1.00800           0
      6729 MEMB     60       PSM      H6T      HAL2     0.900000E-01   1.00800           0
      6730 MEMB     60       PSM      C7S      CTL2    -0.180000       12.0110           0
      6731 MEMB     60       PSM      H7S      HAL2     0.900000E-01   1.00800           0
      6732 MEMB     60       PSM      H7T      HAL2     0.900000E-01   1.00800           0
      6733 MEMB     60       PSM      C8S      CTL2    -0.180000       12.0110           0
      6734 MEMB     60       PSM      H8S      HAL2     0.900000E-01   1.00800           0
      6735 MEMB     60       PSM      H8T      HAL2     0.900000E-01   1.00800           0
      6736 MEMB     60       PSM      C9S      CTL2    -0.180000       12.0110           0
      6737 MEMB     60       PSM      H9S      HAL2     0.900000E-01   1.00800           0
      6738 MEMB     60       PSM      H9T      HAL2     0.900000E-01   1.00800           0
      6739 MEMB     60       PSM      C10S     CTL2    -0.180000       12.0110           0
      6740 MEMB     60       PSM      H10S     HAL2     0.900000E-01   1.00800           0
      6741 MEMB     60       PSM      H10T     HAL2     0.900000E-01   1.00800           0
      6742 MEMB     60       PSM      C11S     CTL2    -0.180000       12.0110           0
      6743 MEMB     60       PSM      H11S     HAL2     0.900000E-01   1.00800           0
      6744 MEMB     60       PSM      H11T     HAL2     0.900000E-01   1.00800           0
      6745 MEMB     60       PSM      C12S     CTL2    -0.180000       12.0110           0
      6746 MEMB     60       PSM      H12S     HAL2     0.900000E-01   1.00800           0
      6747 MEMB     60       PSM      H12T     HAL2     0.900000E-01   1.00800           0
      6748 MEMB     60       PSM      C13S     CTL2    -0.180000       12.0110           0
      6749 MEMB     60       PSM      H13S     HAL2     0.900000E-01   1.00800           0
      6750 MEMB     60       PSM      H13T     HAL2     0.900000E-01   1.00800           0
      6751 MEMB     60       PSM      C14S     CTL2    -0.180000       12.0110           0
      6752 MEMB     60       PSM      H14S     HAL2     0.900000E-01   1.00800           0
      6753 MEMB     60       PSM      H14T     HAL2     0.900000E-01   1.00800           0
      6754 MEMB     60       PSM      C15S     CTL2    -0.180000       12.0110           0
      6755 MEMB     60       PSM      H15S     HAL2     0.900000E-01   1.00800           0
      6756 MEMB     60       PSM      H15T     HAL2     0.900000E-01   1.00800           0
      6757 MEMB     60       PSM      C16S     CTL2    -0.180000       12.0110           0
      6758 MEMB     60       PSM      H16S     HAL2     0.900000E-01   1.00800           0
      6759 MEMB     60       PSM      H16T     HAL2     0.900000E-01   1.00800           0
      6760 MEMB     60       PSM      C17S     CTL2    -0.180000       12.0110           0
      6761 MEMB     60       PSM      H17S     HAL2     0.900000E-01   1.00800           0
      6762 MEMB     60       PSM      H17T     HAL2     0.900000E-01   1.00800           0
      6763 MEMB     60       PSM      C18S     CTL3    -0.270000       12.0110           0
      6764 MEMB     60       PSM      H18S     HAL3     0.900000E-01   1.00800           0
      6765 MEMB     60       PSM      H18T     HAL3     0.900000E-01   1.00800           0
      6766 MEMB     60       PSM      H18U     HAL3     0.900000E-01   1.00800           0
      6767 MEMB     60       PSM      C1F      C        0.550000       12.0110           0
      6768 MEMB     60       PSM      OF       O       -0.600000       15.9994           0
      6769 MEMB     60       PSM      C2F      CTL2    -0.700000E-01   12.0110           0
      6770 MEMB     60       PSM      H2F      HAL2     0.600000E-01   1.00800           0
      6771 MEMB     60       PSM      H2G      HAL2     0.600000E-01   1.00800           0
      6772 MEMB     60       PSM      C3F      CTL2    -0.180000       12.0110           0
      6773 MEMB     60       PSM      H3F      HAL2     0.900000E-01   1.00800           0
      6774 MEMB     60       PSM      H3G      HAL2     0.900000E-01   1.00800           0
      6775 MEMB     60       PSM      C4F      CTL2    -0.180000       12.0110           0
      6776 MEMB     60       PSM      H4F      HAL2     0.900000E-01   1.00800           0
      6777 MEMB     60       PSM      H4G      HAL2     0.900000E-01   1.00800           0
      6778 MEMB     60       PSM      C5F      CTL2    -0.180000       12.0110           0
      6779 MEMB     60       PSM      H5F      HAL2     0.900000E-01   1.00800           0
      6780 MEMB     60       PSM      H5G      HAL2     0.900000E-01   1.00800           0
      6781 MEMB     60       PSM      C6F      CTL2    -0.180000       12.0110           0
      6782 MEMB     60       PSM      H6F      HAL2     0.900000E-01   1.00800           0
      6783 MEMB     60       PSM      H6G      HAL2     0.900000E-01   1.00800           0
      6784 MEMB     60       PSM      C7F      CTL2    -0.180000       12.0110           0
      6785 MEMB     60       PSM      H7F      HAL2     0.900000E-01   1.00800           0
      6786 MEMB     60       PSM      H7G      HAL2     0.900000E-01   1.00800           0
      6787 MEMB     60       PSM      C8F      CTL2    -0.180000       12.0110           0
      6788 MEMB     60       PSM      H8F      HAL2     0.900000E-01   1.00800           0
      6789 MEMB     60       PSM      H8G      HAL2     0.900000E-01   1.00800           0
      6790 MEMB     60       PSM      C9F      CTL2    -0.180000       12.0110           0
      6791 MEMB     60       PSM      H9F      HAL2     0.900000E-01   1.00800           0
      6792 MEMB     60       PSM      H9G      HAL2     0.900000E-01   1.00800           0
      6793 MEMB     60       PSM      C10F     CTL2    -0.180000       12.0110           0
      6794 MEMB     60       PSM      H10F     HAL2     0.900000E-01   1.00800           0
      6795 MEMB     60       PSM      H10G     HAL2     0.900000E-01   1.00800           0
      6796 MEMB     60       PSM      C11F     CTL2    -0.180000       12.0110           0
      6797 MEMB     60       PSM      H11F     HAL2     0.900000E-01   1.00800           0
      6798 MEMB     60       PSM      H11G     HAL2     0.900000E-01   1.00800           0
      6799 MEMB     60       PSM      C12F     CTL2    -0.180000       12.0110           0
      6800 MEMB     60       PSM      H12F     HAL2     0.900000E-01   1.00800           0
      6801 MEMB     60       PSM      H12G     HAL2     0.900000E-01   1.00800           0
      6802 MEMB     60       PSM      C13F     CTL2    -0.180000       12.0110           0
      6803 MEMB     60       PSM      H13F     HAL2     0.900000E-01   1.00800           0
      6804 MEMB     60       PSM      H13G     HAL2     0.900000E-01   1.00800           0
      6805 MEMB     60       PSM      C14F     CTL2    -0.180000       12.0110           0
      6806 MEMB     60       PSM      H14F     HAL2     0.900000E-01   1.00800           0
      6807 MEMB     60       PSM      H14G     HAL2     0.900000E-01   1.00800           0
      6808 MEMB     60       PSM      C15F     CTL2    -0.180000       12.0110           0
      6809 MEMB     60       PSM      H15F     HAL2     0.900000E-01   1.00800           0
      6810 MEMB     60       PSM      H15G     HAL2     0.900000E-01   1.00800           0
      6811 MEMB     60       PSM      C16F     CTL3    -0.270000       12.0110           0
      6812 MEMB     60       PSM      H16F     HAL3     0.900000E-01   1.00800           0
      6813 MEMB     60       PSM      H16G     HAL3     0.900000E-01   1.00800           0
      6814 MEMB     60       PSM      H16H     HAL3     0.900000E-01   1.00800           0
      6815 MEMB     61       CHL1     C3       CRL1     0.140000       12.0110           0
      6816 MEMB     61       CHL1     H3       HGA1     0.900000E-01   1.00800           0
      6817 MEMB     61       CHL1     O3       OHL     -0.660000       15.9994           0
      6818 MEMB     61       CHL1     H3'      HOL      0.430000       1.00800           0
      6819 MEMB     61       CHL1     C4       CRL2    -0.180000       12.0110           0
      6820 MEMB     61       CHL1     H4A      HGA2     0.900000E-01   1.00800           0
      6821 MEMB     61       CHL1     H4B      HGA2     0.900000E-01   1.00800           0
      6822 MEMB     61       CHL1     C5       CEL1     0.000000       12.0110           0
      6823 MEMB     61       CHL1     C6       CEL1    -0.150000       12.0110           0
      6824 MEMB     61       CHL1     H6       HEL1     0.150000       1.00800           0
      6825 MEMB     61       CHL1     C7       CRL2    -0.180000       12.0110           0
      6826 MEMB     61       CHL1     H7A      HGA2     0.900000E-01   1.00800           0
      6827 MEMB     61       CHL1     H7B      HGA2     0.900000E-01   1.00800           0
      6828 MEMB     61       CHL1     C8       CRL1    -0.900000E-01   12.0110           0
      6829 MEMB     61       CHL1     H8       HGA1     0.900000E-01   1.00800           0
      6830 MEMB     61       CHL1     C14      CRL1    -0.900000E-01   12.0110           0
      6831 MEMB     61       CHL1     H14      HGA1     0.900000E-01   1.00800           0
      6832 MEMB     61       CHL1     C15      CRL2    -0.180000       12.0110           0
      6833 MEMB     61       CHL1     H15A     HGA2     0.900000E-01   1.00800           0
      6834 MEMB     61       CHL1     H15B     HGA2     0.900000E-01   1.00800           0
      6835 MEMB     61       CHL1     C16      CRL2    -0.180000       12.0110           0
      6836 MEMB     61       CHL1     H16A     HGA2     0.900000E-01   1.00800           0
      6837 MEMB     61       CHL1     H16B     HGA2     0.900000E-01   1.00800           0
      6838 MEMB     61       CHL1     C17      CRL1    -0.900000E-01   12.0110           0
      6839 MEMB     61       CHL1     H17      HGA1     0.900000E-01   1.00800           0
      6840 MEMB     61       CHL1     C13      CRL1     0.000000       12.0110           0
      6841 MEMB     61       CHL1     C18      CTL3    -0.270000       12.0110           0
      6842 MEMB     61       CHL1     H18A     HAL3     0.900000E-01   1.00800           0
      6843 MEMB     61       CHL1     H18B     HAL3     0.900000E-01   1.00800           0
      6844 MEMB     61       CHL1     H18C     HAL3     0.900000E-01   1.00800           0
      6845 MEMB     61       CHL1     C12      CRL2    -0.180000       12.0110           0
      6846 MEMB     61       CHL1     H12A     HGA2     0.900000E-01   1.00800           0
      6847 MEMB     61       CHL1     H12B     HGA2     0.900000E-01   1.00800           0
      6848 MEMB     61       CHL1     C11      CRL2    -0.180000       12.0110           0
      6849 MEMB     61       CHL1     H11A     HGA2     0.900000E-01   1.00800           0
      6850 MEMB     61       CHL1     H11B     HGA2     0.900000E-01   1.00800           0
      6851 MEMB     61       CHL1     C9       CRL1    -0.900000E-01   12.0110           0
      6852 MEMB     61       CHL1     H9       HGA1     0.900000E-01   1.00800           0
      6853 MEMB     61       CHL1     C10      CRL1     0.000000       12.0110           0
      6854 MEMB     61       CHL1     C19      CTL3    -0.270000       12.0110           0
      6855 MEMB     61       CHL1     H19A     HAL3     0.900000E-01   1.00800           0
      6856 MEMB     61       CHL1     H19B     HAL3     0.900000E-01   1.00800           0
      6857 MEMB     61       CHL1     H19C     HAL3     0.900000E-01   1.00800           0
      6858 MEMB     61       CHL1     C1       CRL2    -0.180000       12.0110           0
      6859 MEMB     61       CHL1     H1A      HGA2     0.900000E-01   1.00800           0
      6860 MEMB     61       CHL1     H1B      HGA2     0.900000E-01   1.00800           0
      6861 MEMB     61       CHL1     C2       CRL2    -0.180000       12.0110           0
      6862 MEMB     61       CHL1     H2A      HGA2     0.900000E-01   1.00800           0
      6863 MEMB     61       CHL1     H2B      HGA2     0.900000E-01   1.00800           0
      6864 MEMB     61       CHL1     C20      CTL1    -0.900000E-01   12.0110           0
      6865 MEMB     61       CHL1     H20      HAL1     0.900000E-01   1.00800           0
      6866 MEMB     61       CHL1     C21      CTL3    -0.270000       12.0110           0
      6867 MEMB     61       CHL1     H21A     HAL3     0.900000E-01   1.00800           0
      6868 MEMB     61       CHL1     H21B     HAL3     0.900000E-01   1.00800           0
      6869 MEMB     61       CHL1     H21C     HAL3     0.900000E-01   1.00800           0
      6870 MEMB     61       CHL1     C22      CTL2    -0.180000       12.0110           0
      6871 MEMB     61       CHL1     H22A     HAL2     0.900000E-01   1.00800           0
      6872 MEMB     61       CHL1     H22B     HAL2     0.900000E-01   1.00800           0
      6873 MEMB     61       CHL1     C23      CTL2    -0.180000       12.0110           0
      6874 MEMB     61       CHL1     H23A     HAL2     0.900000E-01   1.00800           0
      6875 MEMB     61       CHL1     H23B     HAL2     0.900000E-01   1.00800           0
      6876 MEMB     61       CHL1     C24      CTL2    -0.180000       12.0110           0
      6877 MEMB     61       CHL1     H24A     HAL2     0.900000E-01   1.00800           0
      6878 MEMB     61       CHL1     H24B     HAL2     0.900000E-01   1.00800           0
      6879 MEMB     61       CHL1     C25      CTL1    -0.900000E-01   12.0110           0
      6880 MEMB     61       CHL1     H25      HAL1     0.900000E-01   1.00800           0
      6881 MEMB     61       CHL1     C26      CTL3    -0.270000       12.0110           0
      6882 MEMB     61       CHL1     H26A     HAL3     0.900000E-01   1.00800           0
      6883 MEMB     61       CHL1     H26B     HAL3     0.900000E-01   1.00800           0
      6884 MEMB     61       CHL1     H26C     HAL3     0.900000E-01   1.00800           0
      6885 MEMB     61       CHL1     C27      CTL3    -0.270000       12.0110           0
      6886 MEMB     61       CHL1     H27A     HAL3     0.900000E-01   1.00800           0
      6887 MEMB     61       CHL1     H27B     HAL3     0.900000E-01   1.00800           0
      6888 MEMB     61       CHL1     H27C     HAL3     0.900000E-01   1.00800           0
      6889 MEMB     62       CHL1     C3       CRL1     0.140000       12.0110           0
      6890 MEMB     62       CHL1     H3       HGA1     0.900000E-01   1.00800           0
      6891 MEMB     62       CHL1     O3       OHL     -0.660000       15.9994           0
      6892 MEMB     62       CHL1     H3'      HOL      0.430000       1.00800           0
      6893 MEMB     62       CHL1     C4       CRL2    -0.180000       12.0110           0
      6894 MEMB     62       CHL1     H4A      HGA2     0.900000E-01   1.00800           0
      6895 MEMB     62       CHL1     H4B      HGA2     0.900000E-01   1.00800           0
      6896 MEMB     62       CHL1     C5       CEL1     0.000000       12.0110           0
      6897 MEMB     62       CHL1     C6       CEL1    -0.150000       12.0110           0
      6898 MEMB     62       CHL1     H6       HEL1     0.150000       1.00800           0
      6899 MEMB     62       CHL1     C7       CRL2    -0.180000       12.0110           0
      6900 MEMB     62       CHL1     H7A      HGA2     0.900000E-01   1.00800           0
      6901 MEMB     62       CHL1     H7B      HGA2     0.900000E-01   1.00800           0
      6902 MEMB     62       CHL1     C8       CRL1    -0.900000E-01   12.0110           0
      6903 MEMB     62       CHL1     H8       HGA1     0.900000E-01   1.00800           0
      6904 MEMB     62       CHL1     C14      CRL1    -0.900000E-01   12.0110           0
      6905 MEMB     62       CHL1     H14      HGA1     0.900000E-01   1.00800           0
      6906 MEMB     62       CHL1     C15      CRL2    -0.180000       12.0110           0
      6907 MEMB     62       CHL1     H15A     HGA2     0.900000E-01   1.00800           0
      6908 MEMB     62       CHL1     H15B     HGA2     0.900000E-01   1.00800           0
      6909 MEMB     62       CHL1     C16      CRL2    -0.180000       12.0110           0
      6910 MEMB     62       CHL1     H16A     HGA2     0.900000E-01   1.00800           0
      6911 MEMB     62       CHL1     H16B     HGA2     0.900000E-01   1.00800           0
      6912 MEMB     62       CHL1     C17      CRL1    -0.900000E-01   12.0110           0
      6913 MEMB     62       CHL1     H17      HGA1     0.900000E-01   1.00800           0
      6914 MEMB     62       CHL1     C13      CRL1     0.000000       12.0110           0
      6915 MEMB     62       CHL1     C18      CTL3    -0.270000       12.0110           0
      6916 MEMB     62       CHL1     H18A     HAL3     0.900000E-01   1.00800           0
      6917 MEMB     62       CHL1     H18B     HAL3     0.900000E-01   1.00800           0
      6918 MEMB     62       CHL1     H18C     HAL3     0.900000E-01   1.00800           0
      6919 MEMB     62       CHL1     C12      CRL2    -0.180000       12.0110           0
      6920 MEMB     62       CHL1     H12A     HGA2     0.900000E-01   1.00800           0
      6921 MEMB     62       CHL1     H12B     HGA2     0.900000E-01   1.00800           0
      6922 MEMB     62       CHL1     C11      CRL2    -0.180000       12.0110           0
      6923 MEMB     62       CHL1     H11A     HGA2     0.900000E-01   1.00800           0
      6924 MEMB     62       CHL1     H11B     HGA2     0.900000E-01   1.00800           0
      6925 MEMB     62       CHL1     C9       CRL1    -0.900000E-01   12.0110           0
      6926 MEMB     62       CHL1     H9       HGA1     0.900000E-01   1.00800           0
      6927 MEMB     62       CHL1     C10      CRL1     0.000000       12.0110           0
      6928 MEMB     62       CHL1     C19      CTL3    -0.270000       12.0110           0
      6929 MEMB     62       CHL1     H19A     HAL3     0.900000E-01   1.00800           0
      6930 MEMB     62       CHL1     H19B     HAL3     0.900000E-01   1.00800           0
      6931 MEMB     62       CHL1     H19C     HAL3     0.900000E-01   1.00800           0
      6932 MEMB     62       CHL1     C1       CRL2    -0.180000       12.0110           0
      6933 MEMB     62       CHL1     H1A      HGA2     0.900000E-01   1.00800           0
      6934 MEMB     62       CHL1     H1B      HGA2     0.900000E-01   1.00800           0
      6935 MEMB     62       CHL1     C2       CRL2    -0.180000       12.0110           0
      6936 MEMB     62       CHL1     H2A      HGA2     0.900000E-01   1.00800           0
      6937 MEMB     62       CHL1     H2B      HGA2     0.900000E-01   1.00800           0
      6938 MEMB     62       CHL1     C20      CTL1    -0.900000E-01   12.0110           0
      6939 MEMB     62       CHL1     H20      HAL1     0.900000E-01   1.00800           0
      6940 MEMB     62       CHL1     C21      CTL3    -0.270000       12.0110           0
      6941 MEMB     62       CHL1     H21A     HAL3     0.900000E-01   1.00800           0
      6942 MEMB     62       CHL1     H21B     HAL3     0.900000E-01   1.00800           0
      6943 MEMB     62       CHL1     H21C     HAL3     0.900000E-01   1.00800           0
      6944 MEMB     62       CHL1     C22      CTL2    -0.180000       12.0110           0
      6945 MEMB     62       CHL1     H22A     HAL2     0.900000E-01   1.00800           0
      6946 MEMB     62       CHL1     H22B     HAL2     0.900000E-01   1.00800           0
      6947 MEMB     62       CHL1     C23      CTL2    -0.180000       12.0110           0
      6948 MEMB     62       CHL1     H23A     HAL2     0.900000E-01   1.00800           0
      6949 MEMB     62       CHL1     H23B     HAL2     0.900000E-01   1.00800           0
      6950 MEMB     62       CHL1     C24      CTL2    -0.180000       12.0110           0
      6951 MEMB     62       CHL1     H24A     HAL2     0.900000E-01   1.00800           0
      6952 MEMB     62       CHL1     H24B     HAL2     0.900000E-01   1.00800           0
      6953 MEMB     62       CHL1     C25      CTL1    -0.900000E-01   12.0110           0
      6954 MEMB     62       CHL1     H25      HAL1     0.900000E-01   1.00800           0
      6955 MEMB     62       CHL1     C26      CTL3    -0.270000       12.0110           0
      6956 MEMB     62       CHL1     H26A     HAL3     0.900000E-01   1.00800           0
      6957 MEMB     62       CHL1     H26B     HAL3     0.900000E-01   1.00800           0
      6958 MEMB     62       CHL1     H26C     HAL3     0.900000E-01   1.00800           0
      6959 MEMB     62       CHL1     C27      CTL3    -0.270000       12.0110           0
      6960 MEMB     62       CHL1     H27A     HAL3     0.900000E-01   1.00800           0
      6961 MEMB     62       CHL1     H27B     HAL3     0.900000E-01   1.00800           0
      6962 MEMB     62       CHL1     H27C     HAL3     0.900000E-01   1.00800           0
      6963 MEMB     63       CHL1     C3       CRL1     0.140000       12.0110           0
      6964 MEMB     63       CHL1     H3       HGA1     0.900000E-01   1.00800           0
      6965 MEMB     63       CHL1     O3       OHL     -0.660000       15.9994           0
      6966 MEMB     63       CHL1     H3'      HOL      0.430000       1.00800           0
      6967 MEMB     63       CHL1     C4       CRL2    -0.180000       12.0110           0
      6968 MEMB     63       CHL1     H4A      HGA2     0.900000E-01   1.00800           0
      6969 MEMB     63       CHL1     H4B      HGA2     0.900000E-01   1.00800           0
      6970 MEMB     63       CHL1     C5       CEL1     0.000000       12.0110           0
      6971 MEMB     63       CHL1     C6       CEL1    -0.150000       12.0110           0
      6972 MEMB     63       CHL1     H6       HEL1     0.150000       1.00800           0
      6973 MEMB     63       CHL1     C7       CRL2    -0.180000       12.0110           0
      6974 MEMB     63       CHL1     H7A      HGA2     0.900000E-01   1.00800           0
      6975 MEMB     63       CHL1     H7B      HGA2     0.900000E-01   1.00800           0
      6976 MEMB     63       CHL1     C8       CRL1    -0.900000E-01   12.0110           0
      6977 MEMB     63       CHL1     H8       HGA1     0.900000E-01   1.00800           0
      6978 MEMB     63       CHL1     C14      CRL1    -0.900000E-01   12.0110           0
      6979 MEMB     63       CHL1     H14      HGA1     0.900000E-01   1.00800           0
      6980 MEMB     63       CHL1     C15      CRL2    -0.180000       12.0110           0
      6981 MEMB     63       CHL1     H15A     HGA2     0.900000E-01   1.00800           0
      6982 MEMB     63       CHL1     H15B     HGA2     0.900000E-01   1.00800           0
      6983 MEMB     63       CHL1     C16      CRL2    -0.180000       12.0110           0
      6984 MEMB     63       CHL1     H16A     HGA2     0.900000E-01   1.00800           0
      6985 MEMB     63       CHL1     H16B     HGA2     0.900000E-01   1.00800           0
      6986 MEMB     63       CHL1     C17      CRL1    -0.900000E-01   12.0110           0
      6987 MEMB     63       CHL1     H17      HGA1     0.900000E-01   1.00800           0
      6988 MEMB     63       CHL1     C13      CRL1     0.000000       12.0110           0
      6989 MEMB     63       CHL1     C18      CTL3    -0.270000       12.0110           0
      6990 MEMB     63       CHL1     H18A     HAL3     0.900000E-01   1.00800           0
      6991 MEMB     63       CHL1     H18B     HAL3     0.900000E-01   1.00800           0
      6992 MEMB     63       CHL1     H18C     HAL3     0.900000E-01   1.00800           0
      6993 MEMB     63       CHL1     C12      CRL2    -0.180000       12.0110           0
      6994 MEMB     63       CHL1     H12A     HGA2     0.900000E-01   1.00800           0
      6995 MEMB     63       CHL1     H12B     HGA2     0.900000E-01   1.00800           0
      6996 MEMB     63       CHL1     C11      CRL2    -0.180000       12.0110           0
      6997 MEMB     63       CHL1     H11A     HGA2     0.900000E-01   1.00800           0
      6998 MEMB     63       CHL1     H11B     HGA2     0.900000E-01   1.00800           0
      6999 MEMB     63       CHL1     C9       CRL1    -0.900000E-01   12.0110           0
      7000 MEMB     63       CHL1     H9       HGA1     0.900000E-01   1.00800           0
      7001 MEMB     63       CHL1     C10      CRL1     0.000000       12.0110           0
      7002 MEMB     63       CHL1     C19      CTL3    -0.270000       12.0110           0
      7003 MEMB     63       CHL1     H19A     HAL3     0.900000E-01   1.00800           0
      7004 MEMB     63       CHL1     H19B     HAL3     0.900000E-01   1.00800           0
      7005 MEMB     63       CHL1     H19C     HAL3     0.900000E-01   1.00800           0
      7006 MEMB     63       CHL1     C1       CRL2    -0.180000       12.0110           0
      7007 MEMB     63       CHL1     H1A      HGA2     0.900000E-01   1.00800           0
      7008 MEMB     63       CHL1     H1B      HGA2     0.900000E-01   1.00800           0
      7009 MEMB     63       CHL1     C2       CRL2    -0.180000       12.0110           0
      7010 MEMB     63       CHL1     H2A      HGA2     0.900000E-01   1.00800           0
      7011 MEMB     63       CHL1     H2B      HGA2     0.900000E-01   1.00800           0
      7012 MEMB     63       CHL1     C20      CTL1    -0.900000E-01   12.0110           0
      7013 MEMB     63       CHL1     H20      HAL1     0.900000E-01   1.00800           0
      7014 MEMB     63       CHL1     C21      CTL3    -0.270000       12.0110           0
      7015 MEMB     63       CHL1     H21A     HAL3     0.900000E-01   1.00800           0
      7016 MEMB     63       CHL1     H21B     HAL3     0.900000E-01   1.00800           0
      7017 MEMB     63       CHL1     H21C     HAL3     0.900000E-01   1.00800           0
      7018 MEMB     63       CHL1     C22      CTL2    -0.180000       12.0110           0
      7019 MEMB     63       CHL1     H22A     HAL2     0.900000E-01   1.00800           0
      7020 MEMB     63       CHL1     H22B     HAL2     0.900000E-01   1.00800           0
      7021 MEMB     63       CHL1     C23      CTL2    -0.180000       12.0110           0
      7022 MEMB     63       CHL1     H23A     HAL2     0.900000E-01   1.00800           0
      7023 MEMB     63       CHL1     H23B     HAL2     0.900000E-01   1.00800           0
      7024 MEMB     63       CHL1     C24      CTL2    -0.180000       12.0110           0
      7025 MEMB     63       CHL1     H24A     HAL2     0.900000E-01   1.00800           0
      7026 MEMB     63       CHL1     H24B     HAL2     0.900000E-01   1.00800           0
      7027 MEMB     63       CHL1     C25      CTL1    -0.900000E-01   12.0110           0
      7028 MEMB     63       CHL1     H25      HAL1     0.900000E-01   1.00800           0
      7029 MEMB     63       CHL1     C26      CTL3    -0.270000       12.0110           0
      7030 MEMB     63       CHL1     H26A     HAL3     0.900000E-01   1.00800           0
      7031 MEMB     63       CHL1     H26B     HAL3     0.900000E-01   1.00800           0
      7032 MEMB     63       CHL1     H26C     HAL3     0.900000E-01   1.00800           0
      7033 MEMB     63       CHL1     C27      CTL3    -0.270000       12.0110           0
      7034 MEMB     63       CHL1     H27A     HAL3     0.900000E-01   1.00800           0
      7035 MEMB     63       CHL1     H27B     HAL3     0.900000E-01   1.00800           0
      7036 MEMB     63       CHL1     H27C     HAL3     0.900000E-01   1.00800           0
      7037 MEMB     64       CHL1     C3       CRL1     0.140000       12.0110           0
      7038 MEMB     64       CHL1     H3       HGA1     0.900000E-01   1.00800           0
      7039 MEMB     64       CHL1     O3       OHL     -0.660000       15.9994           0
      7040 MEMB     64       CHL1     H3'      HOL      0.430000       1.00800           0
      7041 MEMB     64       CHL1     C4       CRL2    -0.180000       12.0110           0
      7042 MEMB     64       CHL1     H4A      HGA2     0.900000E-01   1.00800           0
      7043 MEMB     64       CHL1     H4B      HGA2     0.900000E-01   1.00800           0
      7044 MEMB     64       CHL1     C5       CEL1     0.000000       12.0110           0
      7045 MEMB     64       CHL1     C6       CEL1    -0.150000       12.0110           0
      7046 MEMB     64       CHL1     H6       HEL1     0.150000       1.00800           0
      7047 MEMB     64       CHL1     C7       CRL2    -0.180000       12.0110           0
      7048 MEMB     64       CHL1     H7A      HGA2     0.900000E-01   1.00800           0
      7049 MEMB     64       CHL1     H7B      HGA2     0.900000E-01   1.00800           0
      7050 MEMB     64       CHL1     C8       CRL1    -0.900000E-01   12.0110           0
      7051 MEMB     64       CHL1     H8       HGA1     0.900000E-01   1.00800           0
      7052 MEMB     64       CHL1     C14      CRL1    -0.900000E-01   12.0110           0
      7053 MEMB     64       CHL1     H14      HGA1     0.900000E-01   1.00800           0
      7054 MEMB     64       CHL1     C15      CRL2    -0.180000       12.0110           0
      7055 MEMB     64       CHL1     H15A     HGA2     0.900000E-01   1.00800           0
      7056 MEMB     64       CHL1     H15B     HGA2     0.900000E-01   1.00800           0
      7057 MEMB     64       CHL1     C16      CRL2    -0.180000       12.0110           0
      7058 MEMB     64       CHL1     H16A     HGA2     0.900000E-01   1.00800           0
      7059 MEMB     64       CHL1     H16B     HGA2     0.900000E-01   1.00800           0
      7060 MEMB     64       CHL1     C17      CRL1    -0.900000E-01   12.0110           0
      7061 MEMB     64       CHL1     H17      HGA1     0.900000E-01   1.00800           0
      7062 MEMB     64       CHL1     C13      CRL1     0.000000       12.0110           0
      7063 MEMB     64       CHL1     C18      CTL3    -0.270000       12.0110           0
      7064 MEMB     64       CHL1     H18A     HAL3     0.900000E-01   1.00800           0
      7065 MEMB     64       CHL1     H18B     HAL3     0.900000E-01   1.00800           0
      7066 MEMB     64       CHL1     H18C     HAL3     0.900000E-01   1.00800           0
      7067 MEMB     64       CHL1     C12      CRL2    -0.180000       12.0110           0
      7068 MEMB     64       CHL1     H12A     HGA2     0.900000E-01   1.00800           0
      7069 MEMB     64       CHL1     H12B     HGA2     0.900000E-01   1.00800           0
      7070 MEMB     64       CHL1     C11      CRL2    -0.180000       12.0110           0
      7071 MEMB     64       CHL1     H11A     HGA2     0.900000E-01   1.00800           0
      7072 MEMB     64       CHL1     H11B     HGA2     0.900000E-01   1.00800           0
      7073 MEMB     64       CHL1     C9       CRL1    -0.900000E-01   12.0110           0
      7074 MEMB     64       CHL1     H9       HGA1     0.900000E-01   1.00800           0
      7075 MEMB     64       CHL1     C10      CRL1     0.000000       12.0110           0
      7076 MEMB     64       CHL1     C19      CTL3    -0.270000       12.0110           0
      7077 MEMB     64       CHL1     H19A     HAL3     0.900000E-01   1.00800           0
      7078 MEMB     64       CHL1     H19B     HAL3     0.900000E-01   1.00800           0
      7079 MEMB     64       CHL1     H19C     HAL3     0.900000E-01   1.00800           0
      7080 MEMB     64       CHL1     C1       CRL2    -0.180000       12.0110           0
      7081 MEMB     64       CHL1     H1A      HGA2     0.900000E-01   1.00800           0
      7082 MEMB     64       CHL1     H1B      HGA2     0.900000E-01   1.00800           0
      7083 MEMB     64       CHL1     C2       CRL2    -0.180000       12.0110           0
      7084 MEMB     64       CHL1     H2A      HGA2     0.900000E-01   1.00800           0
      7085 MEMB     64       CHL1     H2B      HGA2     0.900000E-01   1.00800           0
      7086 MEMB     64       CHL1     C20      CTL1    -0.900000E-01   12.0110           0
      7087 MEMB     64       CHL1     H20      HAL1     0.900000E-01   1.00800           0
      7088 MEMB     64       CHL1     C21      CTL3    -0.270000       12.0110           0
      7089 MEMB     64       CHL1     H21A     HAL3     0.900000E-01   1.00800           0
      7090 MEMB     64       CHL1     H21B     HAL3     0.900000E-01   1.00800           0
      7091 MEMB     64       CHL1     H21C     HAL3     0.900000E-01   1.00800           0
      7092 MEMB     64       CHL1     C22      CTL2    -0.180000       12.0110           0
      7093 MEMB     64       CHL1     H22A     HAL2     0.900000E-01   1.00800           0
      7094 MEMB     64       CHL1     H22B     HAL2     0.900000E-01   1.00800           0
      7095 MEMB     64       CHL1     C23      CTL2    -0.180000       12.0110           0
      7096 MEMB     64       CHL1     H23A     HAL2     0.900000E-01   1.00800           0
      7097 MEMB     64       CHL1     H23B     HAL2     0.900000E-01   1.00800           0
      7098 MEMB     64       CHL1     C24      CTL2    -0.180000       12.0110           0
      7099 MEMB     64       CHL1     H24A     HAL2     0.900000E-01   1.00800           0
      7100 MEMB     64       CHL1     H24B     HAL2     0.900000E-01   1.00800           0
      7101 MEMB     64       CHL1     C25      CTL1    -0.900000E-01   12.0110           0
      7102 MEMB     64       CHL1     H25      HAL1     0.900000E-01   1.00800           0
      7103 MEMB     64       CHL1     C26      CTL3    -0.270000       12.0110           0
      7104 MEMB     64       CHL1     H26A     HAL3     0.900000E-01   1.00800           0
      7105 MEMB     64       CHL1     H26B     HAL3     0.900000E-01   1.00800           0
      7106 MEMB     64       CHL1     H26C     HAL3     0.900000E-01   1.00800           0
      7107 MEMB     64       CHL1     C27      CTL3    -0.270000       12.0110           0
      7108 MEMB     64       CHL1     H27A     HAL3     0.900000E-01   1.00800           0
      7109 MEMB     64       CHL1     H27B     HAL3     0.900000E-01   1.00800           0
      7110 MEMB     64       CHL1     H27C     HAL3     0.900000E-01   1.00800           0
      7111 MEMB     65       CHL1     C3       CRL1     0.140000       12.0110           0
      7112 MEMB     65       CHL1     H3       HGA1     0.900000E-01   1.00800           0
      7113 MEMB     65       CHL1     O3       OHL     -0.660000       15.9994           0
      7114 MEMB     65       CHL1     H3'      HOL      0.430000       1.00800           0
      7115 MEMB     65       CHL1     C4       CRL2    -0.180000       12.0110           0
      7116 MEMB     65       CHL1     H4A      HGA2     0.900000E-01   1.00800           0
      7117 MEMB     65       CHL1     H4B      HGA2     0.900000E-01   1.00800           0
      7118 MEMB     65       CHL1     C5       CEL1     0.000000       12.0110           0
      7119 MEMB     65       CHL1     C6       CEL1    -0.150000       12.0110           0
      7120 MEMB     65       CHL1     H6       HEL1     0.150000       1.00800           0
      7121 MEMB     65       CHL1     C7       CRL2    -0.180000       12.0110           0
      7122 MEMB     65       CHL1     H7A      HGA2     0.900000E-01   1.00800           0
      7123 MEMB     65       CHL1     H7B      HGA2     0.900000E-01   1.00800           0
      7124 MEMB     65       CHL1     C8       CRL1    -0.900000E-01   12.0110           0
      7125 MEMB     65       CHL1     H8       HGA1     0.900000E-01   1.00800           0
      7126 MEMB     65       CHL1     C14      CRL1    -0.900000E-01   12.0110           0
      7127 MEMB     65       CHL1     H14      HGA1     0.900000E-01   1.00800           0
      7128 MEMB     65       CHL1     C15      CRL2    -0.180000       12.0110           0
      7129 MEMB     65       CHL1     H15A     HGA2     0.900000E-01   1.00800           0
      7130 MEMB     65       CHL1     H15B     HGA2     0.900000E-01   1.00800           0
      7131 MEMB     65       CHL1     C16      CRL2    -0.180000       12.0110           0
      7132 MEMB     65       CHL1     H16A     HGA2     0.900000E-01   1.00800           0
      7133 MEMB     65       CHL1     H16B     HGA2     0.900000E-01   1.00800           0
      7134 MEMB     65       CHL1     C17      CRL1    -0.900000E-01   12.0110           0
      7135 MEMB     65       CHL1     H17      HGA1     0.900000E-01   1.00800           0
      7136 MEMB     65       CHL1     C13      CRL1     0.000000       12.0110           0
      7137 MEMB     65       CHL1     C18      CTL3    -0.270000       12.0110           0
      7138 MEMB     65       CHL1     H18A     HAL3     0.900000E-01   1.00800           0
      7139 MEMB     65       CHL1     H18B     HAL3     0.900000E-01   1.00800           0
      7140 MEMB     65       CHL1     H18C     HAL3     0.900000E-01   1.00800           0
      7141 MEMB     65       CHL1     C12      CRL2    -0.180000       12.0110           0
      7142 MEMB     65       CHL1     H12A     HGA2     0.900000E-01   1.00800           0
      7143 MEMB     65       CHL1     H12B     HGA2     0.900000E-01   1.00800           0
      7144 MEMB     65       CHL1     C11      CRL2    -0.180000       12.0110           0
      7145 MEMB     65       CHL1     H11A     HGA2     0.900000E-01   1.00800           0
      7146 MEMB     65       CHL1     H11B     HGA2     0.900000E-01   1.00800           0
      7147 MEMB     65       CHL1     C9       CRL1    -0.900000E-01   12.0110           0
      7148 MEMB     65       CHL1     H9       HGA1     0.900000E-01   1.00800           0
      7149 MEMB     65       CHL1     C10      CRL1     0.000000       12.0110           0
      7150 MEMB     65       CHL1     C19      CTL3    -0.270000       12.0110           0
      7151 MEMB     65       CHL1     H19A     HAL3     0.900000E-01   1.00800           0
      7152 MEMB     65       CHL1     H19B     HAL3     0.900000E-01   1.00800           0
      7153 MEMB     65       CHL1     H19C     HAL3     0.900000E-01   1.00800           0
      7154 MEMB     65       CHL1     C1       CRL2    -0.180000       12.0110           0
      7155 MEMB     65       CHL1     H1A      HGA2     0.900000E-01   1.00800           0
      7156 MEMB     65       CHL1     H1B      HGA2     0.900000E-01   1.00800           0
      7157 MEMB     65       CHL1     C2       CRL2    -0.180000       12.0110           0
      7158 MEMB     65       CHL1     H2A      HGA2     0.900000E-01   1.00800           0
      7159 MEMB     65       CHL1     H2B      HGA2     0.900000E-01   1.00800           0
      7160 MEMB     65       CHL1     C20      CTL1    -0.900000E-01   12.0110           0
      7161 MEMB     65       CHL1     H20      HAL1     0.900000E-01   1.00800           0
      7162 MEMB     65       CHL1     C21      CTL3    -0.270000       12.0110           0
      7163 MEMB     65       CHL1     H21A     HAL3     0.900000E-01   1.00800           0
      7164 MEMB     65       CHL1     H21B     HAL3     0.900000E-01   1.00800           0
      7165 MEMB     65       CHL1     H21C     HAL3     0.900000E-01   1.00800           0
      7166 MEMB     65       CHL1     C22      CTL2    -0.180000       12.0110           0
      7167 MEMB     65       CHL1     H22A     HAL2     0.900000E-01   1.00800           0
      7168 MEMB     65       CHL1     H22B     HAL2     0.900000E-01   1.00800           0
      7169 MEMB     65       CHL1     C23      CTL2    -0.180000       12.0110           0
      7170 MEMB     65       CHL1     H23A     HAL2     0.900000E-01   1.00800           0
      7171 MEMB     65       CHL1     H23B     HAL2     0.900000E-01   1.00800           0
      7172 MEMB     65       CHL1     C24      CTL2    -0.180000       12.0110           0
      7173 MEMB     65       CHL1     H24A     HAL2     0.900000E-01   1.00800           0
      7174 MEMB     65       CHL1     H24B     HAL2     0.900000E-01   1.00800           0
      7175 MEMB     65       CHL1     C25      CTL1    -0.900000E-01   12.0110           0
      7176 MEMB     65       CHL1     H25      HAL1     0.900000E-01   1.00800           0
      7177 MEMB     65       CHL1     C26      CTL3    -0.270000       12.0110           0
      7178 MEMB     65       CHL1     H26A     HAL3     0.900000E-01   1.00800           0
      7179 MEMB     65       CHL1     H26B     HAL3     0.900000E-01   1.00800           0
      7180 MEMB     65       CHL1     H26C     HAL3     0.900000E-01   1.00800           0
      7181 MEMB     65       CHL1     C27      CTL3    -0.270000       12.0110           0
      7182 MEMB     65       CHL1     H27A     HAL3     0.900000E-01   1.00800           0
      7183 MEMB     65       CHL1     H27B     HAL3     0.900000E-01   1.00800           0
      7184 MEMB     65       CHL1     H27C     HAL3     0.900000E-01   1.00800           0
      7185 MEMB     66       CHL1     C3       CRL1     0.140000       12.0110           0
      7186 MEMB     66       CHL1     H3       HGA1     0.900000E-01   1.00800           0
      7187 MEMB     66       CHL1     O3       OHL     -0.660000       15.9994           0
      7188 MEMB     66       CHL1     H3'      HOL      0.430000       1.00800           0
      7189 MEMB     66       CHL1     C4       CRL2    -0.180000       12.0110           0
      7190 MEMB     66       CHL1     H4A      HGA2     0.900000E-01   1.00800           0
      7191 MEMB     66       CHL1     H4B      HGA2     0.900000E-01   1.00800           0
      7192 MEMB     66       CHL1     C5       CEL1     0.000000       12.0110           0
      7193 MEMB     66       CHL1     C6       CEL1    -0.150000       12.0110           0
      7194 MEMB     66       CHL1     H6       HEL1     0.150000       1.00800           0
      7195 MEMB     66       CHL1     C7       CRL2    -0.180000       12.0110           0
      7196 MEMB     66       CHL1     H7A      HGA2     0.900000E-01   1.00800           0
      7197 MEMB     66       CHL1     H7B      HGA2     0.900000E-01   1.00800           0
      7198 MEMB     66       CHL1     C8       CRL1    -0.900000E-01   12.0110           0
      7199 MEMB     66       CHL1     H8       HGA1     0.900000E-01   1.00800           0
      7200 MEMB     66       CHL1     C14      CRL1    -0.900000E-01   12.0110           0
      7201 MEMB     66       CHL1     H14      HGA1     0.900000E-01   1.00800           0
      7202 MEMB     66       CHL1     C15      CRL2    -0.180000       12.0110           0
      7203 MEMB     66       CHL1     H15A     HGA2     0.900000E-01   1.00800           0
      7204 MEMB     66       CHL1     H15B     HGA2     0.900000E-01   1.00800           0
      7205 MEMB     66       CHL1     C16      CRL2    -0.180000       12.0110           0
      7206 MEMB     66       CHL1     H16A     HGA2     0.900000E-01   1.00800           0
      7207 MEMB     66       CHL1     H16B     HGA2     0.900000E-01   1.00800           0
      7208 MEMB     66       CHL1     C17      CRL1    -0.900000E-01   12.0110           0
      7209 MEMB     66       CHL1     H17      HGA1     0.900000E-01   1.00800           0
      7210 MEMB     66       CHL1     C13      CRL1     0.000000       12.0110           0
      7211 MEMB     66       CHL1     C18      CTL3    -0.270000       12.0110           0
      7212 MEMB     66       CHL1     H18A     HAL3     0.900000E-01   1.00800           0
      7213 MEMB     66       CHL1     H18B     HAL3     0.900000E-01   1.00800           0
      7214 MEMB     66       CHL1     H18C     HAL3     0.900000E-01   1.00800           0
      7215 MEMB     66       CHL1     C12      CRL2    -0.180000       12.0110           0
      7216 MEMB     66       CHL1     H12A     HGA2     0.900000E-01   1.00800           0
      7217 MEMB     66       CHL1     H12B     HGA2     0.900000E-01   1.00800           0
      7218 MEMB     66       CHL1     C11      CRL2    -0.180000       12.0110           0
      7219 MEMB     66       CHL1     H11A     HGA2     0.900000E-01   1.00800           0
      7220 MEMB     66       CHL1     H11B     HGA2     0.900000E-01   1.00800           0
      7221 MEMB     66       CHL1     C9       CRL1    -0.900000E-01   12.0110           0
      7222 MEMB     66       CHL1     H9       HGA1     0.900000E-01   1.00800           0
      7223 MEMB     66       CHL1     C10      CRL1     0.000000       12.0110           0
      7224 MEMB     66       CHL1     C19      CTL3    -0.270000       12.0110           0
      7225 MEMB     66       CHL1     H19A     HAL3     0.900000E-01   1.00800           0
      7226 MEMB     66       CHL1     H19B     HAL3     0.900000E-01   1.00800           0
      7227 MEMB     66       CHL1     H19C     HAL3     0.900000E-01   1.00800           0
      7228 MEMB     66       CHL1     C1       CRL2    -0.180000       12.0110           0
      7229 MEMB     66       CHL1     H1A      HGA2     0.900000E-01   1.00800           0
      7230 MEMB     66       CHL1     H1B      HGA2     0.900000E-01   1.00800           0
      7231 MEMB     66       CHL1     C2       CRL2    -0.180000       12.0110           0
      7232 MEMB     66       CHL1     H2A      HGA2     0.900000E-01   1.00800           0
      7233 MEMB     66       CHL1     H2B      HGA2     0.900000E-01   1.00800           0
      7234 MEMB     66       CHL1     C20      CTL1    -0.900000E-01   12.0110           0
      7235 MEMB     66       CHL1     H20      HAL1     0.900000E-01   1.00800           0
      7236 MEMB     66       CHL1     C21      CTL3    -0.270000       12.0110           0
      7237 MEMB     66       CHL1     H21A     HAL3     0.900000E-01   1.00800           0
      7238 MEMB     66       CHL1     H21B     HAL3     0.900000E-01   1.00800           0
      7239 MEMB     66       CHL1     H21C     HAL3     0.900000E-01   1.00800           0
      7240 MEMB     66       CHL1     C22      CTL2    -0.180000       12.0110           0
      7241 MEMB     66       CHL1     H22A     HAL2     0.900000E-01   1.00800           0
      7242 MEMB     66       CHL1     H22B     HAL2     0.900000E-01   1.00800           0
      7243 MEMB     66       CHL1     C23      CTL2    -0.180000       12.0110           0
      7244 MEMB     66       CHL1     H23A     HAL2     0.900000E-01   1.00800           0
      7245 MEMB     66       CHL1     H23B     HAL2     0.900000E-01   1.00800           0
      7246 MEMB     66       CHL1     C24      CTL2    -0.180000       12.0110           0
      7247 MEMB     66       CHL1     H24A     HAL2     0.900000E-01   1.00800           0
      7248 MEMB     66       CHL1     H24B     HAL2     0.900000E-01   1.00800           0
      7249 MEMB     66       CHL1     C25      CTL1    -0.900000E-01   12.0110           0
      7250 MEMB     66       CHL1     H25      HAL1     0.900000E-01   1.00800           0
      7251 MEMB     66       CHL1     C26      CTL3    -0.270000       12.0110           0
      7252 MEMB     66       CHL1     H26A     HAL3     0.900000E-01   1.00800           0
      7253 MEMB     66       CHL1     H26B     HAL3     0.900000E-01   1.00800           0
      7254 MEMB     66       CHL1     H26C     HAL3     0.900000E-01   1.00800           0
      7255 MEMB     66       CHL1     C27      CTL3    -0.270000       12.0110           0
      7256 MEMB     66       CHL1     H27A     HAL3     0.900000E-01   1.00800           0
      7257 MEMB     66       CHL1     H27B     HAL3     0.900000E-01   1.00800           0
      7258 MEMB     66       CHL1     H27C     HAL3     0.900000E-01   1.00800           0
      7259 MEMB     67       CHL1     C3       CRL1     0.140000       12.0110           0
      7260 MEMB     67       CHL1     H3       HGA1     0.900000E-01   1.00800           0
      7261 MEMB     67       CHL1     O3       OHL     -0.660000       15.9994           0
      7262 MEMB     67       CHL1     H3'      HOL      0.430000       1.00800           0
      7263 MEMB     67       CHL1     C4       CRL2    -0.180000       12.0110           0
      7264 MEMB     67       CHL1     H4A      HGA2     0.900000E-01   1.00800           0
      7265 MEMB     67       CHL1     H4B      HGA2     0.900000E-01   1.00800           0
      7266 MEMB     67       CHL1     C5       CEL1     0.000000       12.0110           0
      7267 MEMB     67       CHL1     C6       CEL1    -0.150000       12.0110           0
      7268 MEMB     67       CHL1     H6       HEL1     0.150000       1.00800           0
      7269 MEMB     67       CHL1     C7       CRL2    -0.180000       12.0110           0
      7270 MEMB     67       CHL1     H7A      HGA2     0.900000E-01   1.00800           0
      7271 MEMB     67       CHL1     H7B      HGA2     0.900000E-01   1.00800           0
      7272 MEMB     67       CHL1     C8       CRL1    -0.900000E-01   12.0110           0
      7273 MEMB     67       CHL1     H8       HGA1     0.900000E-01   1.00800           0
      7274 MEMB     67       CHL1     C14      CRL1    -0.900000E-01   12.0110           0
      7275 MEMB     67       CHL1     H14      HGA1     0.900000E-01   1.00800           0
      7276 MEMB     67       CHL1     C15      CRL2    -0.180000       12.0110           0
      7277 MEMB     67       CHL1     H15A     HGA2     0.900000E-01   1.00800           0
      7278 MEMB     67       CHL1     H15B     HGA2     0.900000E-01   1.00800           0
      7279 MEMB     67       CHL1     C16      CRL2    -0.180000       12.0110           0
      7280 MEMB     67       CHL1     H16A     HGA2     0.900000E-01   1.00800           0
      7281 MEMB     67       CHL1     H16B     HGA2     0.900000E-01   1.00800           0
      7282 MEMB     67       CHL1     C17      CRL1    -0.900000E-01   12.0110           0
      7283 MEMB     67       CHL1     H17      HGA1     0.900000E-01   1.00800           0
      7284 MEMB     67       CHL1     C13      CRL1     0.000000       12.0110           0
      7285 MEMB     67       CHL1     C18      CTL3    -0.270000       12.0110           0
      7286 MEMB     67       CHL1     H18A     HAL3     0.900000E-01   1.00800           0
      7287 MEMB     67       CHL1     H18B     HAL3     0.900000E-01   1.00800           0
      7288 MEMB     67       CHL1     H18C     HAL3     0.900000E-01   1.00800           0
      7289 MEMB     67       CHL1     C12      CRL2    -0.180000       12.0110           0
      7290 MEMB     67       CHL1     H12A     HGA2     0.900000E-01   1.00800           0
      7291 MEMB     67       CHL1     H12B     HGA2     0.900000E-01   1.00800           0
      7292 MEMB     67       CHL1     C11      CRL2    -0.180000       12.0110           0
      7293 MEMB     67       CHL1     H11A     HGA2     0.900000E-01   1.00800           0
      7294 MEMB     67       CHL1     H11B     HGA2     0.900000E-01   1.00800           0
      7295 MEMB     67       CHL1     C9       CRL1    -0.900000E-01   12.0110           0
      7296 MEMB     67       CHL1     H9       HGA1     0.900000E-01   1.00800           0
      7297 MEMB     67       CHL1     C10      CRL1     0.000000       12.0110           0
      7298 MEMB     67       CHL1     C19      CTL3    -0.270000       12.0110           0
      7299 MEMB     67       CHL1     H19A     HAL3     0.900000E-01   1.00800           0
      7300 MEMB     67       CHL1     H19B     HAL3     0.900000E-01   1.00800           0
      7301 MEMB     67       CHL1     H19C     HAL3     0.900000E-01   1.00800           0
      7302 MEMB     67       CHL1     C1       CRL2    -0.180000       12.0110           0
      7303 MEMB     67       CHL1     H1A      HGA2     0.900000E-01   1.00800           0
      7304 MEMB     67       CHL1     H1B      HGA2     0.900000E-01   1.00800           0
      7305 MEMB     67       CHL1     C2       CRL2    -0.180000       12.0110           0
      7306 MEMB     67       CHL1     H2A      HGA2     0.900000E-01   1.00800           0
      7307 MEMB     67       CHL1     H2B      HGA2     0.900000E-01   1.00800           0
      7308 MEMB     67       CHL1     C20      CTL1    -0.900000E-01   12.0110           0
      7309 MEMB     67       CHL1     H20      HAL1     0.900000E-01   1.00800           0
      7310 MEMB     67       CHL1     C21      CTL3    -0.270000       12.0110           0
      7311 MEMB     67       CHL1     H21A     HAL3     0.900000E-01   1.00800           0
      7312 MEMB     67       CHL1     H21B     HAL3     0.900000E-01   1.00800           0
      7313 MEMB     67       CHL1     H21C     HAL3     0.900000E-01   1.00800           0
      7314 MEMB     67       CHL1     C22      CTL2    -0.180000       12.0110           0
      7315 MEMB     67       CHL1     H22A     HAL2     0.900000E-01   1.00800           0
      7316 MEMB     67       CHL1     H22B     HAL2     0.900000E-01   1.00800           0
      7317 MEMB     67       CHL1     C23      CTL2    -0.180000       12.0110           0
      7318 MEMB     67       CHL1     H23A     HAL2     0.900000E-01   1.00800           0
      7319 MEMB     67       CHL1     H23B     HAL2     0.900000E-01   1.00800           0
      7320 MEMB     67       CHL1     C24      CTL2    -0.180000       12.0110           0
      7321 MEMB     67       CHL1     H24A     HAL2     0.900000E-01   1.00800           0
      7322 MEMB     67       CHL1     H24B     HAL2     0.900000E-01   1.00800           0
      7323 MEMB     67       CHL1     C25      CTL1    -0.900000E-01   12.0110           0
      7324 MEMB     67       CHL1     H25      HAL1     0.900000E-01   1.00800           0
      7325 MEMB     67       CHL1     C26      CTL3    -0.270000       12.0110           0
      7326 MEMB     67       CHL1     H26A     HAL3     0.900000E-01   1.00800           0
      7327 MEMB     67       CHL1     H26B     HAL3     0.900000E-01   1.00800           0
      7328 MEMB     67       CHL1     H26C     HAL3     0.900000E-01   1.00800           0
      7329 MEMB     67       CHL1     C27      CTL3    -0.270000       12.0110           0
      7330 MEMB     67       CHL1     H27A     HAL3     0.900000E-01   1.00800           0
      7331 MEMB     67       CHL1     H27B     HAL3     0.900000E-01   1.00800           0
      7332 MEMB     67       CHL1     H27C     HAL3     0.900000E-01   1.00800           0
      7333 MEMB     68       CHL1     C3       CRL1     0.140000       12.0110           0
      7334 MEMB     68       CHL1     H3       HGA1     0.900000E-01   1.00800           0
      7335 MEMB     68       CHL1     O3       OHL     -0.660000       15.9994           0
      7336 MEMB     68       CHL1     H3'      HOL      0.430000       1.00800           0
      7337 MEMB     68       CHL1     C4       CRL2    -0.180000       12.0110           0
      7338 MEMB     68       CHL1     H4A      HGA2     0.900000E-01   1.00800           0
      7339 MEMB     68       CHL1     H4B      HGA2     0.900000E-01   1.00800           0
      7340 MEMB     68       CHL1     C5       CEL1     0.000000       12.0110           0
      7341 MEMB     68       CHL1     C6       CEL1    -0.150000       12.0110           0
      7342 MEMB     68       CHL1     H6       HEL1     0.150000       1.00800           0
      7343 MEMB     68       CHL1     C7       CRL2    -0.180000       12.0110           0
      7344 MEMB     68       CHL1     H7A      HGA2     0.900000E-01   1.00800           0
      7345 MEMB     68       CHL1     H7B      HGA2     0.900000E-01   1.00800           0
      7346 MEMB     68       CHL1     C8       CRL1    -0.900000E-01   12.0110           0
      7347 MEMB     68       CHL1     H8       HGA1     0.900000E-01   1.00800           0
      7348 MEMB     68       CHL1     C14      CRL1    -0.900000E-01   12.0110           0
      7349 MEMB     68       CHL1     H14      HGA1     0.900000E-01   1.00800           0
      7350 MEMB     68       CHL1     C15      CRL2    -0.180000       12.0110           0
      7351 MEMB     68       CHL1     H15A     HGA2     0.900000E-01   1.00800           0
      7352 MEMB     68       CHL1     H15B     HGA2     0.900000E-01   1.00800           0
      7353 MEMB     68       CHL1     C16      CRL2    -0.180000       12.0110           0
      7354 MEMB     68       CHL1     H16A     HGA2     0.900000E-01   1.00800           0
      7355 MEMB     68       CHL1     H16B     HGA2     0.900000E-01   1.00800           0
      7356 MEMB     68       CHL1     C17      CRL1    -0.900000E-01   12.0110           0
      7357 MEMB     68       CHL1     H17      HGA1     0.900000E-01   1.00800           0
      7358 MEMB     68       CHL1     C13      CRL1     0.000000       12.0110           0
      7359 MEMB     68       CHL1     C18      CTL3    -0.270000       12.0110           0
      7360 MEMB     68       CHL1     H18A     HAL3     0.900000E-01   1.00800           0
      7361 MEMB     68       CHL1     H18B     HAL3     0.900000E-01   1.00800           0
      7362 MEMB     68       CHL1     H18C     HAL3     0.900000E-01   1.00800           0
      7363 MEMB     68       CHL1     C12      CRL2    -0.180000       12.0110           0
      7364 MEMB     68       CHL1     H12A     HGA2     0.900000E-01   1.00800           0
      7365 MEMB     68       CHL1     H12B     HGA2     0.900000E-01   1.00800           0
      7366 MEMB     68       CHL1     C11      CRL2    -0.180000       12.0110           0
      7367 MEMB     68       CHL1     H11A     HGA2     0.900000E-01   1.00800           0
      7368 MEMB     68       CHL1     H11B     HGA2     0.900000E-01   1.00800           0
      7369 MEMB     68       CHL1     C9       CRL1    -0.900000E-01   12.0110           0
      7370 MEMB     68       CHL1     H9       HGA1     0.900000E-01   1.00800           0
      7371 MEMB     68       CHL1     C10      CRL1     0.000000       12.0110           0
      7372 MEMB     68       CHL1     C19      CTL3    -0.270000       12.0110           0
      7373 MEMB     68       CHL1     H19A     HAL3     0.900000E-01   1.00800           0
      7374 MEMB     68       CHL1     H19B     HAL3     0.900000E-01   1.00800           0
      7375 MEMB     68       CHL1     H19C     HAL3     0.900000E-01   1.00800           0
      7376 MEMB     68       CHL1     C1       CRL2    -0.180000       12.0110           0
      7377 MEMB     68       CHL1     H1A      HGA2     0.900000E-01   1.00800           0
      7378 MEMB     68       CHL1     H1B      HGA2     0.900000E-01   1.00800           0
      7379 MEMB     68       CHL1     C2       CRL2    -0.180000       12.0110           0
      7380 MEMB     68       CHL1     H2A      HGA2     0.900000E-01   1.00800           0
      7381 MEMB     68       CHL1     H2B      HGA2     0.900000E-01   1.00800           0
      7382 MEMB     68       CHL1     C20      CTL1    -0.900000E-01   12.0110           0
      7383 MEMB     68       CHL1     H20      HAL1     0.900000E-01   1.00800           0
      7384 MEMB     68       CHL1     C21      CTL3    -0.270000       12.0110           0
      7385 MEMB     68       CHL1     H21A     HAL3     0.900000E-01   1.00800           0
      7386 MEMB     68       CHL1     H21B     HAL3     0.900000E-01   1.00800           0
      7387 MEMB     68       CHL1     H21C     HAL3     0.900000E-01   1.00800           0
      7388 MEMB     68       CHL1     C22      CTL2    -0.180000       12.0110           0
      7389 MEMB     68       CHL1     H22A     HAL2     0.900000E-01   1.00800           0
      7390 MEMB     68       CHL1     H22B     HAL2     0.900000E-01   1.00800           0
      7391 MEMB     68       CHL1     C23      CTL2    -0.180000       12.0110           0
      7392 MEMB     68       CHL1     H23A     HAL2     0.900000E-01   1.00800           0
      7393 MEMB     68       CHL1     H23B     HAL2     0.900000E-01   1.00800           0
      7394 MEMB     68       CHL1     C24      CTL2    -0.180000       12.0110           0
      7395 MEMB     68       CHL1     H24A     HAL2     0.900000E-01   1.00800           0
      7396 MEMB     68       CHL1     H24B     HAL2     0.900000E-01   1.00800           0
      7397 MEMB     68       CHL1     C25      CTL1    -0.900000E-01   12.0110           0
      7398 MEMB     68       CHL1     H25      HAL1     0.900000E-01   1.00800           0
      7399 MEMB     68       CHL1     C26      CTL3    -0.270000       12.0110           0
      7400 MEMB     68       CHL1     H26A     HAL3     0.900000E-01   1.00800           0
      7401 MEMB     68       CHL1     H26B     HAL3     0.900000E-01   1.00800           0
      7402 MEMB     68       CHL1     H26C     HAL3     0.900000E-01   1.00800           0
      7403 MEMB     68       CHL1     C27      CTL3    -0.270000       12.0110           0
      7404 MEMB     68       CHL1     H27A     HAL3     0.900000E-01   1.00800           0
      7405 MEMB     68       CHL1     H27B     HAL3     0.900000E-01   1.00800           0
      7406 MEMB     68       CHL1     H27C     HAL3     0.900000E-01   1.00800           0
      7407 MEMB     69       CHL1     C3       CRL1     0.140000       12.0110           0
      7408 MEMB     69       CHL1     H3       HGA1     0.900000E-01   1.00800           0
      7409 MEMB     69       CHL1     O3       OHL     -0.660000       15.9994           0
      7410 MEMB     69       CHL1     H3'      HOL      0.430000       1.00800           0
      7411 MEMB     69       CHL1     C4       CRL2    -0.180000       12.0110           0
      7412 MEMB     69       CHL1     H4A      HGA2     0.900000E-01   1.00800           0
      7413 MEMB     69       CHL1     H4B      HGA2     0.900000E-01   1.00800           0
      7414 MEMB     69       CHL1     C5       CEL1     0.000000       12.0110           0
      7415 MEMB     69       CHL1     C6       CEL1    -0.150000       12.0110           0
      7416 MEMB     69       CHL1     H6       HEL1     0.150000       1.00800           0
      7417 MEMB     69       CHL1     C7       CRL2    -0.180000       12.0110           0
      7418 MEMB     69       CHL1     H7A      HGA2     0.900000E-01   1.00800           0
      7419 MEMB     69       CHL1     H7B      HGA2     0.900000E-01   1.00800           0
      7420 MEMB     69       CHL1     C8       CRL1    -0.900000E-01   12.0110           0
      7421 MEMB     69       CHL1     H8       HGA1     0.900000E-01   1.00800           0
      7422 MEMB     69       CHL1     C14      CRL1    -0.900000E-01   12.0110           0
      7423 MEMB     69       CHL1     H14      HGA1     0.900000E-01   1.00800           0
      7424 MEMB     69       CHL1     C15      CRL2    -0.180000       12.0110           0
      7425 MEMB     69       CHL1     H15A     HGA2     0.900000E-01   1.00800           0
      7426 MEMB     69       CHL1     H15B     HGA2     0.900000E-01   1.00800           0
      7427 MEMB     69       CHL1     C16      CRL2    -0.180000       12.0110           0
      7428 MEMB     69       CHL1     H16A     HGA2     0.900000E-01   1.00800           0
      7429 MEMB     69       CHL1     H16B     HGA2     0.900000E-01   1.00800           0
      7430 MEMB     69       CHL1     C17      CRL1    -0.900000E-01   12.0110           0
      7431 MEMB     69       CHL1     H17      HGA1     0.900000E-01   1.00800           0
      7432 MEMB     69       CHL1     C13      CRL1     0.000000       12.0110           0
      7433 MEMB     69       CHL1     C18      CTL3    -0.270000       12.0110           0
      7434 MEMB     69       CHL1     H18A     HAL3     0.900000E-01   1.00800           0
      7435 MEMB     69       CHL1     H18B     HAL3     0.900000E-01   1.00800           0
      7436 MEMB     69       CHL1     H18C     HAL3     0.900000E-01   1.00800           0
      7437 MEMB     69       CHL1     C12      CRL2    -0.180000       12.0110           0
      7438 MEMB     69       CHL1     H12A     HGA2     0.900000E-01   1.00800           0
      7439 MEMB     69       CHL1     H12B     HGA2     0.900000E-01   1.00800           0
      7440 MEMB     69       CHL1     C11      CRL2    -0.180000       12.0110           0
      7441 MEMB     69       CHL1     H11A     HGA2     0.900000E-01   1.00800           0
      7442 MEMB     69       CHL1     H11B     HGA2     0.900000E-01   1.00800           0
      7443 MEMB     69       CHL1     C9       CRL1    -0.900000E-01   12.0110           0
      7444 MEMB     69       CHL1     H9       HGA1     0.900000E-01   1.00800           0
      7445 MEMB     69       CHL1     C10      CRL1     0.000000       12.0110           0
      7446 MEMB     69       CHL1     C19      CTL3    -0.270000       12.0110           0
      7447 MEMB     69       CHL1     H19A     HAL3     0.900000E-01   1.00800           0
      7448 MEMB     69       CHL1     H19B     HAL3     0.900000E-01   1.00800           0
      7449 MEMB     69       CHL1     H19C     HAL3     0.900000E-01   1.00800           0
      7450 MEMB     69       CHL1     C1       CRL2    -0.180000       12.0110           0
      7451 MEMB     69       CHL1     H1A      HGA2     0.900000E-01   1.00800           0
      7452 MEMB     69       CHL1     H1B      HGA2     0.900000E-01   1.00800           0
      7453 MEMB     69       CHL1     C2       CRL2    -0.180000       12.0110           0
      7454 MEMB     69       CHL1     H2A      HGA2     0.900000E-01   1.00800           0
      7455 MEMB     69       CHL1     H2B      HGA2     0.900000E-01   1.00800           0
      7456 MEMB     69       CHL1     C20      CTL1    -0.900000E-01   12.0110           0
      7457 MEMB     69       CHL1     H20      HAL1     0.900000E-01   1.00800           0
      7458 MEMB     69       CHL1     C21      CTL3    -0.270000       12.0110           0
      7459 MEMB     69       CHL1     H21A     HAL3     0.900000E-01   1.00800           0
      7460 MEMB     69       CHL1     H21B     HAL3     0.900000E-01   1.00800           0
      7461 MEMB     69       CHL1     H21C     HAL3     0.900000E-01   1.00800           0
      7462 MEMB     69       CHL1     C22      CTL2    -0.180000       12.0110           0
      7463 MEMB     69       CHL1     H22A     HAL2     0.900000E-01   1.00800           0
      7464 MEMB     69       CHL1     H22B     HAL2     0.900000E-01   1.00800           0
      7465 MEMB     69       CHL1     C23      CTL2    -0.180000       12.0110           0
      7466 MEMB     69       CHL1     H23A     HAL2     0.900000E-01   1.00800           0
      7467 MEMB     69       CHL1     H23B     HAL2     0.900000E-01   1.00800           0
      7468 MEMB     69       CHL1     C24      CTL2    -0.180000       12.0110           0
      7469 MEMB     69       CHL1     H24A     HAL2     0.900000E-01   1.00800           0
      7470 MEMB     69       CHL1     H24B     HAL2     0.900000E-01   1.00800           0
      7471 MEMB     69       CHL1     C25      CTL1    -0.900000E-01   12.0110           0
      7472 MEMB     69       CHL1     H25      HAL1     0.900000E-01   1.00800           0
      7473 MEMB     69       CHL1     C26      CTL3    -0.270000       12.0110           0
      7474 MEMB     69       CHL1     H26A     HAL3     0.900000E-01   1.00800           0
      7475 MEMB     69       CHL1     H26B     HAL3     0.900000E-01   1.00800           0
      7476 MEMB     69       CHL1     H26C     HAL3     0.900000E-01   1.00800           0
      7477 MEMB     69       CHL1     C27      CTL3    -0.270000       12.0110           0
      7478 MEMB     69       CHL1     H27A     HAL3     0.900000E-01   1.00800           0
      7479 MEMB     69       CHL1     H27B     HAL3     0.900000E-01   1.00800           0
      7480 MEMB     69       CHL1     H27C     HAL3     0.900000E-01   1.00800           0
      7481 MEMB     70       CHL1     C3       CRL1     0.140000       12.0110           0
      7482 MEMB     70       CHL1     H3       HGA1     0.900000E-01   1.00800           0
      7483 MEMB     70       CHL1     O3       OHL     -0.660000       15.9994           0
      7484 MEMB     70       CHL1     H3'      HOL      0.430000       1.00800           0
      7485 MEMB     70       CHL1     C4       CRL2    -0.180000       12.0110           0
      7486 MEMB     70       CHL1     H4A      HGA2     0.900000E-01   1.00800           0
      7487 MEMB     70       CHL1     H4B      HGA2     0.900000E-01   1.00800           0
      7488 MEMB     70       CHL1     C5       CEL1     0.000000       12.0110           0
      7489 MEMB     70       CHL1     C6       CEL1    -0.150000       12.0110           0
      7490 MEMB     70       CHL1     H6       HEL1     0.150000       1.00800           0
      7491 MEMB     70       CHL1     C7       CRL2    -0.180000       12.0110           0
      7492 MEMB     70       CHL1     H7A      HGA2     0.900000E-01   1.00800           0
      7493 MEMB     70       CHL1     H7B      HGA2     0.900000E-01   1.00800           0
      7494 MEMB     70       CHL1     C8       CRL1    -0.900000E-01   12.0110           0
      7495 MEMB     70       CHL1     H8       HGA1     0.900000E-01   1.00800           0
      7496 MEMB     70       CHL1     C14      CRL1    -0.900000E-01   12.0110           0
      7497 MEMB     70       CHL1     H14      HGA1     0.900000E-01   1.00800           0
      7498 MEMB     70       CHL1     C15      CRL2    -0.180000       12.0110           0
      7499 MEMB     70       CHL1     H15A     HGA2     0.900000E-01   1.00800           0
      7500 MEMB     70       CHL1     H15B     HGA2     0.900000E-01   1.00800           0
      7501 MEMB     70       CHL1     C16      CRL2    -0.180000       12.0110           0
      7502 MEMB     70       CHL1     H16A     HGA2     0.900000E-01   1.00800           0
      7503 MEMB     70       CHL1     H16B     HGA2     0.900000E-01   1.00800           0
      7504 MEMB     70       CHL1     C17      CRL1    -0.900000E-01   12.0110           0
      7505 MEMB     70       CHL1     H17      HGA1     0.900000E-01   1.00800           0
      7506 MEMB     70       CHL1     C13      CRL1     0.000000       12.0110           0
      7507 MEMB     70       CHL1     C18      CTL3    -0.270000       12.0110           0
      7508 MEMB     70       CHL1     H18A     HAL3     0.900000E-01   1.00800           0
      7509 MEMB     70       CHL1     H18B     HAL3     0.900000E-01   1.00800           0
      7510 MEMB     70       CHL1     H18C     HAL3     0.900000E-01   1.00800           0
      7511 MEMB     70       CHL1     C12      CRL2    -0.180000       12.0110           0
      7512 MEMB     70       CHL1     H12A     HGA2     0.900000E-01   1.00800           0
      7513 MEMB     70       CHL1     H12B     HGA2     0.900000E-01   1.00800           0
      7514 MEMB     70       CHL1     C11      CRL2    -0.180000       12.0110           0
      7515 MEMB     70       CHL1     H11A     HGA2     0.900000E-01   1.00800           0
      7516 MEMB     70       CHL1     H11B     HGA2     0.900000E-01   1.00800           0
      7517 MEMB     70       CHL1     C9       CRL1    -0.900000E-01   12.0110           0
      7518 MEMB     70       CHL1     H9       HGA1     0.900000E-01   1.00800           0
      7519 MEMB     70       CHL1     C10      CRL1     0.000000       12.0110           0
      7520 MEMB     70       CHL1     C19      CTL3    -0.270000       12.0110           0
      7521 MEMB     70       CHL1     H19A     HAL3     0.900000E-01   1.00800           0
      7522 MEMB     70       CHL1     H19B     HAL3     0.900000E-01   1.00800           0
      7523 MEMB     70       CHL1     H19C     HAL3     0.900000E-01   1.00800           0
      7524 MEMB     70       CHL1     C1       CRL2    -0.180000       12.0110           0
      7525 MEMB     70       CHL1     H1A      HGA2     0.900000E-01   1.00800           0
      7526 MEMB     70       CHL1     H1B      HGA2     0.900000E-01   1.00800           0
      7527 MEMB     70       CHL1     C2       CRL2    -0.180000       12.0110           0
      7528 MEMB     70       CHL1     H2A      HGA2     0.900000E-01   1.00800           0
      7529 MEMB     70       CHL1     H2B      HGA2     0.900000E-01   1.00800           0
      7530 MEMB     70       CHL1     C20      CTL1    -0.900000E-01   12.0110           0
      7531 MEMB     70       CHL1     H20      HAL1     0.900000E-01   1.00800           0
      7532 MEMB     70       CHL1     C21      CTL3    -0.270000       12.0110           0
      7533 MEMB     70       CHL1     H21A     HAL3     0.900000E-01   1.00800           0
      7534 MEMB     70       CHL1     H21B     HAL3     0.900000E-01   1.00800           0
      7535 MEMB     70       CHL1     H21C     HAL3     0.900000E-01   1.00800           0
      7536 MEMB     70       CHL1     C22      CTL2    -0.180000       12.0110           0
      7537 MEMB     70       CHL1     H22A     HAL2     0.900000E-01   1.00800           0
      7538 MEMB     70       CHL1     H22B     HAL2     0.900000E-01   1.00800           0
      7539 MEMB     70       CHL1     C23      CTL2    -0.180000       12.0110           0
      7540 MEMB     70       CHL1     H23A     HAL2     0.900000E-01   1.00800           0
      7541 MEMB     70       CHL1     H23B     HAL2     0.900000E-01   1.00800           0
      7542 MEMB     70       CHL1     C24      CTL2    -0.180000       12.0110           0
      7543 MEMB     70       CHL1     H24A     HAL2     0.900000E-01   1.00800           0
      7544 MEMB     70       CHL1     H24B     HAL2     0.900000E-01   1.00800           0
      7545 MEMB     70       CHL1     C25      CTL1    -0.900000E-01   12.0110           0
      7546 MEMB     70       CHL1     H25      HAL1     0.900000E-01   1.00800           0
      7547 MEMB     70       CHL1     C26      CTL3    -0.270000       12.0110           0
      7548 MEMB     70       CHL1     H26A     HAL3     0.900000E-01   1.00800           0
      7549 MEMB     70       CHL1     H26B     HAL3     0.900000E-01   1.00800           0
      7550 MEMB     70       CHL1     H26C     HAL3     0.900000E-01   1.00800           0
      7551 MEMB     70       CHL1     C27      CTL3    -0.270000       12.0110           0
      7552 MEMB     70       CHL1     H27A     HAL3     0.900000E-01   1.00800           0
      7553 MEMB     70       CHL1     H27B     HAL3     0.900000E-01   1.00800           0
      7554 MEMB     70       CHL1     H27C     HAL3     0.900000E-01   1.00800           0
      7555 MEMB     71       CHL1     C3       CRL1     0.140000       12.0110           0
      7556 MEMB     71       CHL1     H3       HGA1     0.900000E-01   1.00800           0
      7557 MEMB     71       CHL1     O3       OHL     -0.660000       15.9994           0
      7558 MEMB     71       CHL1     H3'      HOL      0.430000       1.00800           0
      7559 MEMB     71       CHL1     C4       CRL2    -0.180000       12.0110           0
      7560 MEMB     71       CHL1     H4A      HGA2     0.900000E-01   1.00800           0
      7561 MEMB     71       CHL1     H4B      HGA2     0.900000E-01   1.00800           0
      7562 MEMB     71       CHL1     C5       CEL1     0.000000       12.0110           0
      7563 MEMB     71       CHL1     C6       CEL1    -0.150000       12.0110           0
      7564 MEMB     71       CHL1     H6       HEL1     0.150000       1.00800           0
      7565 MEMB     71       CHL1     C7       CRL2    -0.180000       12.0110           0
      7566 MEMB     71       CHL1     H7A      HGA2     0.900000E-01   1.00800           0
      7567 MEMB     71       CHL1     H7B      HGA2     0.900000E-01   1.00800           0
      7568 MEMB     71       CHL1     C8       CRL1    -0.900000E-01   12.0110           0
      7569 MEMB     71       CHL1     H8       HGA1     0.900000E-01   1.00800           0
      7570 MEMB     71       CHL1     C14      CRL1    -0.900000E-01   12.0110           0
      7571 MEMB     71       CHL1     H14      HGA1     0.900000E-01   1.00800           0
      7572 MEMB     71       CHL1     C15      CRL2    -0.180000       12.0110           0
      7573 MEMB     71       CHL1     H15A     HGA2     0.900000E-01   1.00800           0
      7574 MEMB     71       CHL1     H15B     HGA2     0.900000E-01   1.00800           0
      7575 MEMB     71       CHL1     C16      CRL2    -0.180000       12.0110           0
      7576 MEMB     71       CHL1     H16A     HGA2     0.900000E-01   1.00800           0
      7577 MEMB     71       CHL1     H16B     HGA2     0.900000E-01   1.00800           0
      7578 MEMB     71       CHL1     C17      CRL1    -0.900000E-01   12.0110           0
      7579 MEMB     71       CHL1     H17      HGA1     0.900000E-01   1.00800           0
      7580 MEMB     71       CHL1     C13      CRL1     0.000000       12.0110           0
      7581 MEMB     71       CHL1     C18      CTL3    -0.270000       12.0110           0
      7582 MEMB     71       CHL1     H18A     HAL3     0.900000E-01   1.00800           0
      7583 MEMB     71       CHL1     H18B     HAL3     0.900000E-01   1.00800           0
      7584 MEMB     71       CHL1     H18C     HAL3     0.900000E-01   1.00800           0
      7585 MEMB     71       CHL1     C12      CRL2    -0.180000       12.0110           0
      7586 MEMB     71       CHL1     H12A     HGA2     0.900000E-01   1.00800           0
      7587 MEMB     71       CHL1     H12B     HGA2     0.900000E-01   1.00800           0
      7588 MEMB     71       CHL1     C11      CRL2    -0.180000       12.0110           0
      7589 MEMB     71       CHL1     H11A     HGA2     0.900000E-01   1.00800           0
      7590 MEMB     71       CHL1     H11B     HGA2     0.900000E-01   1.00800           0
      7591 MEMB     71       CHL1     C9       CRL1    -0.900000E-01   12.0110           0
      7592 MEMB     71       CHL1     H9       HGA1     0.900000E-01   1.00800           0
      7593 MEMB     71       CHL1     C10      CRL1     0.000000       12.0110           0
      7594 MEMB     71       CHL1     C19      CTL3    -0.270000       12.0110           0
      7595 MEMB     71       CHL1     H19A     HAL3     0.900000E-01   1.00800           0
      7596 MEMB     71       CHL1     H19B     HAL3     0.900000E-01   1.00800           0
      7597 MEMB     71       CHL1     H19C     HAL3     0.900000E-01   1.00800           0
      7598 MEMB     71       CHL1     C1       CRL2    -0.180000       12.0110           0
      7599 MEMB     71       CHL1     H1A      HGA2     0.900000E-01   1.00800           0
      7600 MEMB     71       CHL1     H1B      HGA2     0.900000E-01   1.00800           0
      7601 MEMB     71       CHL1     C2       CRL2    -0.180000       12.0110           0
      7602 MEMB     71       CHL1     H2A      HGA2     0.900000E-01   1.00800           0
      7603 MEMB     71       CHL1     H2B      HGA2     0.900000E-01   1.00800           0
      7604 MEMB     71       CHL1     C20      CTL1    -0.900000E-01   12.0110           0
      7605 MEMB     71       CHL1     H20      HAL1     0.900000E-01   1.00800           0
      7606 MEMB     71       CHL1     C21      CTL3    -0.270000       12.0110           0
      7607 MEMB     71       CHL1     H21A     HAL3     0.900000E-01   1.00800           0
      7608 MEMB     71       CHL1     H21B     HAL3     0.900000E-01   1.00800           0
      7609 MEMB     71       CHL1     H21C     HAL3     0.900000E-01   1.00800           0
      7610 MEMB     71       CHL1     C22      CTL2    -0.180000       12.0110           0
      7611 MEMB     71       CHL1     H22A     HAL2     0.900000E-01   1.00800           0
      7612 MEMB     71       CHL1     H22B     HAL2     0.900000E-01   1.00800           0
      7613 MEMB     71       CHL1     C23      CTL2    -0.180000       12.0110           0
      7614 MEMB     71       CHL1     H23A     HAL2     0.900000E-01   1.00800           0
      7615 MEMB     71       CHL1     H23B     HAL2     0.900000E-01   1.00800           0
      7616 MEMB     71       CHL1     C24      CTL2    -0.180000       12.0110           0
      7617 MEMB     71       CHL1     H24A     HAL2     0.900000E-01   1.00800           0
      7618 MEMB     71       CHL1     H24B     HAL2     0.900000E-01   1.00800           0
      7619 MEMB     71       CHL1     C25      CTL1    -0.900000E-01   12.0110           0
      7620 MEMB     71       CHL1     H25      HAL1     0.900000E-01   1.00800           0
      7621 MEMB     71       CHL1     C26      CTL3    -0.270000       12.0110           0
      7622 MEMB     71       CHL1     H26A     HAL3     0.900000E-01   1.00800           0
      7623 MEMB     71       CHL1     H26B     HAL3     0.900000E-01   1.00800           0
      7624 MEMB     71       CHL1     H26C     HAL3     0.900000E-01   1.00800           0
      7625 MEMB     71       CHL1     C27      CTL3    -0.270000       12.0110           0
      7626 MEMB     71       CHL1     H27A     HAL3     0.900000E-01   1.00800           0
      7627 MEMB     71       CHL1     H27B     HAL3     0.900000E-01   1.00800           0
      7628 MEMB     71       CHL1     H27C     HAL3     0.900000E-01   1.00800           0
      7629 MEMB     72       CHL1     C3       CRL1     0.140000       12.0110           0
      7630 MEMB     72       CHL1     H3       HGA1     0.900000E-01   1.00800           0
      7631 MEMB     72       CHL1     O3       OHL     -0.660000       15.9994           0
      7632 MEMB     72       CHL1     H3'      HOL      0.430000       1.00800           0
      7633 MEMB     72       CHL1     C4       CRL2    -0.180000       12.0110           0
      7634 MEMB     72       CHL1     H4A      HGA2     0.900000E-01   1.00800           0
      7635 MEMB     72       CHL1     H4B      HGA2     0.900000E-01   1.00800           0
      7636 MEMB     72       CHL1     C5       CEL1     0.000000       12.0110           0
      7637 MEMB     72       CHL1     C6       CEL1    -0.150000       12.0110           0
      7638 MEMB     72       CHL1     H6       HEL1     0.150000       1.00800           0
      7639 MEMB     72       CHL1     C7       CRL2    -0.180000       12.0110           0
      7640 MEMB     72       CHL1     H7A      HGA2     0.900000E-01   1.00800           0
      7641 MEMB     72       CHL1     H7B      HGA2     0.900000E-01   1.00800           0
      7642 MEMB     72       CHL1     C8       CRL1    -0.900000E-01   12.0110           0
      7643 MEMB     72       CHL1     H8       HGA1     0.900000E-01   1.00800           0
      7644 MEMB     72       CHL1     C14      CRL1    -0.900000E-01   12.0110           0
      7645 MEMB     72       CHL1     H14      HGA1     0.900000E-01   1.00800           0
      7646 MEMB     72       CHL1     C15      CRL2    -0.180000       12.0110           0
      7647 MEMB     72       CHL1     H15A     HGA2     0.900000E-01   1.00800           0
      7648 MEMB     72       CHL1     H15B     HGA2     0.900000E-01   1.00800           0
      7649 MEMB     72       CHL1     C16      CRL2    -0.180000       12.0110           0
      7650 MEMB     72       CHL1     H16A     HGA2     0.900000E-01   1.00800           0
      7651 MEMB     72       CHL1     H16B     HGA2     0.900000E-01   1.00800           0
      7652 MEMB     72       CHL1     C17      CRL1    -0.900000E-01   12.0110           0
      7653 MEMB     72       CHL1     H17      HGA1     0.900000E-01   1.00800           0
      7654 MEMB     72       CHL1     C13      CRL1     0.000000       12.0110           0
      7655 MEMB     72       CHL1     C18      CTL3    -0.270000       12.0110           0
      7656 MEMB     72       CHL1     H18A     HAL3     0.900000E-01   1.00800           0
      7657 MEMB     72       CHL1     H18B     HAL3     0.900000E-01   1.00800           0
      7658 MEMB     72       CHL1     H18C     HAL3     0.900000E-01   1.00800           0
      7659 MEMB     72       CHL1     C12      CRL2    -0.180000       12.0110           0
      7660 MEMB     72       CHL1     H12A     HGA2     0.900000E-01   1.00800           0
      7661 MEMB     72       CHL1     H12B     HGA2     0.900000E-01   1.00800           0
      7662 MEMB     72       CHL1     C11      CRL2    -0.180000       12.0110           0
      7663 MEMB     72       CHL1     H11A     HGA2     0.900000E-01   1.00800           0
      7664 MEMB     72       CHL1     H11B     HGA2     0.900000E-01   1.00800           0
      7665 MEMB     72       CHL1     C9       CRL1    -0.900000E-01   12.0110           0
      7666 MEMB     72       CHL1     H9       HGA1     0.900000E-01   1.00800           0
      7667 MEMB     72       CHL1     C10      CRL1     0.000000       12.0110           0
      7668 MEMB     72       CHL1     C19      CTL3    -0.270000       12.0110           0
      7669 MEMB     72       CHL1     H19A     HAL3     0.900000E-01   1.00800           0
      7670 MEMB     72       CHL1     H19B     HAL3     0.900000E-01   1.00800           0
      7671 MEMB     72       CHL1     H19C     HAL3     0.900000E-01   1.00800           0
      7672 MEMB     72       CHL1     C1       CRL2    -0.180000       12.0110           0
      7673 MEMB     72       CHL1     H1A      HGA2     0.900000E-01   1.00800           0
      7674 MEMB     72       CHL1     H1B      HGA2     0.900000E-01   1.00800           0
      7675 MEMB     72       CHL1     C2       CRL2    -0.180000       12.0110           0
      7676 MEMB     72       CHL1     H2A      HGA2     0.900000E-01   1.00800           0
      7677 MEMB     72       CHL1     H2B      HGA2     0.900000E-01   1.00800           0
      7678 MEMB     72       CHL1     C20      CTL1    -0.900000E-01   12.0110           0
      7679 MEMB     72       CHL1     H20      HAL1     0.900000E-01   1.00800           0
      7680 MEMB     72       CHL1     C21      CTL3    -0.270000       12.0110           0
      7681 MEMB     72       CHL1     H21A     HAL3     0.900000E-01   1.00800           0
      7682 MEMB     72       CHL1     H21B     HAL3     0.900000E-01   1.00800           0
      7683 MEMB     72       CHL1     H21C     HAL3     0.900000E-01   1.00800           0
      7684 MEMB     72       CHL1     C22      CTL2    -0.180000       12.0110           0
      7685 MEMB     72       CHL1     H22A     HAL2     0.900000E-01   1.00800           0
      7686 MEMB     72       CHL1     H22B     HAL2     0.900000E-01   1.00800           0
      7687 MEMB     72       CHL1     C23      CTL2    -0.180000       12.0110           0
      7688 MEMB     72       CHL1     H23A     HAL2     0.900000E-01   1.00800           0
      7689 MEMB     72       CHL1     H23B     HAL2     0.900000E-01   1.00800           0
      7690 MEMB     72       CHL1     C24      CTL2    -0.180000       12.0110           0
      7691 MEMB     72       CHL1     H24A     HAL2     0.900000E-01   1.00800           0
      7692 MEMB     72       CHL1     H24B     HAL2     0.900000E-01   1.00800           0
      7693 MEMB     72       CHL1     C25      CTL1    -0.900000E-01   12.0110           0
      7694 MEMB     72       CHL1     H25      HAL1     0.900000E-01   1.00800           0
      7695 MEMB     72       CHL1     C26      CTL3    -0.270000       12.0110           0
      7696 MEMB     72       CHL1     H26A     HAL3     0.900000E-01   1.00800           0
      7697 MEMB     72       CHL1     H26B     HAL3     0.900000E-01   1.00800           0
      7698 MEMB     72       CHL1     H26C     HAL3     0.900000E-01   1.00800           0
      7699 MEMB     72       CHL1     C27      CTL3    -0.270000       12.0110           0
      7700 MEMB     72       CHL1     H27A     HAL3     0.900000E-01   1.00800           0
      7701 MEMB     72       CHL1     H27B     HAL3     0.900000E-01   1.00800           0
      7702 MEMB     72       CHL1     H27C     HAL3     0.900000E-01   1.00800           0
      7703 MEMB     73       CHL1     C3       CRL1     0.140000       12.0110           0
      7704 MEMB     73       CHL1     H3       HGA1     0.900000E-01   1.00800           0
      7705 MEMB     73       CHL1     O3       OHL     -0.660000       15.9994           0
      7706 MEMB     73       CHL1     H3'      HOL      0.430000       1.00800           0
      7707 MEMB     73       CHL1     C4       CRL2    -0.180000       12.0110           0
      7708 MEMB     73       CHL1     H4A      HGA2     0.900000E-01   1.00800           0
      7709 MEMB     73       CHL1     H4B      HGA2     0.900000E-01   1.00800           0
      7710 MEMB     73       CHL1     C5       CEL1     0.000000       12.0110           0
      7711 MEMB     73       CHL1     C6       CEL1    -0.150000       12.0110           0
      7712 MEMB     73       CHL1     H6       HEL1     0.150000       1.00800           0
      7713 MEMB     73       CHL1     C7       CRL2    -0.180000       12.0110           0
      7714 MEMB     73       CHL1     H7A      HGA2     0.900000E-01   1.00800           0
      7715 MEMB     73       CHL1     H7B      HGA2     0.900000E-01   1.00800           0
      7716 MEMB     73       CHL1     C8       CRL1    -0.900000E-01   12.0110           0
      7717 MEMB     73       CHL1     H8       HGA1     0.900000E-01   1.00800           0
      7718 MEMB     73       CHL1     C14      CRL1    -0.900000E-01   12.0110           0
      7719 MEMB     73       CHL1     H14      HGA1     0.900000E-01   1.00800           0
      7720 MEMB     73       CHL1     C15      CRL2    -0.180000       12.0110           0
      7721 MEMB     73       CHL1     H15A     HGA2     0.900000E-01   1.00800           0
      7722 MEMB     73       CHL1     H15B     HGA2     0.900000E-01   1.00800           0
      7723 MEMB     73       CHL1     C16      CRL2    -0.180000       12.0110           0
      7724 MEMB     73       CHL1     H16A     HGA2     0.900000E-01   1.00800           0
      7725 MEMB     73       CHL1     H16B     HGA2     0.900000E-01   1.00800           0
      7726 MEMB     73       CHL1     C17      CRL1    -0.900000E-01   12.0110           0
      7727 MEMB     73       CHL1     H17      HGA1     0.900000E-01   1.00800           0
      7728 MEMB     73       CHL1     C13      CRL1     0.000000       12.0110           0
      7729 MEMB     73       CHL1     C18      CTL3    -0.270000       12.0110           0
      7730 MEMB     73       CHL1     H18A     HAL3     0.900000E-01   1.00800           0
      7731 MEMB     73       CHL1     H18B     HAL3     0.900000E-01   1.00800           0
      7732 MEMB     73       CHL1     H18C     HAL3     0.900000E-01   1.00800           0
      7733 MEMB     73       CHL1     C12      CRL2    -0.180000       12.0110           0
      7734 MEMB     73       CHL1     H12A     HGA2     0.900000E-01   1.00800           0
      7735 MEMB     73       CHL1     H12B     HGA2     0.900000E-01   1.00800           0
      7736 MEMB     73       CHL1     C11      CRL2    -0.180000       12.0110           0
      7737 MEMB     73       CHL1     H11A     HGA2     0.900000E-01   1.00800           0
      7738 MEMB     73       CHL1     H11B     HGA2     0.900000E-01   1.00800           0
      7739 MEMB     73       CHL1     C9       CRL1    -0.900000E-01   12.0110           0
      7740 MEMB     73       CHL1     H9       HGA1     0.900000E-01   1.00800           0
      7741 MEMB     73       CHL1     C10      CRL1     0.000000       12.0110           0
      7742 MEMB     73       CHL1     C19      CTL3    -0.270000       12.0110           0
      7743 MEMB     73       CHL1     H19A     HAL3     0.900000E-01   1.00800           0
      7744 MEMB     73       CHL1     H19B     HAL3     0.900000E-01   1.00800           0
      7745 MEMB     73       CHL1     H19C     HAL3     0.900000E-01   1.00800           0
      7746 MEMB     73       CHL1     C1       CRL2    -0.180000       12.0110           0
      7747 MEMB     73       CHL1     H1A      HGA2     0.900000E-01   1.00800           0
      7748 MEMB     73       CHL1     H1B      HGA2     0.900000E-01   1.00800           0
      7749 MEMB     73       CHL1     C2       CRL2    -0.180000       12.0110           0
      7750 MEMB     73       CHL1     H2A      HGA2     0.900000E-01   1.00800           0
      7751 MEMB     73       CHL1     H2B      HGA2     0.900000E-01   1.00800           0
      7752 MEMB     73       CHL1     C20      CTL1    -0.900000E-01   12.0110           0
      7753 MEMB     73       CHL1     H20      HAL1     0.900000E-01   1.00800           0
      7754 MEMB     73       CHL1     C21      CTL3    -0.270000       12.0110           0
      7755 MEMB     73       CHL1     H21A     HAL3     0.900000E-01   1.00800           0
      7756 MEMB     73       CHL1     H21B     HAL3     0.900000E-01   1.00800           0
      7757 MEMB     73       CHL1     H21C     HAL3     0.900000E-01   1.00800           0
      7758 MEMB     73       CHL1     C22      CTL2    -0.180000       12.0110           0
      7759 MEMB     73       CHL1     H22A     HAL2     0.900000E-01   1.00800           0
      7760 MEMB     73       CHL1     H22B     HAL2     0.900000E-01   1.00800           0
      7761 MEMB     73       CHL1     C23      CTL2    -0.180000       12.0110           0
      7762 MEMB     73       CHL1     H23A     HAL2     0.900000E-01   1.00800           0
      7763 MEMB     73       CHL1     H23B     HAL2     0.900000E-01   1.00800           0
      7764 MEMB     73       CHL1     C24      CTL2    -0.180000       12.0110           0
      7765 MEMB     73       CHL1     H24A     HAL2     0.900000E-01   1.00800           0
      7766 MEMB     73       CHL1     H24B     HAL2     0.900000E-01   1.00800           0
      7767 MEMB     73       CHL1     C25      CTL1    -0.900000E-01   12.0110           0
      7768 MEMB     73       CHL1     H25      HAL1     0.900000E-01   1.00800           0
      7769 MEMB     73       CHL1     C26      CTL3    -0.270000       12.0110           0
      7770 MEMB     73       CHL1     H26A     HAL3     0.900000E-01   1.00800           0
      7771 MEMB     73       CHL1     H26B     HAL3     0.900000E-01   1.00800           0
      7772 MEMB     73       CHL1     H26C     HAL3     0.900000E-01   1.00800           0
      7773 MEMB     73       CHL1     C27      CTL3    -0.270000       12.0110           0
      7774 MEMB     73       CHL1     H27A     HAL3     0.900000E-01   1.00800           0
      7775 MEMB     73       CHL1     H27B     HAL3     0.900000E-01   1.00800           0
      7776 MEMB     73       CHL1     H27C     HAL3     0.900000E-01   1.00800           0
      7777 MEMB     74       CHL1     C3       CRL1     0.140000       12.0110           0
      7778 MEMB     74       CHL1     H3       HGA1     0.900000E-01   1.00800           0
      7779 MEMB     74       CHL1     O3       OHL     -0.660000       15.9994           0
      7780 MEMB     74       CHL1     H3'      HOL      0.430000       1.00800           0
      7781 MEMB     74       CHL1     C4       CRL2    -0.180000       12.0110           0
      7782 MEMB     74       CHL1     H4A      HGA2     0.900000E-01   1.00800           0
      7783 MEMB     74       CHL1     H4B      HGA2     0.900000E-01   1.00800           0
      7784 MEMB     74       CHL1     C5       CEL1     0.000000       12.0110           0
      7785 MEMB     74       CHL1     C6       CEL1    -0.150000       12.0110           0
      7786 MEMB     74       CHL1     H6       HEL1     0.150000       1.00800           0
      7787 MEMB     74       CHL1     C7       CRL2    -0.180000       12.0110           0
      7788 MEMB     74       CHL1     H7A      HGA2     0.900000E-01   1.00800           0
      7789 MEMB     74       CHL1     H7B      HGA2     0.900000E-01   1.00800           0
      7790 MEMB     74       CHL1     C8       CRL1    -0.900000E-01   12.0110           0
      7791 MEMB     74       CHL1     H8       HGA1     0.900000E-01   1.00800           0
      7792 MEMB     74       CHL1     C14      CRL1    -0.900000E-01   12.0110           0
      7793 MEMB     74       CHL1     H14      HGA1     0.900000E-01   1.00800           0
      7794 MEMB     74       CHL1     C15      CRL2    -0.180000       12.0110           0
      7795 MEMB     74       CHL1     H15A     HGA2     0.900000E-01   1.00800           0
      7796 MEMB     74       CHL1     H15B     HGA2     0.900000E-01   1.00800           0
      7797 MEMB     74       CHL1     C16      CRL2    -0.180000       12.0110           0
      7798 MEMB     74       CHL1     H16A     HGA2     0.900000E-01   1.00800           0
      7799 MEMB     74       CHL1     H16B     HGA2     0.900000E-01   1.00800           0
      7800 MEMB     74       CHL1     C17      CRL1    -0.900000E-01   12.0110           0
      7801 MEMB     74       CHL1     H17      HGA1     0.900000E-01   1.00800           0
      7802 MEMB     74       CHL1     C13      CRL1     0.000000       12.0110           0
      7803 MEMB     74       CHL1     C18      CTL3    -0.270000       12.0110           0
      7804 MEMB     74       CHL1     H18A     HAL3     0.900000E-01   1.00800           0
      7805 MEMB     74       CHL1     H18B     HAL3     0.900000E-01   1.00800           0
      7806 MEMB     74       CHL1     H18C     HAL3     0.900000E-01   1.00800           0
      7807 MEMB     74       CHL1     C12      CRL2    -0.180000       12.0110           0
      7808 MEMB     74       CHL1     H12A     HGA2     0.900000E-01   1.00800           0
      7809 MEMB     74       CHL1     H12B     HGA2     0.900000E-01   1.00800           0
      7810 MEMB     74       CHL1     C11      CRL2    -0.180000       12.0110           0
      7811 MEMB     74       CHL1     H11A     HGA2     0.900000E-01   1.00800           0
      7812 MEMB     74       CHL1     H11B     HGA2     0.900000E-01   1.00800           0
      7813 MEMB     74       CHL1     C9       CRL1    -0.900000E-01   12.0110           0
      7814 MEMB     74       CHL1     H9       HGA1     0.900000E-01   1.00800           0
      7815 MEMB     74       CHL1     C10      CRL1     0.000000       12.0110           0
      7816 MEMB     74       CHL1     C19      CTL3    -0.270000       12.0110           0
      7817 MEMB     74       CHL1     H19A     HAL3     0.900000E-01   1.00800           0
      7818 MEMB     74       CHL1     H19B     HAL3     0.900000E-01   1.00800           0
      7819 MEMB     74       CHL1     H19C     HAL3     0.900000E-01   1.00800           0
      7820 MEMB     74       CHL1     C1       CRL2    -0.180000       12.0110           0
      7821 MEMB     74       CHL1     H1A      HGA2     0.900000E-01   1.00800           0
      7822 MEMB     74       CHL1     H1B      HGA2     0.900000E-01   1.00800           0
      7823 MEMB     74       CHL1     C2       CRL2    -0.180000       12.0110           0
      7824 MEMB     74       CHL1     H2A      HGA2     0.900000E-01   1.00800           0
      7825 MEMB     74       CHL1     H2B      HGA2     0.900000E-01   1.00800           0
      7826 MEMB     74       CHL1     C20      CTL1    -0.900000E-01   12.0110           0
      7827 MEMB     74       CHL1     H20      HAL1     0.900000E-01   1.00800           0
      7828 MEMB     74       CHL1     C21      CTL3    -0.270000       12.0110           0
      7829 MEMB     74       CHL1     H21A     HAL3     0.900000E-01   1.00800           0
      7830 MEMB     74       CHL1     H21B     HAL3     0.900000E-01   1.00800           0
      7831 MEMB     74       CHL1     H21C     HAL3     0.900000E-01   1.00800           0
      7832 MEMB     74       CHL1     C22      CTL2    -0.180000       12.0110           0
      7833 MEMB     74       CHL1     H22A     HAL2     0.900000E-01   1.00800           0
      7834 MEMB     74       CHL1     H22B     HAL2     0.900000E-01   1.00800           0
      7835 MEMB     74       CHL1     C23      CTL2    -0.180000       12.0110           0
      7836 MEMB     74       CHL1     H23A     HAL2     0.900000E-01   1.00800           0
      7837 MEMB     74       CHL1     H23B     HAL2     0.900000E-01   1.00800           0
      7838 MEMB     74       CHL1     C24      CTL2    -0.180000       12.0110           0
      7839 MEMB     74       CHL1     H24A     HAL2     0.900000E-01   1.00800           0
      7840 MEMB     74       CHL1     H24B     HAL2     0.900000E-01   1.00800           0
      7841 MEMB     74       CHL1     C25      CTL1    -0.900000E-01   12.0110           0
      7842 MEMB     74       CHL1     H25      HAL1     0.900000E-01   1.00800           0
      7843 MEMB     74       CHL1     C26      CTL3    -0.270000       12.0110           0
      7844 MEMB     74       CHL1     H26A     HAL3     0.900000E-01   1.00800           0
      7845 MEMB     74       CHL1     H26B     HAL3     0.900000E-01   1.00800           0
      7846 MEMB     74       CHL1     H26C     HAL3     0.900000E-01   1.00800           0
      7847 MEMB     74       CHL1     C27      CTL3    -0.270000       12.0110           0
      7848 MEMB     74       CHL1     H27A     HAL3     0.900000E-01   1.00800           0
      7849 MEMB     74       CHL1     H27B     HAL3     0.900000E-01   1.00800           0
      7850 MEMB     74       CHL1     H27C     HAL3     0.900000E-01   1.00800           0
      7851 MEMB     75       CHL1     C3       CRL1     0.140000       12.0110           0
      7852 MEMB     75       CHL1     H3       HGA1     0.900000E-01   1.00800           0
      7853 MEMB     75       CHL1     O3       OHL     -0.660000       15.9994           0
      7854 MEMB     75       CHL1     H3'      HOL      0.430000       1.00800           0
      7855 MEMB     75       CHL1     C4       CRL2    -0.180000       12.0110           0
      7856 MEMB     75       CHL1     H4A      HGA2     0.900000E-01   1.00800           0
      7857 MEMB     75       CHL1     H4B      HGA2     0.900000E-01   1.00800           0
      7858 MEMB     75       CHL1     C5       CEL1     0.000000       12.0110           0
      7859 MEMB     75       CHL1     C6       CEL1    -0.150000       12.0110           0
      7860 MEMB     75       CHL1     H6       HEL1     0.150000       1.00800           0
      7861 MEMB     75       CHL1     C7       CRL2    -0.180000       12.0110           0
      7862 MEMB     75       CHL1     H7A      HGA2     0.900000E-01   1.00800           0
      7863 MEMB     75       CHL1     H7B      HGA2     0.900000E-01   1.00800           0
      7864 MEMB     75       CHL1     C8       CRL1    -0.900000E-01   12.0110           0
      7865 MEMB     75       CHL1     H8       HGA1     0.900000E-01   1.00800           0
      7866 MEMB     75       CHL1     C14      CRL1    -0.900000E-01   12.0110           0
      7867 MEMB     75       CHL1     H14      HGA1     0.900000E-01   1.00800           0
      7868 MEMB     75       CHL1     C15      CRL2    -0.180000       12.0110           0
      7869 MEMB     75       CHL1     H15A     HGA2     0.900000E-01   1.00800           0
      7870 MEMB     75       CHL1     H15B     HGA2     0.900000E-01   1.00800           0
      7871 MEMB     75       CHL1     C16      CRL2    -0.180000       12.0110           0
      7872 MEMB     75       CHL1     H16A     HGA2     0.900000E-01   1.00800           0
      7873 MEMB     75       CHL1     H16B     HGA2     0.900000E-01   1.00800           0
      7874 MEMB     75       CHL1     C17      CRL1    -0.900000E-01   12.0110           0
      7875 MEMB     75       CHL1     H17      HGA1     0.900000E-01   1.00800           0
      7876 MEMB     75       CHL1     C13      CRL1     0.000000       12.0110           0
      7877 MEMB     75       CHL1     C18      CTL3    -0.270000       12.0110           0
      7878 MEMB     75       CHL1     H18A     HAL3     0.900000E-01   1.00800           0
      7879 MEMB     75       CHL1     H18B     HAL3     0.900000E-01   1.00800           0
      7880 MEMB     75       CHL1     H18C     HAL3     0.900000E-01   1.00800           0
      7881 MEMB     75       CHL1     C12      CRL2    -0.180000       12.0110           0
      7882 MEMB     75       CHL1     H12A     HGA2     0.900000E-01   1.00800           0
      7883 MEMB     75       CHL1     H12B     HGA2     0.900000E-01   1.00800           0
      7884 MEMB     75       CHL1     C11      CRL2    -0.180000       12.0110           0
      7885 MEMB     75       CHL1     H11A     HGA2     0.900000E-01   1.00800           0
      7886 MEMB     75       CHL1     H11B     HGA2     0.900000E-01   1.00800           0
      7887 MEMB     75       CHL1     C9       CRL1    -0.900000E-01   12.0110           0
      7888 MEMB     75       CHL1     H9       HGA1     0.900000E-01   1.00800           0
      7889 MEMB     75       CHL1     C10      CRL1     0.000000       12.0110           0
      7890 MEMB     75       CHL1     C19      CTL3    -0.270000       12.0110           0
      7891 MEMB     75       CHL1     H19A     HAL3     0.900000E-01   1.00800           0
      7892 MEMB     75       CHL1     H19B     HAL3     0.900000E-01   1.00800           0
      7893 MEMB     75       CHL1     H19C     HAL3     0.900000E-01   1.00800           0
      7894 MEMB     75       CHL1     C1       CRL2    -0.180000       12.0110           0
      7895 MEMB     75       CHL1     H1A      HGA2     0.900000E-01   1.00800           0
      7896 MEMB     75       CHL1     H1B      HGA2     0.900000E-01   1.00800           0
      7897 MEMB     75       CHL1     C2       CRL2    -0.180000       12.0110           0
      7898 MEMB     75       CHL1     H2A      HGA2     0.900000E-01   1.00800           0
      7899 MEMB     75       CHL1     H2B      HGA2     0.900000E-01   1.00800           0
      7900 MEMB     75       CHL1     C20      CTL1    -0.900000E-01   12.0110           0
      7901 MEMB     75       CHL1     H20      HAL1     0.900000E-01   1.00800           0
      7902 MEMB     75       CHL1     C21      CTL3    -0.270000       12.0110           0
      7903 MEMB     75       CHL1     H21A     HAL3     0.900000E-01   1.00800           0
      7904 MEMB     75       CHL1     H21B     HAL3     0.900000E-01   1.00800           0
      7905 MEMB     75       CHL1     H21C     HAL3     0.900000E-01   1.00800           0
      7906 MEMB     75       CHL1     C22      CTL2    -0.180000       12.0110           0
      7907 MEMB     75       CHL1     H22A     HAL2     0.900000E-01   1.00800           0
      7908 MEMB     75       CHL1     H22B     HAL2     0.900000E-01   1.00800           0
      7909 MEMB     75       CHL1     C23      CTL2    -0.180000       12.0110           0
      7910 MEMB     75       CHL1     H23A     HAL2     0.900000E-01   1.00800           0
      7911 MEMB     75       CHL1     H23B     HAL2     0.900000E-01   1.00800           0
      7912 MEMB     75       CHL1     C24      CTL2    -0.180000       12.0110           0
      7913 MEMB     75       CHL1     H24A     HAL2     0.900000E-01   1.00800           0
      7914 MEMB     75       CHL1     H24B     HAL2     0.900000E-01   1.00800           0
      7915 MEMB     75       CHL1     C25      CTL1    -0.900000E-01   12.0110           0
      7916 MEMB     75       CHL1     H25      HAL1     0.900000E-01   1.00800           0
      7917 MEMB     75       CHL1     C26      CTL3    -0.270000       12.0110           0
      7918 MEMB     75       CHL1     H26A     HAL3     0.900000E-01   1.00800           0
      7919 MEMB     75       CHL1     H26B     HAL3     0.900000E-01   1.00800           0
      7920 MEMB     75       CHL1     H26C     HAL3     0.900000E-01   1.00800           0
      7921 MEMB     75       CHL1     C27      CTL3    -0.270000       12.0110           0
      7922 MEMB     75       CHL1     H27A     HAL3     0.900000E-01   1.00800           0
      7923 MEMB     75       CHL1     H27B     HAL3     0.900000E-01   1.00800           0
      7924 MEMB     75       CHL1     H27C     HAL3     0.900000E-01   1.00800           0
      7925 MEMB     76       CHL1     C3       CRL1     0.140000       12.0110           0
      7926 MEMB     76       CHL1     H3       HGA1     0.900000E-01   1.00800           0
      7927 MEMB     76       CHL1     O3       OHL     -0.660000       15.9994           0
      7928 MEMB     76       CHL1     H3'      HOL      0.430000       1.00800           0
      7929 MEMB     76       CHL1     C4       CRL2    -0.180000       12.0110           0
      7930 MEMB     76       CHL1     H4A      HGA2     0.900000E-01   1.00800           0
      7931 MEMB     76       CHL1     H4B      HGA2     0.900000E-01   1.00800           0
      7932 MEMB     76       CHL1     C5       CEL1     0.000000       12.0110           0
      7933 MEMB     76       CHL1     C6       CEL1    -0.150000       12.0110           0
      7934 MEMB     76       CHL1     H6       HEL1     0.150000       1.00800           0
      7935 MEMB     76       CHL1     C7       CRL2    -0.180000       12.0110           0
      7936 MEMB     76       CHL1     H7A      HGA2     0.900000E-01   1.00800           0
      7937 MEMB     76       CHL1     H7B      HGA2     0.900000E-01   1.00800           0
      7938 MEMB     76       CHL1     C8       CRL1    -0.900000E-01   12.0110           0
      7939 MEMB     76       CHL1     H8       HGA1     0.900000E-01   1.00800           0
      7940 MEMB     76       CHL1     C14      CRL1    -0.900000E-01   12.0110           0
      7941 MEMB     76       CHL1     H14      HGA1     0.900000E-01   1.00800           0
      7942 MEMB     76       CHL1     C15      CRL2    -0.180000       12.0110           0
      7943 MEMB     76       CHL1     H15A     HGA2     0.900000E-01   1.00800           0
      7944 MEMB     76       CHL1     H15B     HGA2     0.900000E-01   1.00800           0
      7945 MEMB     76       CHL1     C16      CRL2    -0.180000       12.0110           0
      7946 MEMB     76       CHL1     H16A     HGA2     0.900000E-01   1.00800           0
      7947 MEMB     76       CHL1     H16B     HGA2     0.900000E-01   1.00800           0
      7948 MEMB     76       CHL1     C17      CRL1    -0.900000E-01   12.0110           0
      7949 MEMB     76       CHL1     H17      HGA1     0.900000E-01   1.00800           0
      7950 MEMB     76       CHL1     C13      CRL1     0.000000       12.0110           0
      7951 MEMB     76       CHL1     C18      CTL3    -0.270000       12.0110           0
      7952 MEMB     76       CHL1     H18A     HAL3     0.900000E-01   1.00800           0
      7953 MEMB     76       CHL1     H18B     HAL3     0.900000E-01   1.00800           0
      7954 MEMB     76       CHL1     H18C     HAL3     0.900000E-01   1.00800           0
      7955 MEMB     76       CHL1     C12      CRL2    -0.180000       12.0110           0
      7956 MEMB     76       CHL1     H12A     HGA2     0.900000E-01   1.00800           0
      7957 MEMB     76       CHL1     H12B     HGA2     0.900000E-01   1.00800           0
      7958 MEMB     76       CHL1     C11      CRL2    -0.180000       12.0110           0
      7959 MEMB     76       CHL1     H11A     HGA2     0.900000E-01   1.00800           0
      7960 MEMB     76       CHL1     H11B     HGA2     0.900000E-01   1.00800           0
      7961 MEMB     76       CHL1     C9       CRL1    -0.900000E-01   12.0110           0
      7962 MEMB     76       CHL1     H9       HGA1     0.900000E-01   1.00800           0
      7963 MEMB     76       CHL1     C10      CRL1     0.000000       12.0110           0
      7964 MEMB     76       CHL1     C19      CTL3    -0.270000       12.0110           0
      7965 MEMB     76       CHL1     H19A     HAL3     0.900000E-01   1.00800           0
      7966 MEMB     76       CHL1     H19B     HAL3     0.900000E-01   1.00800           0
      7967 MEMB     76       CHL1     H19C     HAL3     0.900000E-01   1.00800           0
      7968 MEMB     76       CHL1     C1       CRL2    -0.180000       12.0110           0
      7969 MEMB     76       CHL1     H1A      HGA2     0.900000E-01   1.00800           0
      7970 MEMB     76       CHL1     H1B      HGA2     0.900000E-01   1.00800           0
      7971 MEMB     76       CHL1     C2       CRL2    -0.180000       12.0110           0
      7972 MEMB     76       CHL1     H2A      HGA2     0.900000E-01   1.00800           0
      7973 MEMB     76       CHL1     H2B      HGA2     0.900000E-01   1.00800           0
      7974 MEMB     76       CHL1     C20      CTL1    -0.900000E-01   12.0110           0
      7975 MEMB     76       CHL1     H20      HAL1     0.900000E-01   1.00800           0
      7976 MEMB     76       CHL1     C21      CTL3    -0.270000       12.0110           0
      7977 MEMB     76       CHL1     H21A     HAL3     0.900000E-01   1.00800           0
      7978 MEMB     76       CHL1     H21B     HAL3     0.900000E-01   1.00800           0
      7979 MEMB     76       CHL1     H21C     HAL3     0.900000E-01   1.00800           0
      7980 MEMB     76       CHL1     C22      CTL2    -0.180000       12.0110           0
      7981 MEMB     76       CHL1     H22A     HAL2     0.900000E-01   1.00800           0
      7982 MEMB     76       CHL1     H22B     HAL2     0.900000E-01   1.00800           0
      7983 MEMB     76       CHL1     C23      CTL2    -0.180000       12.0110           0
      7984 MEMB     76       CHL1     H23A     HAL2     0.900000E-01   1.00800           0
      7985 MEMB     76       CHL1     H23B     HAL2     0.900000E-01   1.00800           0
      7986 MEMB     76       CHL1     C24      CTL2    -0.180000       12.0110           0
      7987 MEMB     76       CHL1     H24A     HAL2     0.900000E-01   1.00800           0
      7988 MEMB     76       CHL1     H24B     HAL2     0.900000E-01   1.00800           0
      7989 MEMB     76       CHL1     C25      CTL1    -0.900000E-01   12.0110           0
      7990 MEMB     76       CHL1     H25      HAL1     0.900000E-01   1.00800           0
      7991 MEMB     76       CHL1     C26      CTL3    -0.270000       12.0110           0
      7992 MEMB     76       CHL1     H26A     HAL3     0.900000E-01   1.00800           0
      7993 MEMB     76       CHL1     H26B     HAL3     0.900000E-01   1.00800           0
      7994 MEMB     76       CHL1     H26C     HAL3     0.900000E-01   1.00800           0
      7995 MEMB     76       CHL1     C27      CTL3    -0.270000       12.0110           0
      7996 MEMB     76       CHL1     H27A     HAL3     0.900000E-01   1.00800           0
      7997 MEMB     76       CHL1     H27B     HAL3     0.900000E-01   1.00800           0
      7998 MEMB     76       CHL1     H27C     HAL3     0.900000E-01   1.00800           0
      7999 MEMB     77       CHL1     C3       CRL1     0.140000       12.0110           0
      8000 MEMB     77       CHL1     H3       HGA1     0.900000E-01   1.00800           0
      8001 MEMB     77       CHL1     O3       OHL     -0.660000       15.9994           0
      8002 MEMB     77       CHL1     H3'      HOL      0.430000       1.00800           0
      8003 MEMB     77       CHL1     C4       CRL2    -0.180000       12.0110           0
      8004 MEMB     77       CHL1     H4A      HGA2     0.900000E-01   1.00800           0
      8005 MEMB     77       CHL1     H4B      HGA2     0.900000E-01   1.00800           0
      8006 MEMB     77       CHL1     C5       CEL1     0.000000       12.0110           0
      8007 MEMB     77       CHL1     C6       CEL1    -0.150000       12.0110           0
      8008 MEMB     77       CHL1     H6       HEL1     0.150000       1.00800           0
      8009 MEMB     77       CHL1     C7       CRL2    -0.180000       12.0110           0
      8010 MEMB     77       CHL1     H7A      HGA2     0.900000E-01   1.00800           0
      8011 MEMB     77       CHL1     H7B      HGA2     0.900000E-01   1.00800           0
      8012 MEMB     77       CHL1     C8       CRL1    -0.900000E-01   12.0110           0
      8013 MEMB     77       CHL1     H8       HGA1     0.900000E-01   1.00800           0
      8014 MEMB     77       CHL1     C14      CRL1    -0.900000E-01   12.0110           0
      8015 MEMB     77       CHL1     H14      HGA1     0.900000E-01   1.00800           0
      8016 MEMB     77       CHL1     C15      CRL2    -0.180000       12.0110           0
      8017 MEMB     77       CHL1     H15A     HGA2     0.900000E-01   1.00800           0
      8018 MEMB     77       CHL1     H15B     HGA2     0.900000E-01   1.00800           0
      8019 MEMB     77       CHL1     C16      CRL2    -0.180000       12.0110           0
      8020 MEMB     77       CHL1     H16A     HGA2     0.900000E-01   1.00800           0
      8021 MEMB     77       CHL1     H16B     HGA2     0.900000E-01   1.00800           0
      8022 MEMB     77       CHL1     C17      CRL1    -0.900000E-01   12.0110           0
      8023 MEMB     77       CHL1     H17      HGA1     0.900000E-01   1.00800           0
      8024 MEMB     77       CHL1     C13      CRL1     0.000000       12.0110           0
      8025 MEMB     77       CHL1     C18      CTL3    -0.270000       12.0110           0
      8026 MEMB     77       CHL1     H18A     HAL3     0.900000E-01   1.00800           0
      8027 MEMB     77       CHL1     H18B     HAL3     0.900000E-01   1.00800           0
      8028 MEMB     77       CHL1     H18C     HAL3     0.900000E-01   1.00800           0
      8029 MEMB     77       CHL1     C12      CRL2    -0.180000       12.0110           0
      8030 MEMB     77       CHL1     H12A     HGA2     0.900000E-01   1.00800           0
      8031 MEMB     77       CHL1     H12B     HGA2     0.900000E-01   1.00800           0
      8032 MEMB     77       CHL1     C11      CRL2    -0.180000       12.0110           0
      8033 MEMB     77       CHL1     H11A     HGA2     0.900000E-01   1.00800           0
      8034 MEMB     77       CHL1     H11B     HGA2     0.900000E-01   1.00800           0
      8035 MEMB     77       CHL1     C9       CRL1    -0.900000E-01   12.0110           0
      8036 MEMB     77       CHL1     H9       HGA1     0.900000E-01   1.00800           0
      8037 MEMB     77       CHL1     C10      CRL1     0.000000       12.0110           0
      8038 MEMB     77       CHL1     C19      CTL3    -0.270000       12.0110           0
      8039 MEMB     77       CHL1     H19A     HAL3     0.900000E-01   1.00800           0
      8040 MEMB     77       CHL1     H19B     HAL3     0.900000E-01   1.00800           0
      8041 MEMB     77       CHL1     H19C     HAL3     0.900000E-01   1.00800           0
      8042 MEMB     77       CHL1     C1       CRL2    -0.180000       12.0110           0
      8043 MEMB     77       CHL1     H1A      HGA2     0.900000E-01   1.00800           0
      8044 MEMB     77       CHL1     H1B      HGA2     0.900000E-01   1.00800           0
      8045 MEMB     77       CHL1     C2       CRL2    -0.180000       12.0110           0
      8046 MEMB     77       CHL1     H2A      HGA2     0.900000E-01   1.00800           0
      8047 MEMB     77       CHL1     H2B      HGA2     0.900000E-01   1.00800           0
      8048 MEMB     77       CHL1     C20      CTL1    -0.900000E-01   12.0110           0
      8049 MEMB     77       CHL1     H20      HAL1     0.900000E-01   1.00800           0
      8050 MEMB     77       CHL1     C21      CTL3    -0.270000       12.0110           0
      8051 MEMB     77       CHL1     H21A     HAL3     0.900000E-01   1.00800           0
      8052 MEMB     77       CHL1     H21B     HAL3     0.900000E-01   1.00800           0
      8053 MEMB     77       CHL1     H21C     HAL3     0.900000E-01   1.00800           0
      8054 MEMB     77       CHL1     C22      CTL2    -0.180000       12.0110           0
      8055 MEMB     77       CHL1     H22A     HAL2     0.900000E-01   1.00800           0
      8056 MEMB     77       CHL1     H22B     HAL2     0.900000E-01   1.00800           0
      8057 MEMB     77       CHL1     C23      CTL2    -0.180000       12.0110           0
      8058 MEMB     77       CHL1     H23A     HAL2     0.900000E-01   1.00800           0
      8059 MEMB     77       CHL1     H23B     HAL2     0.900000E-01   1.00800           0
      8060 MEMB     77       CHL1     C24      CTL2    -0.180000       12.0110           0
      8061 MEMB     77       CHL1     H24A     HAL2     0.900000E-01   1.00800           0
      8062 MEMB     77       CHL1     H24B     HAL2     0.900000E-01   1.00800           0
      8063 MEMB     77       CHL1     C25      CTL1    -0.900000E-01   12.0110           0
      8064 MEMB     77       CHL1     H25      HAL1     0.900000E-01   1.00800           0
      8065 MEMB     77       CHL1     C26      CTL3    -0.270000       12.0110           0
      8066 MEMB     77       CHL1     H26A     HAL3     0.900000E-01   1.00800           0
      8067 MEMB     77       CHL1     H26B     HAL3     0.900000E-01   1.00800           0
      8068 MEMB     77       CHL1     H26C     HAL3     0.900000E-01   1.00800           0
      8069 MEMB     77       CHL1     C27      CTL3    -0.270000       12.0110           0
      8070 MEMB     77       CHL1     H27A     HAL3     0.900000E-01   1.00800           0
      8071 MEMB     77       CHL1     H27B     HAL3     0.900000E-01   1.00800           0
      8072 MEMB     77       CHL1     H27C     HAL3     0.900000E-01   1.00800           0
      8073 MEMB     78       CHL1     C3       CRL1     0.140000       12.0110           0
      8074 MEMB     78       CHL1     H3       HGA1     0.900000E-01   1.00800           0
      8075 MEMB     78       CHL1     O3       OHL     -0.660000       15.9994           0
      8076 MEMB     78       CHL1     H3'      HOL      0.430000       1.00800           0
      8077 MEMB     78       CHL1     C4       CRL2    -0.180000       12.0110           0
      8078 MEMB     78       CHL1     H4A      HGA2     0.900000E-01   1.00800           0
      8079 MEMB     78       CHL1     H4B      HGA2     0.900000E-01   1.00800           0
      8080 MEMB     78       CHL1     C5       CEL1     0.000000       12.0110           0
      8081 MEMB     78       CHL1     C6       CEL1    -0.150000       12.0110           0
      8082 MEMB     78       CHL1     H6       HEL1     0.150000       1.00800           0
      8083 MEMB     78       CHL1     C7       CRL2    -0.180000       12.0110           0
      8084 MEMB     78       CHL1     H7A      HGA2     0.900000E-01   1.00800           0
      8085 MEMB     78       CHL1     H7B      HGA2     0.900000E-01   1.00800           0
      8086 MEMB     78       CHL1     C8       CRL1    -0.900000E-01   12.0110           0
      8087 MEMB     78       CHL1     H8       HGA1     0.900000E-01   1.00800           0
      8088 MEMB     78       CHL1     C14      CRL1    -0.900000E-01   12.0110           0
      8089 MEMB     78       CHL1     H14      HGA1     0.900000E-01   1.00800           0
      8090 MEMB     78       CHL1     C15      CRL2    -0.180000       12.0110           0
      8091 MEMB     78       CHL1     H15A     HGA2     0.900000E-01   1.00800           0
      8092 MEMB     78       CHL1     H15B     HGA2     0.900000E-01   1.00800           0
      8093 MEMB     78       CHL1     C16      CRL2    -0.180000       12.0110           0
      8094 MEMB     78       CHL1     H16A     HGA2     0.900000E-01   1.00800           0
      8095 MEMB     78       CHL1     H16B     HGA2     0.900000E-01   1.00800           0
      8096 MEMB     78       CHL1     C17      CRL1    -0.900000E-01   12.0110           0
      8097 MEMB     78       CHL1     H17      HGA1     0.900000E-01   1.00800           0
      8098 MEMB     78       CHL1     C13      CRL1     0.000000       12.0110           0
      8099 MEMB     78       CHL1     C18      CTL3    -0.270000       12.0110           0
      8100 MEMB     78       CHL1     H18A     HAL3     0.900000E-01   1.00800           0
      8101 MEMB     78       CHL1     H18B     HAL3     0.900000E-01   1.00800           0
      8102 MEMB     78       CHL1     H18C     HAL3     0.900000E-01   1.00800           0
      8103 MEMB     78       CHL1     C12      CRL2    -0.180000       12.0110           0
      8104 MEMB     78       CHL1     H12A     HGA2     0.900000E-01   1.00800           0
      8105 MEMB     78       CHL1     H12B     HGA2     0.900000E-01   1.00800           0
      8106 MEMB     78       CHL1     C11      CRL2    -0.180000       12.0110           0
      8107 MEMB     78       CHL1     H11A     HGA2     0.900000E-01   1.00800           0
      8108 MEMB     78       CHL1     H11B     HGA2     0.900000E-01   1.00800           0
      8109 MEMB     78       CHL1     C9       CRL1    -0.900000E-01   12.0110           0
      8110 MEMB     78       CHL1     H9       HGA1     0.900000E-01   1.00800           0
      8111 MEMB     78       CHL1     C10      CRL1     0.000000       12.0110           0
      8112 MEMB     78       CHL1     C19      CTL3    -0.270000       12.0110           0
      8113 MEMB     78       CHL1     H19A     HAL3     0.900000E-01   1.00800           0
      8114 MEMB     78       CHL1     H19B     HAL3     0.900000E-01   1.00800           0
      8115 MEMB     78       CHL1     H19C     HAL3     0.900000E-01   1.00800           0
      8116 MEMB     78       CHL1     C1       CRL2    -0.180000       12.0110           0
      8117 MEMB     78       CHL1     H1A      HGA2     0.900000E-01   1.00800           0
      8118 MEMB     78       CHL1     H1B      HGA2     0.900000E-01   1.00800           0
      8119 MEMB     78       CHL1     C2       CRL2    -0.180000       12.0110           0
      8120 MEMB     78       CHL1     H2A      HGA2     0.900000E-01   1.00800           0
      8121 MEMB     78       CHL1     H2B      HGA2     0.900000E-01   1.00800           0
      8122 MEMB     78       CHL1     C20      CTL1    -0.900000E-01   12.0110           0
      8123 MEMB     78       CHL1     H20      HAL1     0.900000E-01   1.00800           0
      8124 MEMB     78       CHL1     C21      CTL3    -0.270000       12.0110           0
      8125 MEMB     78       CHL1     H21A     HAL3     0.900000E-01   1.00800           0
      8126 MEMB     78       CHL1     H21B     HAL3     0.900000E-01   1.00800           0
      8127 MEMB     78       CHL1     H21C     HAL3     0.900000E-01   1.00800           0
      8128 MEMB     78       CHL1     C22      CTL2    -0.180000       12.0110           0
      8129 MEMB     78       CHL1     H22A     HAL2     0.900000E-01   1.00800           0
      8130 MEMB     78       CHL1     H22B     HAL2     0.900000E-01   1.00800           0
      8131 MEMB     78       CHL1     C23      CTL2    -0.180000       12.0110           0
      8132 MEMB     78       CHL1     H23A     HAL2     0.900000E-01   1.00800           0
      8133 MEMB     78       CHL1     H23B     HAL2     0.900000E-01   1.00800           0
      8134 MEMB     78       CHL1     C24      CTL2    -0.180000       12.0110           0
      8135 MEMB     78       CHL1     H24A     HAL2     0.900000E-01   1.00800           0
      8136 MEMB     78       CHL1     H24B     HAL2     0.900000E-01   1.00800           0
      8137 MEMB     78       CHL1     C25      CTL1    -0.900000E-01   12.0110           0
      8138 MEMB     78       CHL1     H25      HAL1     0.900000E-01   1.00800           0
      8139 MEMB     78       CHL1     C26      CTL3    -0.270000       12.0110           0
      8140 MEMB     78       CHL1     H26A     HAL3     0.900000E-01   1.00800           0
      8141 MEMB     78       CHL1     H26B     HAL3     0.900000E-01   1.00800           0
      8142 MEMB     78       CHL1     H26C     HAL3     0.900000E-01   1.00800           0
      8143 MEMB     78       CHL1     C27      CTL3    -0.270000       12.0110           0
      8144 MEMB     78       CHL1     H27A     HAL3     0.900000E-01   1.00800           0
      8145 MEMB     78       CHL1     H27B     HAL3     0.900000E-01   1.00800           0
      8146 MEMB     78       CHL1     H27C     HAL3     0.900000E-01   1.00800           0
      8147 MEMB     79       CHL1     C3       CRL1     0.140000       12.0110           0
      8148 MEMB     79       CHL1     H3       HGA1     0.900000E-01   1.00800           0
      8149 MEMB     79       CHL1     O3       OHL     -0.660000       15.9994           0
      8150 MEMB     79       CHL1     H3'      HOL      0.430000       1.00800           0
      8151 MEMB     79       CHL1     C4       CRL2    -0.180000       12.0110           0
      8152 MEMB     79       CHL1     H4A      HGA2     0.900000E-01   1.00800           0
      8153 MEMB     79       CHL1     H4B      HGA2     0.900000E-01   1.00800           0
      8154 MEMB     79       CHL1     C5       CEL1     0.000000       12.0110           0
      8155 MEMB     79       CHL1     C6       CEL1    -0.150000       12.0110           0
      8156 MEMB     79       CHL1     H6       HEL1     0.150000       1.00800           0
      8157 MEMB     79       CHL1     C7       CRL2    -0.180000       12.0110           0
      8158 MEMB     79       CHL1     H7A      HGA2     0.900000E-01   1.00800           0
      8159 MEMB     79       CHL1     H7B      HGA2     0.900000E-01   1.00800           0
      8160 MEMB     79       CHL1     C8       CRL1    -0.900000E-01   12.0110           0
      8161 MEMB     79       CHL1     H8       HGA1     0.900000E-01   1.00800           0
      8162 MEMB     79       CHL1     C14      CRL1    -0.900000E-01   12.0110           0
      8163 MEMB     79       CHL1     H14      HGA1     0.900000E-01   1.00800           0
      8164 MEMB     79       CHL1     C15      CRL2    -0.180000       12.0110           0
      8165 MEMB     79       CHL1     H15A     HGA2     0.900000E-01   1.00800           0
      8166 MEMB     79       CHL1     H15B     HGA2     0.900000E-01   1.00800           0
      8167 MEMB     79       CHL1     C16      CRL2    -0.180000       12.0110           0
      8168 MEMB     79       CHL1     H16A     HGA2     0.900000E-01   1.00800           0
      8169 MEMB     79       CHL1     H16B     HGA2     0.900000E-01   1.00800           0
      8170 MEMB     79       CHL1     C17      CRL1    -0.900000E-01   12.0110           0
      8171 MEMB     79       CHL1     H17      HGA1     0.900000E-01   1.00800           0
      8172 MEMB     79       CHL1     C13      CRL1     0.000000       12.0110           0
      8173 MEMB     79       CHL1     C18      CTL3    -0.270000       12.0110           0
      8174 MEMB     79       CHL1     H18A     HAL3     0.900000E-01   1.00800           0
      8175 MEMB     79       CHL1     H18B     HAL3     0.900000E-01   1.00800           0
      8176 MEMB     79       CHL1     H18C     HAL3     0.900000E-01   1.00800           0
      8177 MEMB     79       CHL1     C12      CRL2    -0.180000       12.0110           0
      8178 MEMB     79       CHL1     H12A     HGA2     0.900000E-01   1.00800           0
      8179 MEMB     79       CHL1     H12B     HGA2     0.900000E-01   1.00800           0
      8180 MEMB     79       CHL1     C11      CRL2    -0.180000       12.0110           0
      8181 MEMB     79       CHL1     H11A     HGA2     0.900000E-01   1.00800           0
      8182 MEMB     79       CHL1     H11B     HGA2     0.900000E-01   1.00800           0
      8183 MEMB     79       CHL1     C9       CRL1    -0.900000E-01   12.0110           0
      8184 MEMB     79       CHL1     H9       HGA1     0.900000E-01   1.00800           0
      8185 MEMB     79       CHL1     C10      CRL1     0.000000       12.0110           0
      8186 MEMB     79       CHL1     C19      CTL3    -0.270000       12.0110           0
      8187 MEMB     79       CHL1     H19A     HAL3     0.900000E-01   1.00800           0
      8188 MEMB     79       CHL1     H19B     HAL3     0.900000E-01   1.00800           0
      8189 MEMB     79       CHL1     H19C     HAL3     0.900000E-01   1.00800           0
      8190 MEMB     79       CHL1     C1       CRL2    -0.180000       12.0110           0
      8191 MEMB     79       CHL1     H1A      HGA2     0.900000E-01   1.00800           0
      8192 MEMB     79       CHL1     H1B      HGA2     0.900000E-01   1.00800           0
      8193 MEMB     79       CHL1     C2       CRL2    -0.180000       12.0110           0
      8194 MEMB     79       CHL1     H2A      HGA2     0.900000E-01   1.00800           0
      8195 MEMB     79       CHL1     H2B      HGA2     0.900000E-01   1.00800           0
      8196 MEMB     79       CHL1     C20      CTL1    -0.900000E-01   12.0110           0
      8197 MEMB     79       CHL1     H20      HAL1     0.900000E-01   1.00800           0
      8198 MEMB     79       CHL1     C21      CTL3    -0.270000       12.0110           0
      8199 MEMB     79       CHL1     H21A     HAL3     0.900000E-01   1.00800           0
      8200 MEMB     79       CHL1     H21B     HAL3     0.900000E-01   1.00800           0
      8201 MEMB     79       CHL1     H21C     HAL3     0.900000E-01   1.00800           0
      8202 MEMB     79       CHL1     C22      CTL2    -0.180000       12.0110           0
      8203 MEMB     79       CHL1     H22A     HAL2     0.900000E-01   1.00800           0
      8204 MEMB     79       CHL1     H22B     HAL2     0.900000E-01   1.00800           0
      8205 MEMB     79       CHL1     C23      CTL2    -0.180000       12.0110           0
      8206 MEMB     79       CHL1     H23A     HAL2     0.900000E-01   1.00800           0
      8207 MEMB     79       CHL1     H23B     HAL2     0.900000E-01   1.00800           0
      8208 MEMB     79       CHL1     C24      CTL2    -0.180000       12.0110           0
      8209 MEMB     79       CHL1     H24A     HAL2     0.900000E-01   1.00800           0
      8210 MEMB     79       CHL1     H24B     HAL2     0.900000E-01   1.00800           0
      8211 MEMB     79       CHL1     C25      CTL1    -0.900000E-01   12.0110           0
      8212 MEMB     79       CHL1     H25      HAL1     0.900000E-01   1.00800           0
      8213 MEMB     79       CHL1     C26      CTL3    -0.270000       12.0110           0
      8214 MEMB     79       CHL1     H26A     HAL3     0.900000E-01   1.00800           0
      8215 MEMB     79       CHL1     H26B     HAL3     0.900000E-01   1.00800           0
      8216 MEMB     79       CHL1     H26C     HAL3     0.900000E-01   1.00800           0
      8217 MEMB     79       CHL1     C27      CTL3    -0.270000       12.0110           0
      8218 MEMB     79       CHL1     H27A     HAL3     0.900000E-01   1.00800           0
      8219 MEMB     79       CHL1     H27B     HAL3     0.900000E-01   1.00800           0
      8220 MEMB     79       CHL1     H27C     HAL3     0.900000E-01   1.00800           0
      8221 MEMB     80       CHL1     C3       CRL1     0.140000       12.0110           0
      8222 MEMB     80       CHL1     H3       HGA1     0.900000E-01   1.00800           0
      8223 MEMB     80       CHL1     O3       OHL     -0.660000       15.9994           0
      8224 MEMB     80       CHL1     H3'      HOL      0.430000       1.00800           0
      8225 MEMB     80       CHL1     C4       CRL2    -0.180000       12.0110           0
      8226 MEMB     80       CHL1     H4A      HGA2     0.900000E-01   1.00800           0
      8227 MEMB     80       CHL1     H4B      HGA2     0.900000E-01   1.00800           0
      8228 MEMB     80       CHL1     C5       CEL1     0.000000       12.0110           0
      8229 MEMB     80       CHL1     C6       CEL1    -0.150000       12.0110           0
      8230 MEMB     80       CHL1     H6       HEL1     0.150000       1.00800           0
      8231 MEMB     80       CHL1     C7       CRL2    -0.180000       12.0110           0
      8232 MEMB     80       CHL1     H7A      HGA2     0.900000E-01   1.00800           0
      8233 MEMB     80       CHL1     H7B      HGA2     0.900000E-01   1.00800           0
      8234 MEMB     80       CHL1     C8       CRL1    -0.900000E-01   12.0110           0
      8235 MEMB     80       CHL1     H8       HGA1     0.900000E-01   1.00800           0
      8236 MEMB     80       CHL1     C14      CRL1    -0.900000E-01   12.0110           0
      8237 MEMB     80       CHL1     H14      HGA1     0.900000E-01   1.00800           0
      8238 MEMB     80       CHL1     C15      CRL2    -0.180000       12.0110           0
      8239 MEMB     80       CHL1     H15A     HGA2     0.900000E-01   1.00800           0
      8240 MEMB     80       CHL1     H15B     HGA2     0.900000E-01   1.00800           0
      8241 MEMB     80       CHL1     C16      CRL2    -0.180000       12.0110           0
      8242 MEMB     80       CHL1     H16A     HGA2     0.900000E-01   1.00800           0
      8243 MEMB     80       CHL1     H16B     HGA2     0.900000E-01   1.00800           0
      8244 MEMB     80       CHL1     C17      CRL1    -0.900000E-01   12.0110           0
      8245 MEMB     80       CHL1     H17      HGA1     0.900000E-01   1.00800           0
      8246 MEMB     80       CHL1     C13      CRL1     0.000000       12.0110           0
      8247 MEMB     80       CHL1     C18      CTL3    -0.270000       12.0110           0
      8248 MEMB     80       CHL1     H18A     HAL3     0.900000E-01   1.00800           0
      8249 MEMB     80       CHL1     H18B     HAL3     0.900000E-01   1.00800           0
      8250 MEMB     80       CHL1     H18C     HAL3     0.900000E-01   1.00800           0
      8251 MEMB     80       CHL1     C12      CRL2    -0.180000       12.0110           0
      8252 MEMB     80       CHL1     H12A     HGA2     0.900000E-01   1.00800           0
      8253 MEMB     80       CHL1     H12B     HGA2     0.900000E-01   1.00800           0
      8254 MEMB     80       CHL1     C11      CRL2    -0.180000       12.0110           0
      8255 MEMB     80       CHL1     H11A     HGA2     0.900000E-01   1.00800           0
      8256 MEMB     80       CHL1     H11B     HGA2     0.900000E-01   1.00800           0
      8257 MEMB     80       CHL1     C9       CRL1    -0.900000E-01   12.0110           0
      8258 MEMB     80       CHL1     H9       HGA1     0.900000E-01   1.00800           0
      8259 MEMB     80       CHL1     C10      CRL1     0.000000       12.0110           0
      8260 MEMB     80       CHL1     C19      CTL3    -0.270000       12.0110           0
      8261 MEMB     80       CHL1     H19A     HAL3     0.900000E-01   1.00800           0
      8262 MEMB     80       CHL1     H19B     HAL3     0.900000E-01   1.00800           0
      8263 MEMB     80       CHL1     H19C     HAL3     0.900000E-01   1.00800           0
      8264 MEMB     80       CHL1     C1       CRL2    -0.180000       12.0110           0
      8265 MEMB     80       CHL1     H1A      HGA2     0.900000E-01   1.00800           0
      8266 MEMB     80       CHL1     H1B      HGA2     0.900000E-01   1.00800           0
      8267 MEMB     80       CHL1     C2       CRL2    -0.180000       12.0110           0
      8268 MEMB     80       CHL1     H2A      HGA2     0.900000E-01   1.00800           0
      8269 MEMB     80       CHL1     H2B      HGA2     0.900000E-01   1.00800           0
      8270 MEMB     80       CHL1     C20      CTL1    -0.900000E-01   12.0110           0
      8271 MEMB     80       CHL1     H20      HAL1     0.900000E-01   1.00800           0
      8272 MEMB     80       CHL1     C21      CTL3    -0.270000       12.0110           0
      8273 MEMB     80       CHL1     H21A     HAL3     0.900000E-01   1.00800           0
      8274 MEMB     80       CHL1     H21B     HAL3     0.900000E-01   1.00800           0
      8275 MEMB     80       CHL1     H21C     HAL3     0.900000E-01   1.00800           0
      8276 MEMB     80       CHL1     C22      CTL2    -0.180000       12.0110           0
      8277 MEMB     80       CHL1     H22A     HAL2     0.900000E-01   1.00800           0
      8278 MEMB     80       CHL1     H22B     HAL2     0.900000E-01   1.00800           0
      8279 MEMB     80       CHL1     C23      CTL2    -0.180000       12.0110           0
      8280 MEMB     80       CHL1     H23A     HAL2     0.900000E-01   1.00800           0
      8281 MEMB     80       CHL1     H23B     HAL2     0.900000E-01   1.00800           0
      8282 MEMB     80       CHL1     C24      CTL2    -0.180000       12.0110           0
      8283 MEMB     80       CHL1     H24A     HAL2     0.900000E-01   1.00800           0
      8284 MEMB     80       CHL1     H24B     HAL2     0.900000E-01   1.00800           0
      8285 MEMB     80       CHL1     C25      CTL1    -0.900000E-01   12.0110           0
      8286 MEMB     80       CHL1     H25      HAL1     0.900000E-01   1.00800           0
      8287 MEMB     80       CHL1     C26      CTL3    -0.270000       12.0110           0
      8288 MEMB     80       CHL1     H26A     HAL3     0.900000E-01   1.00800           0
      8289 MEMB     80       CHL1     H26B     HAL3     0.900000E-01   1.00800           0
      8290 MEMB     80       CHL1     H26C     HAL3     0.900000E-01   1.00800           0
      8291 MEMB     80       CHL1     C27      CTL3    -0.270000       12.0110           0
      8292 MEMB     80       CHL1     H27A     HAL3     0.900000E-01   1.00800           0
      8293 MEMB     80       CHL1     H27B     HAL3     0.900000E-01   1.00800           0
      8294 MEMB     80       CHL1     H27C     HAL3     0.900000E-01   1.00800           0
      8295 MEMB     81       CHL1     C3       CRL1     0.140000       12.0110           0
      8296 MEMB     81       CHL1     H3       HGA1     0.900000E-01   1.00800           0
      8297 MEMB     81       CHL1     O3       OHL     -0.660000       15.9994           0
      8298 MEMB     81       CHL1     H3'      HOL      0.430000       1.00800           0
      8299 MEMB     81       CHL1     C4       CRL2    -0.180000       12.0110           0
      8300 MEMB     81       CHL1     H4A      HGA2     0.900000E-01   1.00800           0
      8301 MEMB     81       CHL1     H4B      HGA2     0.900000E-01   1.00800           0
      8302 MEMB     81       CHL1     C5       CEL1     0.000000       12.0110           0
      8303 MEMB     81       CHL1     C6       CEL1    -0.150000       12.0110           0
      8304 MEMB     81       CHL1     H6       HEL1     0.150000       1.00800           0
      8305 MEMB     81       CHL1     C7       CRL2    -0.180000       12.0110           0
      8306 MEMB     81       CHL1     H7A      HGA2     0.900000E-01   1.00800           0
      8307 MEMB     81       CHL1     H7B      HGA2     0.900000E-01   1.00800           0
      8308 MEMB     81       CHL1     C8       CRL1    -0.900000E-01   12.0110           0
      8309 MEMB     81       CHL1     H8       HGA1     0.900000E-01   1.00800           0
      8310 MEMB     81       CHL1     C14      CRL1    -0.900000E-01   12.0110           0
      8311 MEMB     81       CHL1     H14      HGA1     0.900000E-01   1.00800           0
      8312 MEMB     81       CHL1     C15      CRL2    -0.180000       12.0110           0
      8313 MEMB     81       CHL1     H15A     HGA2     0.900000E-01   1.00800           0
      8314 MEMB     81       CHL1     H15B     HGA2     0.900000E-01   1.00800           0
      8315 MEMB     81       CHL1     C16      CRL2    -0.180000       12.0110           0
      8316 MEMB     81       CHL1     H16A     HGA2     0.900000E-01   1.00800           0
      8317 MEMB     81       CHL1     H16B     HGA2     0.900000E-01   1.00800           0
      8318 MEMB     81       CHL1     C17      CRL1    -0.900000E-01   12.0110           0
      8319 MEMB     81       CHL1     H17      HGA1     0.900000E-01   1.00800           0
      8320 MEMB     81       CHL1     C13      CRL1     0.000000       12.0110           0
      8321 MEMB     81       CHL1     C18      CTL3    -0.270000       12.0110           0
      8322 MEMB     81       CHL1     H18A     HAL3     0.900000E-01   1.00800           0
      8323 MEMB     81       CHL1     H18B     HAL3     0.900000E-01   1.00800           0
      8324 MEMB     81       CHL1     H18C     HAL3     0.900000E-01   1.00800           0
      8325 MEMB     81       CHL1     C12      CRL2    -0.180000       12.0110           0
      8326 MEMB     81       CHL1     H12A     HGA2     0.900000E-01   1.00800           0
      8327 MEMB     81       CHL1     H12B     HGA2     0.900000E-01   1.00800           0
      8328 MEMB     81       CHL1     C11      CRL2    -0.180000       12.0110           0
      8329 MEMB     81       CHL1     H11A     HGA2     0.900000E-01   1.00800           0
      8330 MEMB     81       CHL1     H11B     HGA2     0.900000E-01   1.00800           0
      8331 MEMB     81       CHL1     C9       CRL1    -0.900000E-01   12.0110           0
      8332 MEMB     81       CHL1     H9       HGA1     0.900000E-01   1.00800           0
      8333 MEMB     81       CHL1     C10      CRL1     0.000000       12.0110           0
      8334 MEMB     81       CHL1     C19      CTL3    -0.270000       12.0110           0
      8335 MEMB     81       CHL1     H19A     HAL3     0.900000E-01   1.00800           0
      8336 MEMB     81       CHL1     H19B     HAL3     0.900000E-01   1.00800           0
      8337 MEMB     81       CHL1     H19C     HAL3     0.900000E-01   1.00800           0
      8338 MEMB     81       CHL1     C1       CRL2    -0.180000       12.0110           0
      8339 MEMB     81       CHL1     H1A      HGA2     0.900000E-01   1.00800           0
      8340 MEMB     81       CHL1     H1B      HGA2     0.900000E-01   1.00800           0
      8341 MEMB     81       CHL1     C2       CRL2    -0.180000       12.0110           0
      8342 MEMB     81       CHL1     H2A      HGA2     0.900000E-01   1.00800           0
      8343 MEMB     81       CHL1     H2B      HGA2     0.900000E-01   1.00800           0
      8344 MEMB     81       CHL1     C20      CTL1    -0.900000E-01   12.0110           0
      8345 MEMB     81       CHL1     H20      HAL1     0.900000E-01   1.00800           0
      8346 MEMB     81       CHL1     C21      CTL3    -0.270000       12.0110           0
      8347 MEMB     81       CHL1     H21A     HAL3     0.900000E-01   1.00800           0
      8348 MEMB     81       CHL1     H21B     HAL3     0.900000E-01   1.00800           0
      8349 MEMB     81       CHL1     H21C     HAL3     0.900000E-01   1.00800           0
      8350 MEMB     81       CHL1     C22      CTL2    -0.180000       12.0110           0
      8351 MEMB     81       CHL1     H22A     HAL2     0.900000E-01   1.00800           0
      8352 MEMB     81       CHL1     H22B     HAL2     0.900000E-01   1.00800           0
      8353 MEMB     81       CHL1     C23      CTL2    -0.180000       12.0110           0
      8354 MEMB     81       CHL1     H23A     HAL2     0.900000E-01   1.00800           0
      8355 MEMB     81       CHL1     H23B     HAL2     0.900000E-01   1.00800           0
      8356 MEMB     81       CHL1     C24      CTL2    -0.180000       12.0110           0
      8357 MEMB     81       CHL1     H24A     HAL2     0.900000E-01   1.00800           0
      8358 MEMB     81       CHL1     H24B     HAL2     0.900000E-01   1.00800           0
      8359 MEMB     81       CHL1     C25      CTL1    -0.900000E-01   12.0110           0
      8360 MEMB     81       CHL1     H25      HAL1     0.900000E-01   1.00800           0
      8361 MEMB     81       CHL1     C26      CTL3    -0.270000       12.0110           0
      8362 MEMB     81       CHL1     H26A     HAL3     0.900000E-01   1.00800           0
      8363 MEMB     81       CHL1     H26B     HAL3     0.900000E-01   1.00800           0
      8364 MEMB     81       CHL1     H26C     HAL3     0.900000E-01   1.00800           0
      8365 MEMB     81       CHL1     C27      CTL3    -0.270000       12.0110           0
      8366 MEMB     81       CHL1     H27A     HAL3     0.900000E-01   1.00800           0
      8367 MEMB     81       CHL1     H27B     HAL3     0.900000E-01   1.00800           0
      8368 MEMB     81       CHL1     H27C     HAL3     0.900000E-01   1.00800           0
      8369 MEMB     82       POPS     N        NH3L    -0.300000       14.0070           0
      8370 MEMB     82       POPS     HN1      HCL      0.330000       1.00800           0
      8371 MEMB     82       POPS     HN2      HCL      0.330000       1.00800           0
      8372 MEMB     82       POPS     HN3      HCL      0.330000       1.00800           0
      8373 MEMB     82       POPS     C12      CTL1     0.210000       12.0110           0
      8374 MEMB     82       POPS     H12A     HBL      0.100000       1.00800           0
      8375 MEMB     82       POPS     C13      CCL      0.340000       12.0110           0
      8376 MEMB     82       POPS     O13A     OCL     -0.670000       15.9994           0
      8377 MEMB     82       POPS     O13B     OCL     -0.670000       15.9994           0
      8378 MEMB     82       POPS     C11      CTL2    -0.800000E-01   12.0110           0
      8379 MEMB     82       POPS     H11A     HAL2     0.900000E-01   1.00800           0
      8380 MEMB     82       POPS     H11B     HAL2     0.900000E-01   1.00800           0
      8381 MEMB     82       POPS     P        PL       1.500000       30.9740           0
      8382 MEMB     82       POPS     O13      O2L     -0.780000       15.9994           0
      8383 MEMB     82       POPS     O14      O2L     -0.780000       15.9994           0
      8384 MEMB     82       POPS     O12      OSLP    -0.570000       15.9994           0
      8385 MEMB     82       POPS     O11      OSLP    -0.570000       15.9994           0
      8386 MEMB     82       POPS     C1       CTL2    -0.800000E-01   12.0110           0
      8387 MEMB     82       POPS     HA       HAL2     0.900000E-01   1.00800           0
      8388 MEMB     82       POPS     HB       HAL2     0.900000E-01   1.00800           0
      8389 MEMB     82       POPS     C2       CTL1     0.170000       12.0110           0
      8390 MEMB     82       POPS     HS       HAL1     0.900000E-01   1.00800           0
      8391 MEMB     82       POPS     O21      OSL     -0.490000       15.9994           0
      8392 MEMB     82       POPS     C21      CL       0.900000       12.0110           0
      8393 MEMB     82       POPS     O22      OBL     -0.630000       15.9994           0
      8394 MEMB     82       POPS     C22      CTL2    -0.220000       12.0110           0
      8395 MEMB     82       POPS     H2R      HAL2     0.900000E-01   1.00800           0
      8396 MEMB     82       POPS     H2S      HAL2     0.900000E-01   1.00800           0
      8397 MEMB     82       POPS     C3       CTL2     0.800000E-01   12.0110           0
      8398 MEMB     82       POPS     HX       HAL2     0.900000E-01   1.00800           0
      8399 MEMB     82       POPS     HY       HAL2     0.900000E-01   1.00800           0
      8400 MEMB     82       POPS     O31      OSL     -0.490000       15.9994           0
      8401 MEMB     82       POPS     C31      CL       0.900000       12.0110           0
      8402 MEMB     82       POPS     O32      OBL     -0.630000       15.9994           0
      8403 MEMB     82       POPS     C32      CTL2    -0.220000       12.0110           0
      8404 MEMB     82       POPS     H2X      HAL2     0.900000E-01   1.00800           0
      8405 MEMB     82       POPS     H2Y      HAL2     0.900000E-01   1.00800           0
      8406 MEMB     82       POPS     C23      CTL2    -0.180000       12.0110           0
      8407 MEMB     82       POPS     H3R      HAL2     0.900000E-01   1.00800           0
      8408 MEMB     82       POPS     H3S      HAL2     0.900000E-01   1.00800           0
      8409 MEMB     82       POPS     C24      CTL2    -0.180000       12.0110           0
      8410 MEMB     82       POPS     H4R      HAL2     0.900000E-01   1.00800           0
      8411 MEMB     82       POPS     H4S      HAL2     0.900000E-01   1.00800           0
      8412 MEMB     82       POPS     C25      CTL2    -0.180000       12.0110           0
      8413 MEMB     82       POPS     H5R      HAL2     0.900000E-01   1.00800           0
      8414 MEMB     82       POPS     H5S      HAL2     0.900000E-01   1.00800           0
      8415 MEMB     82       POPS     C26      CTL2    -0.180000       12.0110           0
      8416 MEMB     82       POPS     H6R      HAL2     0.900000E-01   1.00800           0
      8417 MEMB     82       POPS     H6S      HAL2     0.900000E-01   1.00800           0
      8418 MEMB     82       POPS     C27      CTL2    -0.180000       12.0110           0
      8419 MEMB     82       POPS     H7R      HAL2     0.900000E-01   1.00800           0
      8420 MEMB     82       POPS     H7S      HAL2     0.900000E-01   1.00800           0
      8421 MEMB     82       POPS     C28      CTL2    -0.180000       12.0110           0
      8422 MEMB     82       POPS     H8R      HAL2     0.900000E-01   1.00800           0
      8423 MEMB     82       POPS     H8S      HAL2     0.900000E-01   1.00800           0
      8424 MEMB     82       POPS     C29      CEL1    -0.150000       12.0110           0
      8425 MEMB     82       POPS     H91      HEL1     0.150000       1.00800           0
      8426 MEMB     82       POPS     C210     CEL1    -0.150000       12.0110           0
      8427 MEMB     82       POPS     H101     HEL1     0.150000       1.00800           0
      8428 MEMB     82       POPS     C211     CTL2    -0.180000       12.0110           0
      8429 MEMB     82       POPS     H11R     HAL2     0.900000E-01   1.00800           0
      8430 MEMB     82       POPS     H11S     HAL2     0.900000E-01   1.00800           0
      8431 MEMB     82       POPS     C212     CTL2    -0.180000       12.0110           0
      8432 MEMB     82       POPS     H12R     HAL2     0.900000E-01   1.00800           0
      8433 MEMB     82       POPS     H12S     HAL2     0.900000E-01   1.00800           0
      8434 MEMB     82       POPS     C213     CTL2    -0.180000       12.0110           0
      8435 MEMB     82       POPS     H13R     HAL2     0.900000E-01   1.00800           0
      8436 MEMB     82       POPS     H13S     HAL2     0.900000E-01   1.00800           0
      8437 MEMB     82       POPS     C214     CTL2    -0.180000       12.0110           0
      8438 MEMB     82       POPS     H14R     HAL2     0.900000E-01   1.00800           0
      8439 MEMB     82       POPS     H14S     HAL2     0.900000E-01   1.00800           0
      8440 MEMB     82       POPS     C215     CTL2    -0.180000       12.0110           0
      8441 MEMB     82       POPS     H15R     HAL2     0.900000E-01   1.00800           0
      8442 MEMB     82       POPS     H15S     HAL2     0.900000E-01   1.00800           0
      8443 MEMB     82       POPS     C216     CTL2    -0.180000       12.0110           0
      8444 MEMB     82       POPS     H16R     HAL2     0.900000E-01   1.00800           0
      8445 MEMB     82       POPS     H16S     HAL2     0.900000E-01   1.00800           0
      8446 MEMB     82       POPS     C217     CTL2    -0.180000       12.0110           0
      8447 MEMB     82       POPS     H17R     HAL2     0.900000E-01   1.00800           0
      8448 MEMB     82       POPS     H17S     HAL2     0.900000E-01   1.00800           0
      8449 MEMB     82       POPS     C218     CTL3    -0.270000       12.0110           0
      8450 MEMB     82       POPS     H18R     HAL3     0.900000E-01   1.00800           0
      8451 MEMB     82       POPS     H18S     HAL3     0.900000E-01   1.00800           0
      8452 MEMB     82       POPS     H18T     HAL3     0.900000E-01   1.00800           0
      8453 MEMB     82       POPS     C33      CTL2    -0.180000       12.0110           0
      8454 MEMB     82       POPS     H3X      HAL2     0.900000E-01   1.00800           0
      8455 MEMB     82       POPS     H3Y      HAL2     0.900000E-01   1.00800           0
      8456 MEMB     82       POPS     C34      CTL2    -0.180000       12.0110           0
      8457 MEMB     82       POPS     H4X      HAL2     0.900000E-01   1.00800           0
      8458 MEMB     82       POPS     H4Y      HAL2     0.900000E-01   1.00800           0
      8459 MEMB     82       POPS     C35      CTL2    -0.180000       12.0110           0
      8460 MEMB     82       POPS     H5X      HAL2     0.900000E-01   1.00800           0
      8461 MEMB     82       POPS     H5Y      HAL2     0.900000E-01   1.00800           0
      8462 MEMB     82       POPS     C36      CTL2    -0.180000       12.0110           0
      8463 MEMB     82       POPS     H6X      HAL2     0.900000E-01   1.00800           0
      8464 MEMB     82       POPS     H6Y      HAL2     0.900000E-01   1.00800           0
      8465 MEMB     82       POPS     C37      CTL2    -0.180000       12.0110           0
      8466 MEMB     82       POPS     H7X      HAL2     0.900000E-01   1.00800           0
      8467 MEMB     82       POPS     H7Y      HAL2     0.900000E-01   1.00800           0
      8468 MEMB     82       POPS     C38      CTL2    -0.180000       12.0110           0
      8469 MEMB     82       POPS     H8X      HAL2     0.900000E-01   1.00800           0
      8470 MEMB     82       POPS     H8Y      HAL2     0.900000E-01   1.00800           0
      8471 MEMB     82       POPS     C39      CTL2    -0.180000       12.0110           0
      8472 MEMB     82       POPS     H9X      HAL2     0.900000E-01   1.00800           0
      8473 MEMB     82       POPS     H9Y      HAL2     0.900000E-01   1.00800           0
      8474 MEMB     82       POPS     C310     CTL2    -0.180000       12.0110           0
      8475 MEMB     82       POPS     H10X     HAL2     0.900000E-01   1.00800           0
      8476 MEMB     82       POPS     H10Y     HAL2     0.900000E-01   1.00800           0
      8477 MEMB     82       POPS     C311     CTL2    -0.180000       12.0110           0
      8478 MEMB     82       POPS     H11X     HAL2     0.900000E-01   1.00800           0
      8479 MEMB     82       POPS     H11Y     HAL2     0.900000E-01   1.00800           0
      8480 MEMB     82       POPS     C312     CTL2    -0.180000       12.0110           0
      8481 MEMB     82       POPS     H12X     HAL2     0.900000E-01   1.00800           0
      8482 MEMB     82       POPS     H12Y     HAL2     0.900000E-01   1.00800           0
      8483 MEMB     82       POPS     C313     CTL2    -0.180000       12.0110           0
      8484 MEMB     82       POPS     H13X     HAL2     0.900000E-01   1.00800           0
      8485 MEMB     82       POPS     H13Y     HAL2     0.900000E-01   1.00800           0
      8486 MEMB     82       POPS     C314     CTL2    -0.180000       12.0110           0
      8487 MEMB     82       POPS     H14X     HAL2     0.900000E-01   1.00800           0
      8488 MEMB     82       POPS     H14Y     HAL2     0.900000E-01   1.00800           0
      8489 MEMB     82       POPS     C315     CTL2    -0.180000       12.0110           0
      8490 MEMB     82       POPS     H15X     HAL2     0.900000E-01   1.00800           0
      8491 MEMB     82       POPS     H15Y     HAL2     0.900000E-01   1.00800           0
      8492 MEMB     82       POPS     C316     CTL3    -0.270000       12.0110           0
      8493 MEMB     82       POPS     H16X     HAL3     0.900000E-01   1.00800           0
      8494 MEMB     82       POPS     H16Y     HAL3     0.900000E-01   1.00800           0
      8495 MEMB     82       POPS     H16Z     HAL3     0.900000E-01   1.00800           0
      8496 MEMB     83       PSM      N        NTL     -0.600000       14.0070           0
      8497 MEMB     83       PSM      C15      CTL5    -0.350000       12.0110           0
      8498 MEMB     83       PSM      H15A     HL       0.250000       1.00800           0
      8499 MEMB     83       PSM      H15B     HL       0.250000       1.00800           0
      8500 MEMB     83       PSM      H15C     HL       0.250000       1.00800           0
      8501 MEMB     83       PSM      C14      CTL5    -0.350000       12.0110           0
      8502 MEMB     83       PSM      H14A     HL       0.250000       1.00800           0
      8503 MEMB     83       PSM      H14B     HL       0.250000       1.00800           0
      8504 MEMB     83       PSM      H14C     HL       0.250000       1.00800           0
      8505 MEMB     83       PSM      C13      CTL5    -0.350000       12.0110           0
      8506 MEMB     83       PSM      H13A     HL       0.250000       1.00800           0
      8507 MEMB     83       PSM      H13B     HL       0.250000       1.00800           0
      8508 MEMB     83       PSM      H13C     HL       0.250000       1.00800           0
      8509 MEMB     83       PSM      C12      CTL2    -0.100000       12.0110           0
      8510 MEMB     83       PSM      H12A     HL       0.250000       1.00800           0
      8511 MEMB     83       PSM      H12B     HL       0.250000       1.00800           0
      8512 MEMB     83       PSM      C11      CTL2    -0.800000E-01   12.0110           0
      8513 MEMB     83       PSM      H11A     HAL2     0.900000E-01   1.00800           0
      8514 MEMB     83       PSM      H11B     HAL2     0.900000E-01   1.00800           0
      8515 MEMB     83       PSM      P        PL       1.500000       30.9740           0
      8516 MEMB     83       PSM      O13      O2L     -0.780000       15.9994           0
      8517 MEMB     83       PSM      O14      O2L     -0.780000       15.9994           0
      8518 MEMB     83       PSM      O11      OSLP    -0.570000       15.9994           0
      8519 MEMB     83       PSM      O12      OSLP    -0.570000       15.9994           0
      8520 MEMB     83       PSM      C1S      CTL2    -0.800000E-01   12.0110           0
      8521 MEMB     83       PSM      H1S      HAL2     0.900000E-01   1.00800           0
      8522 MEMB     83       PSM      H1T      HAL2     0.900000E-01   1.00800           0
      8523 MEMB     83       PSM      NF       NHL     -0.700000       14.0070           0
      8524 MEMB     83       PSM      HNF      H        0.350000       1.00800           0
      8525 MEMB     83       PSM      C2S      CTL1     0.300000       12.0110           0
      8526 MEMB     83       PSM      H2S      HAL1     0.500000E-01   1.00800           0
      8527 MEMB     83       PSM      C3S      CTO1     0.500000       12.0110           0
      8528 MEMB     83       PSM      H3S      HAL1    -0.110000       1.00800           0
      8529 MEMB     83       PSM      O3       OHL     -0.690000       15.9994           0
      8530 MEMB     83       PSM      HO3      HOL      0.300000       1.00800           0
      8531 MEMB     83       PSM      C4S      CEL3    -0.150000       12.0110           0
      8532 MEMB     83       PSM      H4S      HEL1     0.150000       1.00800           0
      8533 MEMB     83       PSM      C5S      CEL3    -0.150000       12.0110           0
      8534 MEMB     83       PSM      H5S      HEL1     0.150000       1.00800           0
      8535 MEMB     83       PSM      C6S      CTL2    -0.180000       12.0110           0
      8536 MEMB     83       PSM      H6S      HAL2     0.900000E-01   1.00800           0
      8537 MEMB     83       PSM      H6T      HAL2     0.900000E-01   1.00800           0
      8538 MEMB     83       PSM      C7S      CTL2    -0.180000       12.0110           0
      8539 MEMB     83       PSM      H7S      HAL2     0.900000E-01   1.00800           0
      8540 MEMB     83       PSM      H7T      HAL2     0.900000E-01   1.00800           0
      8541 MEMB     83       PSM      C8S      CTL2    -0.180000       12.0110           0
      8542 MEMB     83       PSM      H8S      HAL2     0.900000E-01   1.00800           0
      8543 MEMB     83       PSM      H8T      HAL2     0.900000E-01   1.00800           0
      8544 MEMB     83       PSM      C9S      CTL2    -0.180000       12.0110           0
      8545 MEMB     83       PSM      H9S      HAL2     0.900000E-01   1.00800           0
      8546 MEMB     83       PSM      H9T      HAL2     0.900000E-01   1.00800           0
      8547 MEMB     83       PSM      C10S     CTL2    -0.180000       12.0110           0
      8548 MEMB     83       PSM      H10S     HAL2     0.900000E-01   1.00800           0
      8549 MEMB     83       PSM      H10T     HAL2     0.900000E-01   1.00800           0
      8550 MEMB     83       PSM      C11S     CTL2    -0.180000       12.0110           0
      8551 MEMB     83       PSM      H11S     HAL2     0.900000E-01   1.00800           0
      8552 MEMB     83       PSM      H11T     HAL2     0.900000E-01   1.00800           0
      8553 MEMB     83       PSM      C12S     CTL2    -0.180000       12.0110           0
      8554 MEMB     83       PSM      H12S     HAL2     0.900000E-01   1.00800           0
      8555 MEMB     83       PSM      H12T     HAL2     0.900000E-01   1.00800           0
      8556 MEMB     83       PSM      C13S     CTL2    -0.180000       12.0110           0
      8557 MEMB     83       PSM      H13S     HAL2     0.900000E-01   1.00800           0
      8558 MEMB     83       PSM      H13T     HAL2     0.900000E-01   1.00800           0
      8559 MEMB     83       PSM      C14S     CTL2    -0.180000       12.0110           0
      8560 MEMB     83       PSM      H14S     HAL2     0.900000E-01   1.00800           0
      8561 MEMB     83       PSM      H14T     HAL2     0.900000E-01   1.00800           0
      8562 MEMB     83       PSM      C15S     CTL2    -0.180000       12.0110           0
      8563 MEMB     83       PSM      H15S     HAL2     0.900000E-01   1.00800           0
      8564 MEMB     83       PSM      H15T     HAL2     0.900000E-01   1.00800           0
      8565 MEMB     83       PSM      C16S     CTL2    -0.180000       12.0110           0
      8566 MEMB     83       PSM      H16S     HAL2     0.900000E-01   1.00800           0
      8567 MEMB     83       PSM      H16T     HAL2     0.900000E-01   1.00800           0
      8568 MEMB     83       PSM      C17S     CTL2    -0.180000       12.0110           0
      8569 MEMB     83       PSM      H17S     HAL2     0.900000E-01   1.00800           0
      8570 MEMB     83       PSM      H17T     HAL2     0.900000E-01   1.00800           0
      8571 MEMB     83       PSM      C18S     CTL3    -0.270000       12.0110           0
      8572 MEMB     83       PSM      H18S     HAL3     0.900000E-01   1.00800           0
      8573 MEMB     83       PSM      H18T     HAL3     0.900000E-01   1.00800           0
      8574 MEMB     83       PSM      H18U     HAL3     0.900000E-01   1.00800           0
      8575 MEMB     83       PSM      C1F      C        0.550000       12.0110           0
      8576 MEMB     83       PSM      OF       O       -0.600000       15.9994           0
      8577 MEMB     83       PSM      C2F      CTL2    -0.700000E-01   12.0110           0
      8578 MEMB     83       PSM      H2F      HAL2     0.600000E-01   1.00800           0
      8579 MEMB     83       PSM      H2G      HAL2     0.600000E-01   1.00800           0
      8580 MEMB     83       PSM      C3F      CTL2    -0.180000       12.0110           0
      8581 MEMB     83       PSM      H3F      HAL2     0.900000E-01   1.00800           0
      8582 MEMB     83       PSM      H3G      HAL2     0.900000E-01   1.00800           0
      8583 MEMB     83       PSM      C4F      CTL2    -0.180000       12.0110           0
      8584 MEMB     83       PSM      H4F      HAL2     0.900000E-01   1.00800           0
      8585 MEMB     83       PSM      H4G      HAL2     0.900000E-01   1.00800           0
      8586 MEMB     83       PSM      C5F      CTL2    -0.180000       12.0110           0
      8587 MEMB     83       PSM      H5F      HAL2     0.900000E-01   1.00800           0
      8588 MEMB     83       PSM      H5G      HAL2     0.900000E-01   1.00800           0
      8589 MEMB     83       PSM      C6F      CTL2    -0.180000       12.0110           0
      8590 MEMB     83       PSM      H6F      HAL2     0.900000E-01   1.00800           0
      8591 MEMB     83       PSM      H6G      HAL2     0.900000E-01   1.00800           0
      8592 MEMB     83       PSM      C7F      CTL2    -0.180000       12.0110           0
      8593 MEMB     83       PSM      H7F      HAL2     0.900000E-01   1.00800           0
      8594 MEMB     83       PSM      H7G      HAL2     0.900000E-01   1.00800           0
      8595 MEMB     83       PSM      C8F      CTL2    -0.180000       12.0110           0
      8596 MEMB     83       PSM      H8F      HAL2     0.900000E-01   1.00800           0
      8597 MEMB     83       PSM      H8G      HAL2     0.900000E-01   1.00800           0
      8598 MEMB     83       PSM      C9F      CTL2    -0.180000       12.0110           0
      8599 MEMB     83       PSM      H9F      HAL2     0.900000E-01   1.00800           0
      8600 MEMB     83       PSM      H9G      HAL2     0.900000E-01   1.00800           0
      8601 MEMB     83       PSM      C10F     CTL2    -0.180000       12.0110           0
      8602 MEMB     83       PSM      H10F     HAL2     0.900000E-01   1.00800           0
      8603 MEMB     83       PSM      H10G     HAL2     0.900000E-01   1.00800           0
      8604 MEMB     83       PSM      C11F     CTL2    -0.180000       12.0110           0
      8605 MEMB     83       PSM      H11F     HAL2     0.900000E-01   1.00800           0
      8606 MEMB     83       PSM      H11G     HAL2     0.900000E-01   1.00800           0
      8607 MEMB     83       PSM      C12F     CTL2    -0.180000       12.0110           0
      8608 MEMB     83       PSM      H12F     HAL2     0.900000E-01   1.00800           0
      8609 MEMB     83       PSM      H12G     HAL2     0.900000E-01   1.00800           0
      8610 MEMB     83       PSM      C13F     CTL2    -0.180000       12.0110           0
      8611 MEMB     83       PSM      H13F     HAL2     0.900000E-01   1.00800           0
      8612 MEMB     83       PSM      H13G     HAL2     0.900000E-01   1.00800           0
      8613 MEMB     83       PSM      C14F     CTL2    -0.180000       12.0110           0
      8614 MEMB     83       PSM      H14F     HAL2     0.900000E-01   1.00800           0
      8615 MEMB     83       PSM      H14G     HAL2     0.900000E-01   1.00800           0
      8616 MEMB     83       PSM      C15F     CTL2    -0.180000       12.0110           0
      8617 MEMB     83       PSM      H15F     HAL2     0.900000E-01   1.00800           0
      8618 MEMB     83       PSM      H15G     HAL2     0.900000E-01   1.00800           0
      8619 MEMB     83       PSM      C16F     CTL3    -0.270000       12.0110           0
      8620 MEMB     83       PSM      H16F     HAL3     0.900000E-01   1.00800           0
      8621 MEMB     83       PSM      H16G     HAL3     0.900000E-01   1.00800           0
      8622 MEMB     83       PSM      H16H     HAL3     0.900000E-01   1.00800           0
      8623 MEMB     84       POPS     N        NH3L    -0.300000       14.0070           0
      8624 MEMB     84       POPS     HN1      HCL      0.330000       1.00800           0
      8625 MEMB     84       POPS     HN2      HCL      0.330000       1.00800           0
      8626 MEMB     84       POPS     HN3      HCL      0.330000       1.00800           0
      8627 MEMB     84       POPS     C12      CTL1     0.210000       12.0110           0
      8628 MEMB     84       POPS     H12A     HBL      0.100000       1.00800           0
      8629 MEMB     84       POPS     C13      CCL      0.340000       12.0110           0
      8630 MEMB     84       POPS     O13A     OCL     -0.670000       15.9994           0
      8631 MEMB     84       POPS     O13B     OCL     -0.670000       15.9994           0
      8632 MEMB     84       POPS     C11      CTL2    -0.800000E-01   12.0110           0
      8633 MEMB     84       POPS     H11A     HAL2     0.900000E-01   1.00800           0
      8634 MEMB     84       POPS     H11B     HAL2     0.900000E-01   1.00800           0
      8635 MEMB     84       POPS     P        PL       1.500000       30.9740           0
      8636 MEMB     84       POPS     O13      O2L     -0.780000       15.9994           0
      8637 MEMB     84       POPS     O14      O2L     -0.780000       15.9994           0
      8638 MEMB     84       POPS     O12      OSLP    -0.570000       15.9994           0
      8639 MEMB     84       POPS     O11      OSLP    -0.570000       15.9994           0
      8640 MEMB     84       POPS     C1       CTL2    -0.800000E-01   12.0110           0
      8641 MEMB     84       POPS     HA       HAL2     0.900000E-01   1.00800           0
      8642 MEMB     84       POPS     HB       HAL2     0.900000E-01   1.00800           0
      8643 MEMB     84       POPS     C2       CTL1     0.170000       12.0110           0
      8644 MEMB     84       POPS     HS       HAL1     0.900000E-01   1.00800           0
      8645 MEMB     84       POPS     O21      OSL     -0.490000       15.9994           0
      8646 MEMB     84       POPS     C21      CL       0.900000       12.0110           0
      8647 MEMB     84       POPS     O22      OBL     -0.630000       15.9994           0
      8648 MEMB     84       POPS     C22      CTL2    -0.220000       12.0110           0
      8649 MEMB     84       POPS     H2R      HAL2     0.900000E-01   1.00800           0
      8650 MEMB     84       POPS     H2S      HAL2     0.900000E-01   1.00800           0
      8651 MEMB     84       POPS     C3       CTL2     0.800000E-01   12.0110           0
      8652 MEMB     84       POPS     HX       HAL2     0.900000E-01   1.00800           0
      8653 MEMB     84       POPS     HY       HAL2     0.900000E-01   1.00800           0
      8654 MEMB     84       POPS     O31      OSL     -0.490000       15.9994           0
      8655 MEMB     84       POPS     C31      CL       0.900000       12.0110           0
      8656 MEMB     84       POPS     O32      OBL     -0.630000       15.9994           0
      8657 MEMB     84       POPS     C32      CTL2    -0.220000       12.0110           0
      8658 MEMB     84       POPS     H2X      HAL2     0.900000E-01   1.00800           0
      8659 MEMB     84       POPS     H2Y      HAL2     0.900000E-01   1.00800           0
      8660 MEMB     84       POPS     C23      CTL2    -0.180000       12.0110           0
      8661 MEMB     84       POPS     H3R      HAL2     0.900000E-01   1.00800           0
      8662 MEMB     84       POPS     H3S      HAL2     0.900000E-01   1.00800           0
      8663 MEMB     84       POPS     C24      CTL2    -0.180000       12.0110           0
      8664 MEMB     84       POPS     H4R      HAL2     0.900000E-01   1.00800           0
      8665 MEMB     84       POPS     H4S      HAL2     0.900000E-01   1.00800           0
      8666 MEMB     84       POPS     C25      CTL2    -0.180000       12.0110           0
      8667 MEMB     84       POPS     H5R      HAL2     0.900000E-01   1.00800           0
      8668 MEMB     84       POPS     H5S      HAL2     0.900000E-01   1.00800           0
      8669 MEMB     84       POPS     C26      CTL2    -0.180000       12.0110           0
      8670 MEMB     84       POPS     H6R      HAL2     0.900000E-01   1.00800           0
      8671 MEMB     84       POPS     H6S      HAL2     0.900000E-01   1.00800           0
      8672 MEMB     84       POPS     C27      CTL2    -0.180000       12.0110           0
      8673 MEMB     84       POPS     H7R      HAL2     0.900000E-01   1.00800           0
      8674 MEMB     84       POPS     H7S      HAL2     0.900000E-01   1.00800           0
      8675 MEMB     84       POPS     C28      CTL2    -0.180000       12.0110           0
      8676 MEMB     84       POPS     H8R      HAL2     0.900000E-01   1.00800           0
      8677 MEMB     84       POPS     H8S      HAL2     0.900000E-01   1.00800           0
      8678 MEMB     84       POPS     C29      CEL1    -0.150000       12.0110           0
      8679 MEMB     84       POPS     H91      HEL1     0.150000       1.00800           0
      8680 MEMB     84       POPS     C210     CEL1    -0.150000       12.0110           0
      8681 MEMB     84       POPS     H101     HEL1     0.150000       1.00800           0
      8682 MEMB     84       POPS     C211     CTL2    -0.180000       12.0110           0
      8683 MEMB     84       POPS     H11R     HAL2     0.900000E-01   1.00800           0
      8684 MEMB     84       POPS     H11S     HAL2     0.900000E-01   1.00800           0
      8685 MEMB     84       POPS     C212     CTL2    -0.180000       12.0110           0
      8686 MEMB     84       POPS     H12R     HAL2     0.900000E-01   1.00800           0
      8687 MEMB     84       POPS     H12S     HAL2     0.900000E-01   1.00800           0
      8688 MEMB     84       POPS     C213     CTL2    -0.180000       12.0110           0
      8689 MEMB     84       POPS     H13R     HAL2     0.900000E-01   1.00800           0
      8690 MEMB     84       POPS     H13S     HAL2     0.900000E-01   1.00800           0
      8691 MEMB     84       POPS     C214     CTL2    -0.180000       12.0110           0
      8692 MEMB     84       POPS     H14R     HAL2     0.900000E-01   1.00800           0
      8693 MEMB     84       POPS     H14S     HAL2     0.900000E-01   1.00800           0
      8694 MEMB     84       POPS     C215     CTL2    -0.180000       12.0110           0
      8695 MEMB     84       POPS     H15R     HAL2     0.900000E-01   1.00800           0
      8696 MEMB     84       POPS     H15S     HAL2     0.900000E-01   1.00800           0
      8697 MEMB     84       POPS     C216     CTL2    -0.180000       12.0110           0
      8698 MEMB     84       POPS     H16R     HAL2     0.900000E-01   1.00800           0
      8699 MEMB     84       POPS     H16S     HAL2     0.900000E-01   1.00800           0
      8700 MEMB     84       POPS     C217     CTL2    -0.180000       12.0110           0
      8701 MEMB     84       POPS     H17R     HAL2     0.900000E-01   1.00800           0
      8702 MEMB     84       POPS     H17S     HAL2     0.900000E-01   1.00800           0
      8703 MEMB     84       POPS     C218     CTL3    -0.270000       12.0110           0
      8704 MEMB     84       POPS     H18R     HAL3     0.900000E-01   1.00800           0
      8705 MEMB     84       POPS     H18S     HAL3     0.900000E-01   1.00800           0
      8706 MEMB     84       POPS     H18T     HAL3     0.900000E-01   1.00800           0
      8707 MEMB     84       POPS     C33      CTL2    -0.180000       12.0110           0
      8708 MEMB     84       POPS     H3X      HAL2     0.900000E-01   1.00800           0
      8709 MEMB     84       POPS     H3Y      HAL2     0.900000E-01   1.00800           0
      8710 MEMB     84       POPS     C34      CTL2    -0.180000       12.0110           0
      8711 MEMB     84       POPS     H4X      HAL2     0.900000E-01   1.00800           0
      8712 MEMB     84       POPS     H4Y      HAL2     0.900000E-01   1.00800           0
      8713 MEMB     84       POPS     C35      CTL2    -0.180000       12.0110           0
      8714 MEMB     84       POPS     H5X      HAL2     0.900000E-01   1.00800           0
      8715 MEMB     84       POPS     H5Y      HAL2     0.900000E-01   1.00800           0
      8716 MEMB     84       POPS     C36      CTL2    -0.180000       12.0110           0
      8717 MEMB     84       POPS     H6X      HAL2     0.900000E-01   1.00800           0
      8718 MEMB     84       POPS     H6Y      HAL2     0.900000E-01   1.00800           0
      8719 MEMB     84       POPS     C37      CTL2    -0.180000       12.0110           0
      8720 MEMB     84       POPS     H7X      HAL2     0.900000E-01   1.00800           0
      8721 MEMB     84       POPS     H7Y      HAL2     0.900000E-01   1.00800           0
      8722 MEMB     84       POPS     C38      CTL2    -0.180000       12.0110           0
      8723 MEMB     84       POPS     H8X      HAL2     0.900000E-01   1.00800           0
      8724 MEMB     84       POPS     H8Y      HAL2     0.900000E-01   1.00800           0
      8725 MEMB     84       POPS     C39      CTL2    -0.180000       12.0110           0
      8726 MEMB     84       POPS     H9X      HAL2     0.900000E-01   1.00800           0
      8727 MEMB     84       POPS     H9Y      HAL2     0.900000E-01   1.00800           0
      8728 MEMB     84       POPS     C310     CTL2    -0.180000       12.0110           0
      8729 MEMB     84       POPS     H10X     HAL2     0.900000E-01   1.00800           0
      8730 MEMB     84       POPS     H10Y     HAL2     0.900000E-01   1.00800           0
      8731 MEMB     84       POPS     C311     CTL2    -0.180000       12.0110           0
      8732 MEMB     84       POPS     H11X     HAL2     0.900000E-01   1.00800           0
      8733 MEMB     84       POPS     H11Y     HAL2     0.900000E-01   1.00800           0
      8734 MEMB     84       POPS     C312     CTL2    -0.180000       12.0110           0
      8735 MEMB     84       POPS     H12X     HAL2     0.900000E-01   1.00800           0
      8736 MEMB     84       POPS     H12Y     HAL2     0.900000E-01   1.00800           0
      8737 MEMB     84       POPS     C313     CTL2    -0.180000       12.0110           0
      8738 MEMB     84       POPS     H13X     HAL2     0.900000E-01   1.00800           0
      8739 MEMB     84       POPS     H13Y     HAL2     0.900000E-01   1.00800           0
      8740 MEMB     84       POPS     C314     CTL2    -0.180000       12.0110           0
      8741 MEMB     84       POPS     H14X     HAL2     0.900000E-01   1.00800           0
      8742 MEMB     84       POPS     H14Y     HAL2     0.900000E-01   1.00800           0
      8743 MEMB     84       POPS     C315     CTL2    -0.180000       12.0110           0
      8744 MEMB     84       POPS     H15X     HAL2     0.900000E-01   1.00800           0
      8745 MEMB     84       POPS     H15Y     HAL2     0.900000E-01   1.00800           0
      8746 MEMB     84       POPS     C316     CTL3    -0.270000       12.0110           0
      8747 MEMB     84       POPS     H16X     HAL3     0.900000E-01   1.00800           0
      8748 MEMB     84       POPS     H16Y     HAL3     0.900000E-01   1.00800           0
      8749 MEMB     84       POPS     H16Z     HAL3     0.900000E-01   1.00800           0
      8750 MEMB     85       POPS     N        NH3L    -0.300000       14.0070           0
      8751 MEMB     85       POPS     HN1      HCL      0.330000       1.00800           0
      8752 MEMB     85       POPS     HN2      HCL      0.330000       1.00800           0
      8753 MEMB     85       POPS     HN3      HCL      0.330000       1.00800           0
      8754 MEMB     85       POPS     C12      CTL1     0.210000       12.0110           0
      8755 MEMB     85       POPS     H12A     HBL      0.100000       1.00800           0
      8756 MEMB     85       POPS     C13      CCL      0.340000       12.0110           0
      8757 MEMB     85       POPS     O13A     OCL     -0.670000       15.9994           0
      8758 MEMB     85       POPS     O13B     OCL     -0.670000       15.9994           0
      8759 MEMB     85       POPS     C11      CTL2    -0.800000E-01   12.0110           0
      8760 MEMB     85       POPS     H11A     HAL2     0.900000E-01   1.00800           0
      8761 MEMB     85       POPS     H11B     HAL2     0.900000E-01   1.00800           0
      8762 MEMB     85       POPS     P        PL       1.500000       30.9740           0
      8763 MEMB     85       POPS     O13      O2L     -0.780000       15.9994           0
      8764 MEMB     85       POPS     O14      O2L     -0.780000       15.9994           0
      8765 MEMB     85       POPS     O12      OSLP    -0.570000       15.9994           0
      8766 MEMB     85       POPS     O11      OSLP    -0.570000       15.9994           0
      8767 MEMB     85       POPS     C1       CTL2    -0.800000E-01   12.0110           0
      8768 MEMB     85       POPS     HA       HAL2     0.900000E-01   1.00800           0
      8769 MEMB     85       POPS     HB       HAL2     0.900000E-01   1.00800           0
      8770 MEMB     85       POPS     C2       CTL1     0.170000       12.0110           0
      8771 MEMB     85       POPS     HS       HAL1     0.900000E-01   1.00800           0
      8772 MEMB     85       POPS     O21      OSL     -0.490000       15.9994           0
      8773 MEMB     85       POPS     C21      CL       0.900000       12.0110           0
      8774 MEMB     85       POPS     O22      OBL     -0.630000       15.9994           0
      8775 MEMB     85       POPS     C22      CTL2    -0.220000       12.0110           0
      8776 MEMB     85       POPS     H2R      HAL2     0.900000E-01   1.00800           0
      8777 MEMB     85       POPS     H2S      HAL2     0.900000E-01   1.00800           0
      8778 MEMB     85       POPS     C3       CTL2     0.800000E-01   12.0110           0
      8779 MEMB     85       POPS     HX       HAL2     0.900000E-01   1.00800           0
      8780 MEMB     85       POPS     HY       HAL2     0.900000E-01   1.00800           0
      8781 MEMB     85       POPS     O31      OSL     -0.490000       15.9994           0
      8782 MEMB     85       POPS     C31      CL       0.900000       12.0110           0
      8783 MEMB     85       POPS     O32      OBL     -0.630000       15.9994           0
      8784 MEMB     85       POPS     C32      CTL2    -0.220000       12.0110           0
      8785 MEMB     85       POPS     H2X      HAL2     0.900000E-01   1.00800           0
      8786 MEMB     85       POPS     H2Y      HAL2     0.900000E-01   1.00800           0
      8787 MEMB     85       POPS     C23      CTL2    -0.180000       12.0110           0
      8788 MEMB     85       POPS     H3R      HAL2     0.900000E-01   1.00800           0
      8789 MEMB     85       POPS     H3S      HAL2     0.900000E-01   1.00800           0
      8790 MEMB     85       POPS     C24      CTL2    -0.180000       12.0110           0
      8791 MEMB     85       POPS     H4R      HAL2     0.900000E-01   1.00800           0
      8792 MEMB     85       POPS     H4S      HAL2     0.900000E-01   1.00800           0
      8793 MEMB     85       POPS     C25      CTL2    -0.180000       12.0110           0
      8794 MEMB     85       POPS     H5R      HAL2     0.900000E-01   1.00800           0
      8795 MEMB     85       POPS     H5S      HAL2     0.900000E-01   1.00800           0
      8796 MEMB     85       POPS     C26      CTL2    -0.180000       12.0110           0
      8797 MEMB     85       POPS     H6R      HAL2     0.900000E-01   1.00800           0
      8798 MEMB     85       POPS     H6S      HAL2     0.900000E-01   1.00800           0
      8799 MEMB     85       POPS     C27      CTL2    -0.180000       12.0110           0
      8800 MEMB     85       POPS     H7R      HAL2     0.900000E-01   1.00800           0
      8801 MEMB     85       POPS     H7S      HAL2     0.900000E-01   1.00800           0
      8802 MEMB     85       POPS     C28      CTL2    -0.180000       12.0110           0
      8803 MEMB     85       POPS     H8R      HAL2     0.900000E-01   1.00800           0
      8804 MEMB     85       POPS     H8S      HAL2     0.900000E-01   1.00800           0
      8805 MEMB     85       POPS     C29      CEL1    -0.150000       12.0110           0
      8806 MEMB     85       POPS     H91      HEL1     0.150000       1.00800           0
      8807 MEMB     85       POPS     C210     CEL1    -0.150000       12.0110           0
      8808 MEMB     85       POPS     H101     HEL1     0.150000       1.00800           0
      8809 MEMB     85       POPS     C211     CTL2    -0.180000       12.0110           0
      8810 MEMB     85       POPS     H11R     HAL2     0.900000E-01   1.00800           0
      8811 MEMB     85       POPS     H11S     HAL2     0.900000E-01   1.00800           0
      8812 MEMB     85       POPS     C212     CTL2    -0.180000       12.0110           0
      8813 MEMB     85       POPS     H12R     HAL2     0.900000E-01   1.00800           0
      8814 MEMB     85       POPS     H12S     HAL2     0.900000E-01   1.00800           0
      8815 MEMB     85       POPS     C213     CTL2    -0.180000       12.0110           0
      8816 MEMB     85       POPS     H13R     HAL2     0.900000E-01   1.00800           0
      8817 MEMB     85       POPS     H13S     HAL2     0.900000E-01   1.00800           0
      8818 MEMB     85       POPS     C214     CTL2    -0.180000       12.0110           0
      8819 MEMB     85       POPS     H14R     HAL2     0.900000E-01   1.00800           0
      8820 MEMB     85       POPS     H14S     HAL2     0.900000E-01   1.00800           0
      8821 MEMB     85       POPS     C215     CTL2    -0.180000       12.0110           0
      8822 MEMB     85       POPS     H15R     HAL2     0.900000E-01   1.00800           0
      8823 MEMB     85       POPS     H15S     HAL2     0.900000E-01   1.00800           0
      8824 MEMB     85       POPS     C216     CTL2    -0.180000       12.0110           0
      8825 MEMB     85       POPS     H16R     HAL2     0.900000E-01   1.00800           0
      8826 MEMB     85       POPS     H16S     HAL2     0.900000E-01   1.00800           0
      8827 MEMB     85       POPS     C217     CTL2    -0.180000       12.0110           0
      8828 MEMB     85       POPS     H17R     HAL2     0.900000E-01   1.00800           0
      8829 MEMB     85       POPS     H17S     HAL2     0.900000E-01   1.00800           0
      8830 MEMB     85       POPS     C218     CTL3    -0.270000       12.0110           0
      8831 MEMB     85       POPS     H18R     HAL3     0.900000E-01   1.00800           0
      8832 MEMB     85       POPS     H18S     HAL3     0.900000E-01   1.00800           0
      8833 MEMB     85       POPS     H18T     HAL3     0.900000E-01   1.00800           0
      8834 MEMB     85       POPS     C33      CTL2    -0.180000       12.0110           0
      8835 MEMB     85       POPS     H3X      HAL2     0.900000E-01   1.00800           0
      8836 MEMB     85       POPS     H3Y      HAL2     0.900000E-01   1.00800           0
      8837 MEMB     85       POPS     C34      CTL2    -0.180000       12.0110           0
      8838 MEMB     85       POPS     H4X      HAL2     0.900000E-01   1.00800           0
      8839 MEMB     85       POPS     H4Y      HAL2     0.900000E-01   1.00800           0
      8840 MEMB     85       POPS     C35      CTL2    -0.180000       12.0110           0
      8841 MEMB     85       POPS     H5X      HAL2     0.900000E-01   1.00800           0
      8842 MEMB     85       POPS     H5Y      HAL2     0.900000E-01   1.00800           0
      8843 MEMB     85       POPS     C36      CTL2    -0.180000       12.0110           0
      8844 MEMB     85       POPS     H6X      HAL2     0.900000E-01   1.00800           0
      8845 MEMB     85       POPS     H6Y      HAL2     0.900000E-01   1.00800           0
      8846 MEMB     85       POPS     C37      CTL2    -0.180000       12.0110           0
      8847 MEMB     85       POPS     H7X      HAL2     0.900000E-01   1.00800           0
      8848 MEMB     85       POPS     H7Y      HAL2     0.900000E-01   1.00800           0
      8849 MEMB     85       POPS     C38      CTL2    -0.180000       12.0110           0
      8850 MEMB     85       POPS     H8X      HAL2     0.900000E-01   1.00800           0
      8851 MEMB     85       POPS     H8Y      HAL2     0.900000E-01   1.00800           0
      8852 MEMB     85       POPS     C39      CTL2    -0.180000       12.0110           0
      8853 MEMB     85       POPS     H9X      HAL2     0.900000E-01   1.00800           0
      8854 MEMB     85       POPS     H9Y      HAL2     0.900000E-01   1.00800           0
      8855 MEMB     85       POPS     C310     CTL2    -0.180000       12.0110           0
      8856 MEMB     85       POPS     H10X     HAL2     0.900000E-01   1.00800           0
      8857 MEMB     85       POPS     H10Y     HAL2     0.900000E-01   1.00800           0
      8858 MEMB     85       POPS     C311     CTL2    -0.180000       12.0110           0
      8859 MEMB     85       POPS     H11X     HAL2     0.900000E-01   1.00800           0
      8860 MEMB     85       POPS     H11Y     HAL2     0.900000E-01   1.00800           0
      8861 MEMB     85       POPS     C312     CTL2    -0.180000       12.0110           0
      8862 MEMB     85       POPS     H12X     HAL2     0.900000E-01   1.00800           0
      8863 MEMB     85       POPS     H12Y     HAL2     0.900000E-01   1.00800           0
      8864 MEMB     85       POPS     C313     CTL2    -0.180000       12.0110           0
      8865 MEMB     85       POPS     H13X     HAL2     0.900000E-01   1.00800           0
      8866 MEMB     85       POPS     H13Y     HAL2     0.900000E-01   1.00800           0
      8867 MEMB     85       POPS     C314     CTL2    -0.180000       12.0110           0
      8868 MEMB     85       POPS     H14X     HAL2     0.900000E-01   1.00800           0
      8869 MEMB     85       POPS     H14Y     HAL2     0.900000E-01   1.00800           0
      8870 MEMB     85       POPS     C315     CTL2    -0.180000       12.0110           0
      8871 MEMB     85       POPS     H15X     HAL2     0.900000E-01   1.00800           0
      8872 MEMB     85       POPS     H15Y     HAL2     0.900000E-01   1.00800           0
      8873 MEMB     85       POPS     C316     CTL3    -0.270000       12.0110           0
      8874 MEMB     85       POPS     H16X     HAL3     0.900000E-01   1.00800           0
      8875 MEMB     85       POPS     H16Y     HAL3     0.900000E-01   1.00800           0
      8876 MEMB     85       POPS     H16Z     HAL3     0.900000E-01   1.00800           0
      8877 MEMB     86       POPC     N        NTL     -0.600000       14.0070           0
      8878 MEMB     86       POPC     C12      CTL2    -0.100000       12.0110           0
      8879 MEMB     86       POPC     H12A     HL       0.250000       1.00800           0
      8880 MEMB     86       POPC     H12B     HL       0.250000       1.00800           0
      8881 MEMB     86       POPC     C13      CTL5    -0.350000       12.0110           0
      8882 MEMB     86       POPC     H13A     HL       0.250000       1.00800           0
      8883 MEMB     86       POPC     H13B     HL       0.250000       1.00800           0
      8884 MEMB     86       POPC     H13C     HL       0.250000       1.00800           0
      8885 MEMB     86       POPC     C14      CTL5    -0.350000       12.0110           0
      8886 MEMB     86       POPC     H14A     HL       0.250000       1.00800           0
      8887 MEMB     86       POPC     H14B     HL       0.250000       1.00800           0
      8888 MEMB     86       POPC     H14C     HL       0.250000       1.00800           0
      8889 MEMB     86       POPC     C15      CTL5    -0.350000       12.0110           0
      8890 MEMB     86       POPC     H15A     HL       0.250000       1.00800           0
      8891 MEMB     86       POPC     H15B     HL       0.250000       1.00800           0
      8892 MEMB     86       POPC     H15C     HL       0.250000       1.00800           0
      8893 MEMB     86       POPC     C11      CTL2    -0.800000E-01   12.0110           0
      8894 MEMB     86       POPC     H11A     HAL2     0.900000E-01   1.00800           0
      8895 MEMB     86       POPC     H11B     HAL2     0.900000E-01   1.00800           0
      8896 MEMB     86       POPC     P        PL       1.500000       30.9740           0
      8897 MEMB     86       POPC     O13      O2L     -0.780000       15.9994           0
      8898 MEMB     86       POPC     O14      O2L     -0.780000       15.9994           0
      8899 MEMB     86       POPC     O12      OSLP    -0.570000       15.9994           0
      8900 MEMB     86       POPC     O11      OSLP    -0.570000       15.9994           0
      8901 MEMB     86       POPC     C1       CTL2    -0.800000E-01   12.0110           0
      8902 MEMB     86       POPC     HA       HAL2     0.900000E-01   1.00800           0
      8903 MEMB     86       POPC     HB       HAL2     0.900000E-01   1.00800           0
      8904 MEMB     86       POPC     C2       CTL1     0.170000       12.0110           0
      8905 MEMB     86       POPC     HS       HAL1     0.900000E-01   1.00800           0
      8906 MEMB     86       POPC     O21      OSL     -0.490000       15.9994           0
      8907 MEMB     86       POPC     C21      CL       0.900000       12.0110           0
      8908 MEMB     86       POPC     O22      OBL     -0.630000       15.9994           0
      8909 MEMB     86       POPC     C22      CTL2    -0.220000       12.0110           0
      8910 MEMB     86       POPC     H2R      HAL2     0.900000E-01   1.00800           0
      8911 MEMB     86       POPC     H2S      HAL2     0.900000E-01   1.00800           0
      8912 MEMB     86       POPC     C3       CTL2     0.800000E-01   12.0110           0
      8913 MEMB     86       POPC     HX       HAL2     0.900000E-01   1.00800           0
      8914 MEMB     86       POPC     HY       HAL2     0.900000E-01   1.00800           0
      8915 MEMB     86       POPC     O31      OSL     -0.490000       15.9994           0
      8916 MEMB     86       POPC     C31      CL       0.900000       12.0110           0
      8917 MEMB     86       POPC     O32      OBL     -0.630000       15.9994           0
      8918 MEMB     86       POPC     C32      CTL2    -0.220000       12.0110           0
      8919 MEMB     86       POPC     H2X      HAL2     0.900000E-01   1.00800           0
      8920 MEMB     86       POPC     H2Y      HAL2     0.900000E-01   1.00800           0
      8921 MEMB     86       POPC     C23      CTL2    -0.180000       12.0110           0
      8922 MEMB     86       POPC     H3R      HAL2     0.900000E-01   1.00800           0
      8923 MEMB     86       POPC     H3S      HAL2     0.900000E-01   1.00800           0
      8924 MEMB     86       POPC     C24      CTL2    -0.180000       12.0110           0
      8925 MEMB     86       POPC     H4R      HAL2     0.900000E-01   1.00800           0
      8926 MEMB     86       POPC     H4S      HAL2     0.900000E-01   1.00800           0
      8927 MEMB     86       POPC     C25      CTL2    -0.180000       12.0110           0
      8928 MEMB     86       POPC     H5R      HAL2     0.900000E-01   1.00800           0
      8929 MEMB     86       POPC     H5S      HAL2     0.900000E-01   1.00800           0
      8930 MEMB     86       POPC     C26      CTL2    -0.180000       12.0110           0
      8931 MEMB     86       POPC     H6R      HAL2     0.900000E-01   1.00800           0
      8932 MEMB     86       POPC     H6S      HAL2     0.900000E-01   1.00800           0
      8933 MEMB     86       POPC     C27      CTL2    -0.180000       12.0110           0
      8934 MEMB     86       POPC     H7R      HAL2     0.900000E-01   1.00800           0
      8935 MEMB     86       POPC     H7S      HAL2     0.900000E-01   1.00800           0
      8936 MEMB     86       POPC     C28      CTL2    -0.180000       12.0110           0
      8937 MEMB     86       POPC     H8R      HAL2     0.900000E-01   1.00800           0
      8938 MEMB     86       POPC     H8S      HAL2     0.900000E-01   1.00800           0
      8939 MEMB     86       POPC     C29      CEL1    -0.150000       12.0110           0
      8940 MEMB     86       POPC     H91      HEL1     0.150000       1.00800           0
      8941 MEMB     86       POPC     C210     CEL1    -0.150000       12.0110           0
      8942 MEMB     86       POPC     H101     HEL1     0.150000       1.00800           0
      8943 MEMB     86       POPC     C211     CTL2    -0.180000       12.0110           0
      8944 MEMB     86       POPC     H11R     HAL2     0.900000E-01   1.00800           0
      8945 MEMB     86       POPC     H11S     HAL2     0.900000E-01   1.00800           0
      8946 MEMB     86       POPC     C212     CTL2    -0.180000       12.0110           0
      8947 MEMB     86       POPC     H12R     HAL2     0.900000E-01   1.00800           0
      8948 MEMB     86       POPC     H12S     HAL2     0.900000E-01   1.00800           0
      8949 MEMB     86       POPC     C213     CTL2    -0.180000       12.0110           0
      8950 MEMB     86       POPC     H13R     HAL2     0.900000E-01   1.00800           0
      8951 MEMB     86       POPC     H13S     HAL2     0.900000E-01   1.00800           0
      8952 MEMB     86       POPC     C214     CTL2    -0.180000       12.0110           0
      8953 MEMB     86       POPC     H14R     HAL2     0.900000E-01   1.00800           0
      8954 MEMB     86       POPC     H14S     HAL2     0.900000E-01   1.00800           0
      8955 MEMB     86       POPC     C215     CTL2    -0.180000       12.0110           0
      8956 MEMB     86       POPC     H15R     HAL2     0.900000E-01   1.00800           0
      8957 MEMB     86       POPC     H15S     HAL2     0.900000E-01   1.00800           0
      8958 MEMB     86       POPC     C216     CTL2    -0.180000       12.0110           0
      8959 MEMB     86       POPC     H16R     HAL2     0.900000E-01   1.00800           0
      8960 MEMB     86       POPC     H16S     HAL2     0.900000E-01   1.00800           0
      8961 MEMB     86       POPC     C217     CTL2    -0.180000       12.0110           0
      8962 MEMB     86       POPC     H17R     HAL2     0.900000E-01   1.00800           0
      8963 MEMB     86       POPC     H17S     HAL2     0.900000E-01   1.00800           0
      8964 MEMB     86       POPC     C218     CTL3    -0.270000       12.0110           0
      8965 MEMB     86       POPC     H18R     HAL3     0.900000E-01   1.00800           0
      8966 MEMB     86       POPC     H18S     HAL3     0.900000E-01   1.00800           0
      8967 MEMB     86       POPC     H18T     HAL3     0.900000E-01   1.00800           0
      8968 MEMB     86       POPC     C33      CTL2    -0.180000       12.0110           0
      8969 MEMB     86       POPC     H3X      HAL2     0.900000E-01   1.00800           0
      8970 MEMB     86       POPC     H3Y      HAL2     0.900000E-01   1.00800           0
      8971 MEMB     86       POPC     C34      CTL2    -0.180000       12.0110           0
      8972 MEMB     86       POPC     H4X      HAL2     0.900000E-01   1.00800           0
      8973 MEMB     86       POPC     H4Y      HAL2     0.900000E-01   1.00800           0
      8974 MEMB     86       POPC     C35      CTL2    -0.180000       12.0110           0
      8975 MEMB     86       POPC     H5X      HAL2     0.900000E-01   1.00800           0
      8976 MEMB     86       POPC     H5Y      HAL2     0.900000E-01   1.00800           0
      8977 MEMB     86       POPC     C36      CTL2    -0.180000       12.0110           0
      8978 MEMB     86       POPC     H6X      HAL2     0.900000E-01   1.00800           0
      8979 MEMB     86       POPC     H6Y      HAL2     0.900000E-01   1.00800           0
      8980 MEMB     86       POPC     C37      CTL2    -0.180000       12.0110           0
      8981 MEMB     86       POPC     H7X      HAL2     0.900000E-01   1.00800           0
      8982 MEMB     86       POPC     H7Y      HAL2     0.900000E-01   1.00800           0
      8983 MEMB     86       POPC     C38      CTL2    -0.180000       12.0110           0
      8984 MEMB     86       POPC     H8X      HAL2     0.900000E-01   1.00800           0
      8985 MEMB     86       POPC     H8Y      HAL2     0.900000E-01   1.00800           0
      8986 MEMB     86       POPC     C39      CTL2    -0.180000       12.0110           0
      8987 MEMB     86       POPC     H9X      HAL2     0.900000E-01   1.00800           0
      8988 MEMB     86       POPC     H9Y      HAL2     0.900000E-01   1.00800           0
      8989 MEMB     86       POPC     C310     CTL2    -0.180000       12.0110           0
      8990 MEMB     86       POPC     H10X     HAL2     0.900000E-01   1.00800           0
      8991 MEMB     86       POPC     H10Y     HAL2     0.900000E-01   1.00800           0
      8992 MEMB     86       POPC     C311     CTL2    -0.180000       12.0110           0
      8993 MEMB     86       POPC     H11X     HAL2     0.900000E-01   1.00800           0
      8994 MEMB     86       POPC     H11Y     HAL2     0.900000E-01   1.00800           0
      8995 MEMB     86       POPC     C312     CTL2    -0.180000       12.0110           0
      8996 MEMB     86       POPC     H12X     HAL2     0.900000E-01   1.00800           0
      8997 MEMB     86       POPC     H12Y     HAL2     0.900000E-01   1.00800           0
      8998 MEMB     86       POPC     C313     CTL2    -0.180000       12.0110           0
      8999 MEMB     86       POPC     H13X     HAL2     0.900000E-01   1.00800           0
      9000 MEMB     86       POPC     H13Y     HAL2     0.900000E-01   1.00800           0
      9001 MEMB     86       POPC     C314     CTL2    -0.180000       12.0110           0
      9002 MEMB     86       POPC     H14X     HAL2     0.900000E-01   1.00800           0
      9003 MEMB     86       POPC     H14Y     HAL2     0.900000E-01   1.00800           0
      9004 MEMB     86       POPC     C315     CTL2    -0.180000       12.0110           0
      9005 MEMB     86       POPC     H15X     HAL2     0.900000E-01   1.00800           0
      9006 MEMB     86       POPC     H15Y     HAL2     0.900000E-01   1.00800           0
      9007 MEMB     86       POPC     C316     CTL3    -0.270000       12.0110           0
      9008 MEMB     86       POPC     H16X     HAL3     0.900000E-01   1.00800           0
      9009 MEMB     86       POPC     H16Y     HAL3     0.900000E-01   1.00800           0
      9010 MEMB     86       POPC     H16Z     HAL3     0.900000E-01   1.00800           0
      9011 MEMB     87       PSM      N        NTL     -0.600000       14.0070           0
      9012 MEMB     87       PSM      C15      CTL5    -0.350000       12.0110           0
      9013 MEMB     87       PSM      H15A     HL       0.250000       1.00800           0
      9014 MEMB     87       PSM      H15B     HL       0.250000       1.00800           0
      9015 MEMB     87       PSM      H15C     HL       0.250000       1.00800           0
      9016 MEMB     87       PSM      C14      CTL5    -0.350000       12.0110           0
      9017 MEMB     87       PSM      H14A     HL       0.250000       1.00800           0
      9018 MEMB     87       PSM      H14B     HL       0.250000       1.00800           0
      9019 MEMB     87       PSM      H14C     HL       0.250000       1.00800           0
      9020 MEMB     87       PSM      C13      CTL5    -0.350000       12.0110           0
      9021 MEMB     87       PSM      H13A     HL       0.250000       1.00800           0
      9022 MEMB     87       PSM      H13B     HL       0.250000       1.00800           0
      9023 MEMB     87       PSM      H13C     HL       0.250000       1.00800           0
      9024 MEMB     87       PSM      C12      CTL2    -0.100000       12.0110           0
      9025 MEMB     87       PSM      H12A     HL       0.250000       1.00800           0
      9026 MEMB     87       PSM      H12B     HL       0.250000       1.00800           0
      9027 MEMB     87       PSM      C11      CTL2    -0.800000E-01   12.0110           0
      9028 MEMB     87       PSM      H11A     HAL2     0.900000E-01   1.00800           0
      9029 MEMB     87       PSM      H11B     HAL2     0.900000E-01   1.00800           0
      9030 MEMB     87       PSM      P        PL       1.500000       30.9740           0
      9031 MEMB     87       PSM      O13      O2L     -0.780000       15.9994           0
      9032 MEMB     87       PSM      O14      O2L     -0.780000       15.9994           0
      9033 MEMB     87       PSM      O11      OSLP    -0.570000       15.9994           0
      9034 MEMB     87       PSM      O12      OSLP    -0.570000       15.9994           0
      9035 MEMB     87       PSM      C1S      CTL2    -0.800000E-01   12.0110           0
      9036 MEMB     87       PSM      H1S      HAL2     0.900000E-01   1.00800           0
      9037 MEMB     87       PSM      H1T      HAL2     0.900000E-01   1.00800           0
      9038 MEMB     87       PSM      NF       NHL     -0.700000       14.0070           0
      9039 MEMB     87       PSM      HNF      H        0.350000       1.00800           0
      9040 MEMB     87       PSM      C2S      CTL1     0.300000       12.0110           0
      9041 MEMB     87       PSM      H2S      HAL1     0.500000E-01   1.00800           0
      9042 MEMB     87       PSM      C3S      CTO1     0.500000       12.0110           0
      9043 MEMB     87       PSM      H3S      HAL1    -0.110000       1.00800           0
      9044 MEMB     87       PSM      O3       OHL     -0.690000       15.9994           0
      9045 MEMB     87       PSM      HO3      HOL      0.300000       1.00800           0
      9046 MEMB     87       PSM      C4S      CEL3    -0.150000       12.0110           0
      9047 MEMB     87       PSM      H4S      HEL1     0.150000       1.00800           0
      9048 MEMB     87       PSM      C5S      CEL3    -0.150000       12.0110           0
      9049 MEMB     87       PSM      H5S      HEL1     0.150000       1.00800           0
      9050 MEMB     87       PSM      C6S      CTL2    -0.180000       12.0110           0
      9051 MEMB     87       PSM      H6S      HAL2     0.900000E-01   1.00800           0
      9052 MEMB     87       PSM      H6T      HAL2     0.900000E-01   1.00800           0
      9053 MEMB     87       PSM      C7S      CTL2    -0.180000       12.0110           0
      9054 MEMB     87       PSM      H7S      HAL2     0.900000E-01   1.00800           0
      9055 MEMB     87       PSM      H7T      HAL2     0.900000E-01   1.00800           0
      9056 MEMB     87       PSM      C8S      CTL2    -0.180000       12.0110           0
      9057 MEMB     87       PSM      H8S      HAL2     0.900000E-01   1.00800           0
      9058 MEMB     87       PSM      H8T      HAL2     0.900000E-01   1.00800           0
      9059 MEMB     87       PSM      C9S      CTL2    -0.180000       12.0110           0
      9060 MEMB     87       PSM      H9S      HAL2     0.900000E-01   1.00800           0
      9061 MEMB     87       PSM      H9T      HAL2     0.900000E-01   1.00800           0
      9062 MEMB     87       PSM      C10S     CTL2    -0.180000       12.0110           0
      9063 MEMB     87       PSM      H10S     HAL2     0.900000E-01   1.00800           0
      9064 MEMB     87       PSM      H10T     HAL2     0.900000E-01   1.00800           0
      9065 MEMB     87       PSM      C11S     CTL2    -0.180000       12.0110           0
      9066 MEMB     87       PSM      H11S     HAL2     0.900000E-01   1.00800           0
      9067 MEMB     87       PSM      H11T     HAL2     0.900000E-01   1.00800           0
      9068 MEMB     87       PSM      C12S     CTL2    -0.180000       12.0110           0
      9069 MEMB     87       PSM      H12S     HAL2     0.900000E-01   1.00800           0
      9070 MEMB     87       PSM      H12T     HAL2     0.900000E-01   1.00800           0
      9071 MEMB     87       PSM      C13S     CTL2    -0.180000       12.0110           0
      9072 MEMB     87       PSM      H13S     HAL2     0.900000E-01   1.00800           0
      9073 MEMB     87       PSM      H13T     HAL2     0.900000E-01   1.00800           0
      9074 MEMB     87       PSM      C14S     CTL2    -0.180000       12.0110           0
      9075 MEMB     87       PSM      H14S     HAL2     0.900000E-01   1.00800           0
      9076 MEMB     87       PSM      H14T     HAL2     0.900000E-01   1.00800           0
      9077 MEMB     87       PSM      C15S     CTL2    -0.180000       12.0110           0
      9078 MEMB     87       PSM      H15S     HAL2     0.900000E-01   1.00800           0
      9079 MEMB     87       PSM      H15T     HAL2     0.900000E-01   1.00800           0
      9080 MEMB     87       PSM      C16S     CTL2    -0.180000       12.0110           0
      9081 MEMB     87       PSM      H16S     HAL2     0.900000E-01   1.00800           0
      9082 MEMB     87       PSM      H16T     HAL2     0.900000E-01   1.00800           0
      9083 MEMB     87       PSM      C17S     CTL2    -0.180000       12.0110           0
      9084 MEMB     87       PSM      H17S     HAL2     0.900000E-01   1.00800           0
      9085 MEMB     87       PSM      H17T     HAL2     0.900000E-01   1.00800           0
      9086 MEMB     87       PSM      C18S     CTL3    -0.270000       12.0110           0
      9087 MEMB     87       PSM      H18S     HAL3     0.900000E-01   1.00800           0
      9088 MEMB     87       PSM      H18T     HAL3     0.900000E-01   1.00800           0
      9089 MEMB     87       PSM      H18U     HAL3     0.900000E-01   1.00800           0
      9090 MEMB     87       PSM      C1F      C        0.550000       12.0110           0
      9091 MEMB     87       PSM      OF       O       -0.600000       15.9994           0
      9092 MEMB     87       PSM      C2F      CTL2    -0.700000E-01   12.0110           0
      9093 MEMB     87       PSM      H2F      HAL2     0.600000E-01   1.00800           0
      9094 MEMB     87       PSM      H2G      HAL2     0.600000E-01   1.00800           0
      9095 MEMB     87       PSM      C3F      CTL2    -0.180000       12.0110           0
      9096 MEMB     87       PSM      H3F      HAL2     0.900000E-01   1.00800           0
      9097 MEMB     87       PSM      H3G      HAL2     0.900000E-01   1.00800           0
      9098 MEMB     87       PSM      C4F      CTL2    -0.180000       12.0110           0
      9099 MEMB     87       PSM      H4F      HAL2     0.900000E-01   1.00800           0
      9100 MEMB     87       PSM      H4G      HAL2     0.900000E-01   1.00800           0
      9101 MEMB     87       PSM      C5F      CTL2    -0.180000       12.0110           0
      9102 MEMB     87       PSM      H5F      HAL2     0.900000E-01   1.00800           0
      9103 MEMB     87       PSM      H5G      HAL2     0.900000E-01   1.00800           0
      9104 MEMB     87       PSM      C6F      CTL2    -0.180000       12.0110           0
      9105 MEMB     87       PSM      H6F      HAL2     0.900000E-01   1.00800           0
      9106 MEMB     87       PSM      H6G      HAL2     0.900000E-01   1.00800           0
      9107 MEMB     87       PSM      C7F      CTL2    -0.180000       12.0110           0
      9108 MEMB     87       PSM      H7F      HAL2     0.900000E-01   1.00800           0
      9109 MEMB     87       PSM      H7G      HAL2     0.900000E-01   1.00800           0
      9110 MEMB     87       PSM      C8F      CTL2    -0.180000       12.0110           0
      9111 MEMB     87       PSM      H8F      HAL2     0.900000E-01   1.00800           0
      9112 MEMB     87       PSM      H8G      HAL2     0.900000E-01   1.00800           0
      9113 MEMB     87       PSM      C9F      CTL2    -0.180000       12.0110           0
      9114 MEMB     87       PSM      H9F      HAL2     0.900000E-01   1.00800           0
      9115 MEMB     87       PSM      H9G      HAL2     0.900000E-01   1.00800           0
      9116 MEMB     87       PSM      C10F     CTL2    -0.180000       12.0110           0
      9117 MEMB     87       PSM      H10F     HAL2     0.900000E-01   1.00800           0
      9118 MEMB     87       PSM      H10G     HAL2     0.900000E-01   1.00800           0
      9119 MEMB     87       PSM      C11F     CTL2    -0.180000       12.0110           0
      9120 MEMB     87       PSM      H11F     HAL2     0.900000E-01   1.00800           0
      9121 MEMB     87       PSM      H11G     HAL2     0.900000E-01   1.00800           0
      9122 MEMB     87       PSM      C12F     CTL2    -0.180000       12.0110           0
      9123 MEMB     87       PSM      H12F     HAL2     0.900000E-01   1.00800           0
      9124 MEMB     87       PSM      H12G     HAL2     0.900000E-01   1.00800           0
      9125 MEMB     87       PSM      C13F     CTL2    -0.180000       12.0110           0
      9126 MEMB     87       PSM      H13F     HAL2     0.900000E-01   1.00800           0
      9127 MEMB     87       PSM      H13G     HAL2     0.900000E-01   1.00800           0
      9128 MEMB     87       PSM      C14F     CTL2    -0.180000       12.0110           0
      9129 MEMB     87       PSM      H14F     HAL2     0.900000E-01   1.00800           0
      9130 MEMB     87       PSM      H14G     HAL2     0.900000E-01   1.00800           0
      9131 MEMB     87       PSM      C15F     CTL2    -0.180000       12.0110           0
      9132 MEMB     87       PSM      H15F     HAL2     0.900000E-01   1.00800           0
      9133 MEMB     87       PSM      H15G     HAL2     0.900000E-01   1.00800           0
      9134 MEMB     87       PSM      C16F     CTL3    -0.270000       12.0110           0
      9135 MEMB     87       PSM      H16F     HAL3     0.900000E-01   1.00800           0
      9136 MEMB     87       PSM      H16G     HAL3     0.900000E-01   1.00800           0
      9137 MEMB     87       PSM      H16H     HAL3     0.900000E-01   1.00800           0
      9138 MEMB     88       POPC     N        NTL     -0.600000       14.0070           0
      9139 MEMB     88       POPC     C12      CTL2    -0.100000       12.0110           0
      9140 MEMB     88       POPC     H12A     HL       0.250000       1.00800           0
      9141 MEMB     88       POPC     H12B     HL       0.250000       1.00800           0
      9142 MEMB     88       POPC     C13      CTL5    -0.350000       12.0110           0
      9143 MEMB     88       POPC     H13A     HL       0.250000       1.00800           0
      9144 MEMB     88       POPC     H13B     HL       0.250000       1.00800           0
      9145 MEMB     88       POPC     H13C     HL       0.250000       1.00800           0
      9146 MEMB     88       POPC     C14      CTL5    -0.350000       12.0110           0
      9147 MEMB     88       POPC     H14A     HL       0.250000       1.00800           0
      9148 MEMB     88       POPC     H14B     HL       0.250000       1.00800           0
      9149 MEMB     88       POPC     H14C     HL       0.250000       1.00800           0
      9150 MEMB     88       POPC     C15      CTL5    -0.350000       12.0110           0
      9151 MEMB     88       POPC     H15A     HL       0.250000       1.00800           0
      9152 MEMB     88       POPC     H15B     HL       0.250000       1.00800           0
      9153 MEMB     88       POPC     H15C     HL       0.250000       1.00800           0
      9154 MEMB     88       POPC     C11      CTL2    -0.800000E-01   12.0110           0
      9155 MEMB     88       POPC     H11A     HAL2     0.900000E-01   1.00800           0
      9156 MEMB     88       POPC     H11B     HAL2     0.900000E-01   1.00800           0
      9157 MEMB     88       POPC     P        PL       1.500000       30.9740           0
      9158 MEMB     88       POPC     O13      O2L     -0.780000       15.9994           0
      9159 MEMB     88       POPC     O14      O2L     -0.780000       15.9994           0
      9160 MEMB     88       POPC     O12      OSLP    -0.570000       15.9994           0
      9161 MEMB     88       POPC     O11      OSLP    -0.570000       15.9994           0
      9162 MEMB     88       POPC     C1       CTL2    -0.800000E-01   12.0110           0
      9163 MEMB     88       POPC     HA       HAL2     0.900000E-01   1.00800           0
      9164 MEMB     88       POPC     HB       HAL2     0.900000E-01   1.00800           0
      9165 MEMB     88       POPC     C2       CTL1     0.170000       12.0110           0
      9166 MEMB     88       POPC     HS       HAL1     0.900000E-01   1.00800           0
      9167 MEMB     88       POPC     O21      OSL     -0.490000       15.9994           0
      9168 MEMB     88       POPC     C21      CL       0.900000       12.0110           0
      9169 MEMB     88       POPC     O22      OBL     -0.630000       15.9994           0
      9170 MEMB     88       POPC     C22      CTL2    -0.220000       12.0110           0
      9171 MEMB     88       POPC     H2R      HAL2     0.900000E-01   1.00800           0
      9172 MEMB     88       POPC     H2S      HAL2     0.900000E-01   1.00800           0
      9173 MEMB     88       POPC     C3       CTL2     0.800000E-01   12.0110           0
      9174 MEMB     88       POPC     HX       HAL2     0.900000E-01   1.00800           0
      9175 MEMB     88       POPC     HY       HAL2     0.900000E-01   1.00800           0
      9176 MEMB     88       POPC     O31      OSL     -0.490000       15.9994           0
      9177 MEMB     88       POPC     C31      CL       0.900000       12.0110           0
      9178 MEMB     88       POPC     O32      OBL     -0.630000       15.9994           0
      9179 MEMB     88       POPC     C32      CTL2    -0.220000       12.0110           0
      9180 MEMB     88       POPC     H2X      HAL2     0.900000E-01   1.00800           0
      9181 MEMB     88       POPC     H2Y      HAL2     0.900000E-01   1.00800           0
      9182 MEMB     88       POPC     C23      CTL2    -0.180000       12.0110           0
      9183 MEMB     88       POPC     H3R      HAL2     0.900000E-01   1.00800           0
      9184 MEMB     88       POPC     H3S      HAL2     0.900000E-01   1.00800           0
      9185 MEMB     88       POPC     C24      CTL2    -0.180000       12.0110           0
      9186 MEMB     88       POPC     H4R      HAL2     0.900000E-01   1.00800           0
      9187 MEMB     88       POPC     H4S      HAL2     0.900000E-01   1.00800           0
      9188 MEMB     88       POPC     C25      CTL2    -0.180000       12.0110           0
      9189 MEMB     88       POPC     H5R      HAL2     0.900000E-01   1.00800           0
      9190 MEMB     88       POPC     H5S      HAL2     0.900000E-01   1.00800           0
      9191 MEMB     88       POPC     C26      CTL2    -0.180000       12.0110           0
      9192 MEMB     88       POPC     H6R      HAL2     0.900000E-01   1.00800           0
      9193 MEMB     88       POPC     H6S      HAL2     0.900000E-01   1.00800           0
      9194 MEMB     88       POPC     C27      CTL2    -0.180000       12.0110           0
      9195 MEMB     88       POPC     H7R      HAL2     0.900000E-01   1.00800           0
      9196 MEMB     88       POPC     H7S      HAL2     0.900000E-01   1.00800           0
      9197 MEMB     88       POPC     C28      CTL2    -0.180000       12.0110           0
      9198 MEMB     88       POPC     H8R      HAL2     0.900000E-01   1.00800           0
      9199 MEMB     88       POPC     H8S      HAL2     0.900000E-01   1.00800           0
      9200 MEMB     88       POPC     C29      CEL1    -0.150000       12.0110           0
      9201 MEMB     88       POPC     H91      HEL1     0.150000       1.00800           0
      9202 MEMB     88       POPC     C210     CEL1    -0.150000       12.0110           0
      9203 MEMB     88       POPC     H101     HEL1     0.150000       1.00800           0
      9204 MEMB     88       POPC     C211     CTL2    -0.180000       12.0110           0
      9205 MEMB     88       POPC     H11R     HAL2     0.900000E-01   1.00800           0
      9206 MEMB     88       POPC     H11S     HAL2     0.900000E-01   1.00800           0
      9207 MEMB     88       POPC     C212     CTL2    -0.180000       12.0110           0
      9208 MEMB     88       POPC     H12R     HAL2     0.900000E-01   1.00800           0
      9209 MEMB     88       POPC     H12S     HAL2     0.900000E-01   1.00800           0
      9210 MEMB     88       POPC     C213     CTL2    -0.180000       12.0110           0
      9211 MEMB     88       POPC     H13R     HAL2     0.900000E-01   1.00800           0
      9212 MEMB     88       POPC     H13S     HAL2     0.900000E-01   1.00800           0
      9213 MEMB     88       POPC     C214     CTL2    -0.180000       12.0110           0
      9214 MEMB     88       POPC     H14R     HAL2     0.900000E-01   1.00800           0
      9215 MEMB     88       POPC     H14S     HAL2     0.900000E-01   1.00800           0
      9216 MEMB     88       POPC     C215     CTL2    -0.180000       12.0110           0
      9217 MEMB     88       POPC     H15R     HAL2     0.900000E-01   1.00800           0
      9218 MEMB     88       POPC     H15S     HAL2     0.900000E-01   1.00800           0
      9219 MEMB     88       POPC     C216     CTL2    -0.180000       12.0110           0
      9220 MEMB     88       POPC     H16R     HAL2     0.900000E-01   1.00800           0
      9221 MEMB     88       POPC     H16S     HAL2     0.900000E-01   1.00800           0
      9222 MEMB     88       POPC     C217     CTL2    -0.180000       12.0110           0
      9223 MEMB     88       POPC     H17R     HAL2     0.900000E-01   1.00800           0
      9224 MEMB     88       POPC     H17S     HAL2     0.900000E-01   1.00800           0
      9225 MEMB     88       POPC     C218     CTL3    -0.270000       12.0110           0
      9226 MEMB     88       POPC     H18R     HAL3     0.900000E-01   1.00800           0
      9227 MEMB     88       POPC     H18S     HAL3     0.900000E-01   1.00800           0
      9228 MEMB     88       POPC     H18T     HAL3     0.900000E-01   1.00800           0
      9229 MEMB     88       POPC     C33      CTL2    -0.180000       12.0110           0
      9230 MEMB     88       POPC     H3X      HAL2     0.900000E-01   1.00800           0
      9231 MEMB     88       POPC     H3Y      HAL2     0.900000E-01   1.00800           0
      9232 MEMB     88       POPC     C34      CTL2    -0.180000       12.0110           0
      9233 MEMB     88       POPC     H4X      HAL2     0.900000E-01   1.00800           0
      9234 MEMB     88       POPC     H4Y      HAL2     0.900000E-01   1.00800           0
      9235 MEMB     88       POPC     C35      CTL2    -0.180000       12.0110           0
      9236 MEMB     88       POPC     H5X      HAL2     0.900000E-01   1.00800           0
      9237 MEMB     88       POPC     H5Y      HAL2     0.900000E-01   1.00800           0
      9238 MEMB     88       POPC     C36      CTL2    -0.180000       12.0110           0
      9239 MEMB     88       POPC     H6X      HAL2     0.900000E-01   1.00800           0
      9240 MEMB     88       POPC     H6Y      HAL2     0.900000E-01   1.00800           0
      9241 MEMB     88       POPC     C37      CTL2    -0.180000       12.0110           0
      9242 MEMB     88       POPC     H7X      HAL2     0.900000E-01   1.00800           0
      9243 MEMB     88       POPC     H7Y      HAL2     0.900000E-01   1.00800           0
      9244 MEMB     88       POPC     C38      CTL2    -0.180000       12.0110           0
      9245 MEMB     88       POPC     H8X      HAL2     0.900000E-01   1.00800           0
      9246 MEMB     88       POPC     H8Y      HAL2     0.900000E-01   1.00800           0
      9247 MEMB     88       POPC     C39      CTL2    -0.180000       12.0110           0
      9248 MEMB     88       POPC     H9X      HAL2     0.900000E-01   1.00800           0
      9249 MEMB     88       POPC     H9Y      HAL2     0.900000E-01   1.00800           0
      9250 MEMB     88       POPC     C310     CTL2    -0.180000       12.0110           0
      9251 MEMB     88       POPC     H10X     HAL2     0.900000E-01   1.00800           0
      9252 MEMB     88       POPC     H10Y     HAL2     0.900000E-01   1.00800           0
      9253 MEMB     88       POPC     C311     CTL2    -0.180000       12.0110           0
      9254 MEMB     88       POPC     H11X     HAL2     0.900000E-01   1.00800           0
      9255 MEMB     88       POPC     H11Y     HAL2     0.900000E-01   1.00800           0
      9256 MEMB     88       POPC     C312     CTL2    -0.180000       12.0110           0
      9257 MEMB     88       POPC     H12X     HAL2     0.900000E-01   1.00800           0
      9258 MEMB     88       POPC     H12Y     HAL2     0.900000E-01   1.00800           0
      9259 MEMB     88       POPC     C313     CTL2    -0.180000       12.0110           0
      9260 MEMB     88       POPC     H13X     HAL2     0.900000E-01   1.00800           0
      9261 MEMB     88       POPC     H13Y     HAL2     0.900000E-01   1.00800           0
      9262 MEMB     88       POPC     C314     CTL2    -0.180000       12.0110           0
      9263 MEMB     88       POPC     H14X     HAL2     0.900000E-01   1.00800           0
      9264 MEMB     88       POPC     H14Y     HAL2     0.900000E-01   1.00800           0
      9265 MEMB     88       POPC     C315     CTL2    -0.180000       12.0110           0
      9266 MEMB     88       POPC     H15X     HAL2     0.900000E-01   1.00800           0
      9267 MEMB     88       POPC     H15Y     HAL2     0.900000E-01   1.00800           0
      9268 MEMB     88       POPC     C316     CTL3    -0.270000       12.0110           0
      9269 MEMB     88       POPC     H16X     HAL3     0.900000E-01   1.00800           0
      9270 MEMB     88       POPC     H16Y     HAL3     0.900000E-01   1.00800           0
      9271 MEMB     88       POPC     H16Z     HAL3     0.900000E-01   1.00800           0
      9272 MEMB     89       PSM      N        NTL     -0.600000       14.0070           0
      9273 MEMB     89       PSM      C15      CTL5    -0.350000       12.0110           0
      9274 MEMB     89       PSM      H15A     HL       0.250000       1.00800           0
      9275 MEMB     89       PSM      H15B     HL       0.250000       1.00800           0
      9276 MEMB     89       PSM      H15C     HL       0.250000       1.00800           0
      9277 MEMB     89       PSM      C14      CTL5    -0.350000       12.0110           0
      9278 MEMB     89       PSM      H14A     HL       0.250000       1.00800           0
      9279 MEMB     89       PSM      H14B     HL       0.250000       1.00800           0
      9280 MEMB     89       PSM      H14C     HL       0.250000       1.00800           0
      9281 MEMB     89       PSM      C13      CTL5    -0.350000       12.0110           0
      9282 MEMB     89       PSM      H13A     HL       0.250000       1.00800           0
      9283 MEMB     89       PSM      H13B     HL       0.250000       1.00800           0
      9284 MEMB     89       PSM      H13C     HL       0.250000       1.00800           0
      9285 MEMB     89       PSM      C12      CTL2    -0.100000       12.0110           0
      9286 MEMB     89       PSM      H12A     HL       0.250000       1.00800           0
      9287 MEMB     89       PSM      H12B     HL       0.250000       1.00800           0
      9288 MEMB     89       PSM      C11      CTL2    -0.800000E-01   12.0110           0
      9289 MEMB     89       PSM      H11A     HAL2     0.900000E-01   1.00800           0
      9290 MEMB     89       PSM      H11B     HAL2     0.900000E-01   1.00800           0
      9291 MEMB     89       PSM      P        PL       1.500000       30.9740           0
      9292 MEMB     89       PSM      O13      O2L     -0.780000       15.9994           0
      9293 MEMB     89       PSM      O14      O2L     -0.780000       15.9994           0
      9294 MEMB     89       PSM      O11      OSLP    -0.570000       15.9994           0
      9295 MEMB     89       PSM      O12      OSLP    -0.570000       15.9994           0
      9296 MEMB     89       PSM      C1S      CTL2    -0.800000E-01   12.0110           0
      9297 MEMB     89       PSM      H1S      HAL2     0.900000E-01   1.00800           0
      9298 MEMB     89       PSM      H1T      HAL2     0.900000E-01   1.00800           0
      9299 MEMB     89       PSM      NF       NHL     -0.700000       14.0070           0
      9300 MEMB     89       PSM      HNF      H        0.350000       1.00800           0
      9301 MEMB     89       PSM      C2S      CTL1     0.300000       12.0110           0
      9302 MEMB     89       PSM      H2S      HAL1     0.500000E-01   1.00800           0
      9303 MEMB     89       PSM      C3S      CTO1     0.500000       12.0110           0
      9304 MEMB     89       PSM      H3S      HAL1    -0.110000       1.00800           0
      9305 MEMB     89       PSM      O3       OHL     -0.690000       15.9994           0
      9306 MEMB     89       PSM      HO3      HOL      0.300000       1.00800           0
      9307 MEMB     89       PSM      C4S      CEL3    -0.150000       12.0110           0
      9308 MEMB     89       PSM      H4S      HEL1     0.150000       1.00800           0
      9309 MEMB     89       PSM      C5S      CEL3    -0.150000       12.0110           0
      9310 MEMB     89       PSM      H5S      HEL1     0.150000       1.00800           0
      9311 MEMB     89       PSM      C6S      CTL2    -0.180000       12.0110           0
      9312 MEMB     89       PSM      H6S      HAL2     0.900000E-01   1.00800           0
      9313 MEMB     89       PSM      H6T      HAL2     0.900000E-01   1.00800           0
      9314 MEMB     89       PSM      C7S      CTL2    -0.180000       12.0110           0
      9315 MEMB     89       PSM      H7S      HAL2     0.900000E-01   1.00800           0
      9316 MEMB     89       PSM      H7T      HAL2     0.900000E-01   1.00800           0
      9317 MEMB     89       PSM      C8S      CTL2    -0.180000       12.0110           0
      9318 MEMB     89       PSM      H8S      HAL2     0.900000E-01   1.00800           0
      9319 MEMB     89       PSM      H8T      HAL2     0.900000E-01   1.00800           0
      9320 MEMB     89       PSM      C9S      CTL2    -0.180000       12.0110           0
      9321 MEMB     89       PSM      H9S      HAL2     0.900000E-01   1.00800           0
      9322 MEMB     89       PSM      H9T      HAL2     0.900000E-01   1.00800           0
      9323 MEMB     89       PSM      C10S     CTL2    -0.180000       12.0110           0
      9324 MEMB     89       PSM      H10S     HAL2     0.900000E-01   1.00800           0
      9325 MEMB     89       PSM      H10T     HAL2     0.900000E-01   1.00800           0
      9326 MEMB     89       PSM      C11S     CTL2    -0.180000       12.0110           0
      9327 MEMB     89       PSM      H11S     HAL2     0.900000E-01   1.00800           0
      9328 MEMB     89       PSM      H11T     HAL2     0.900000E-01   1.00800           0
      9329 MEMB     89       PSM      C12S     CTL2    -0.180000       12.0110           0
      9330 MEMB     89       PSM      H12S     HAL2     0.900000E-01   1.00800           0
      9331 MEMB     89       PSM      H12T     HAL2     0.900000E-01   1.00800           0
      9332 MEMB     89       PSM      C13S     CTL2    -0.180000       12.0110           0
      9333 MEMB     89       PSM      H13S     HAL2     0.900000E-01   1.00800           0
      9334 MEMB     89       PSM      H13T     HAL2     0.900000E-01   1.00800           0
      9335 MEMB     89       PSM      C14S     CTL2    -0.180000       12.0110           0
      9336 MEMB     89       PSM      H14S     HAL2     0.900000E-01   1.00800           0
      9337 MEMB     89       PSM      H14T     HAL2     0.900000E-01   1.00800           0
      9338 MEMB     89       PSM      C15S     CTL2    -0.180000       12.0110           0
      9339 MEMB     89       PSM      H15S     HAL2     0.900000E-01   1.00800           0
      9340 MEMB     89       PSM      H15T     HAL2     0.900000E-01   1.00800           0
      9341 MEMB     89       PSM      C16S     CTL2    -0.180000       12.0110           0
      9342 MEMB     89       PSM      H16S     HAL2     0.900000E-01   1.00800           0
      9343 MEMB     89       PSM      H16T     HAL2     0.900000E-01   1.00800           0
      9344 MEMB     89       PSM      C17S     CTL2    -0.180000       12.0110           0
      9345 MEMB     89       PSM      H17S     HAL2     0.900000E-01   1.00800           0
      9346 MEMB     89       PSM      H17T     HAL2     0.900000E-01   1.00800           0
      9347 MEMB     89       PSM      C18S     CTL3    -0.270000       12.0110           0
      9348 MEMB     89       PSM      H18S     HAL3     0.900000E-01   1.00800           0
      9349 MEMB     89       PSM      H18T     HAL3     0.900000E-01   1.00800           0
      9350 MEMB     89       PSM      H18U     HAL3     0.900000E-01   1.00800           0
      9351 MEMB     89       PSM      C1F      C        0.550000       12.0110           0
      9352 MEMB     89       PSM      OF       O       -0.600000       15.9994           0
      9353 MEMB     89       PSM      C2F      CTL2    -0.700000E-01   12.0110           0
      9354 MEMB     89       PSM      H2F      HAL2     0.600000E-01   1.00800           0
      9355 MEMB     89       PSM      H2G      HAL2     0.600000E-01   1.00800           0
      9356 MEMB     89       PSM      C3F      CTL2    -0.180000       12.0110           0
      9357 MEMB     89       PSM      H3F      HAL2     0.900000E-01   1.00800           0
      9358 MEMB     89       PSM      H3G      HAL2     0.900000E-01   1.00800           0
      9359 MEMB     89       PSM      C4F      CTL2    -0.180000       12.0110           0
      9360 MEMB     89       PSM      H4F      HAL2     0.900000E-01   1.00800           0
      9361 MEMB     89       PSM      H4G      HAL2     0.900000E-01   1.00800           0
      9362 MEMB     89       PSM      C5F      CTL2    -0.180000       12.0110           0
      9363 MEMB     89       PSM      H5F      HAL2     0.900000E-01   1.00800           0
      9364 MEMB     89       PSM      H5G      HAL2     0.900000E-01   1.00800           0
      9365 MEMB     89       PSM      C6F      CTL2    -0.180000       12.0110           0
      9366 MEMB     89       PSM      H6F      HAL2     0.900000E-01   1.00800           0
      9367 MEMB     89       PSM      H6G      HAL2     0.900000E-01   1.00800           0
      9368 MEMB     89       PSM      C7F      CTL2    -0.180000       12.0110           0
      9369 MEMB     89       PSM      H7F      HAL2     0.900000E-01   1.00800           0
      9370 MEMB     89       PSM      H7G      HAL2     0.900000E-01   1.00800           0
      9371 MEMB     89       PSM      C8F      CTL2    -0.180000       12.0110           0
      9372 MEMB     89       PSM      H8F      HAL2     0.900000E-01   1.00800           0
      9373 MEMB     89       PSM      H8G      HAL2     0.900000E-01   1.00800           0
      9374 MEMB     89       PSM      C9F      CTL2    -0.180000       12.0110           0
      9375 MEMB     89       PSM      H9F      HAL2     0.900000E-01   1.00800           0
      9376 MEMB     89       PSM      H9G      HAL2     0.900000E-01   1.00800           0
      9377 MEMB     89       PSM      C10F     CTL2    -0.180000       12.0110           0
      9378 MEMB     89       PSM      H10F     HAL2     0.900000E-01   1.00800           0
      9379 MEMB     89       PSM      H10G     HAL2     0.900000E-01   1.00800           0
      9380 MEMB     89       PSM      C11F     CTL2    -0.180000       12.0110           0
      9381 MEMB     89       PSM      H11F     HAL2     0.900000E-01   1.00800           0
      9382 MEMB     89       PSM      H11G     HAL2     0.900000E-01   1.00800           0
      9383 MEMB     89       PSM      C12F     CTL2    -0.180000       12.0110           0
      9384 MEMB     89       PSM      H12F     HAL2     0.900000E-01   1.00800           0
      9385 MEMB     89       PSM      H12G     HAL2     0.900000E-01   1.00800           0
      9386 MEMB     89       PSM      C13F     CTL2    -0.180000       12.0110           0
      9387 MEMB     89       PSM      H13F     HAL2     0.900000E-01   1.00800           0
      9388 MEMB     89       PSM      H13G     HAL2     0.900000E-01   1.00800           0
      9389 MEMB     89       PSM      C14F     CTL2    -0.180000       12.0110           0
      9390 MEMB     89       PSM      H14F     HAL2     0.900000E-01   1.00800           0
      9391 MEMB     89       PSM      H14G     HAL2     0.900000E-01   1.00800           0
      9392 MEMB     89       PSM      C15F     CTL2    -0.180000       12.0110           0
      9393 MEMB     89       PSM      H15F     HAL2     0.900000E-01   1.00800           0
      9394 MEMB     89       PSM      H15G     HAL2     0.900000E-01   1.00800           0
      9395 MEMB     89       PSM      C16F     CTL3    -0.270000       12.0110           0
      9396 MEMB     89       PSM      H16F     HAL3     0.900000E-01   1.00800           0
      9397 MEMB     89       PSM      H16G     HAL3     0.900000E-01   1.00800           0
      9398 MEMB     89       PSM      H16H     HAL3     0.900000E-01   1.00800           0
      9399 MEMB     90       POPE     N        NH3L    -0.300000       14.0070           0
      9400 MEMB     90       POPE     HN1      HCL      0.330000       1.00800           0
      9401 MEMB     90       POPE     HN2      HCL      0.330000       1.00800           0
      9402 MEMB     90       POPE     HN3      HCL      0.330000       1.00800           0
      9403 MEMB     90       POPE     C12      CTL2     0.130000       12.0110           0
      9404 MEMB     90       POPE     H12A     HAL2     0.900000E-01   1.00800           0
      9405 MEMB     90       POPE     H12B     HAL2     0.900000E-01   1.00800           0
      9406 MEMB     90       POPE     C11      CTL2    -0.800000E-01   12.0110           0
      9407 MEMB     90       POPE     H11A     HAL2     0.900000E-01   1.00800           0
      9408 MEMB     90       POPE     H11B     HAL2     0.900000E-01   1.00800           0
      9409 MEMB     90       POPE     P        PL       1.500000       30.9740           0
      9410 MEMB     90       POPE     O13      O2L     -0.780000       15.9994           0
      9411 MEMB     90       POPE     O14      O2L     -0.780000       15.9994           0
      9412 MEMB     90       POPE     O11      OSLP    -0.570000       15.9994           0
      9413 MEMB     90       POPE     O12      OSLP    -0.570000       15.9994           0
      9414 MEMB     90       POPE     C1       CTL2    -0.800000E-01   12.0110           0
      9415 MEMB     90       POPE     HA       HAL2     0.900000E-01   1.00800           0
      9416 MEMB     90       POPE     HB       HAL2     0.900000E-01   1.00800           0
      9417 MEMB     90       POPE     C2       CTL1     0.170000       12.0110           0
      9418 MEMB     90       POPE     HS       HAL1     0.900000E-01   1.00800           0
      9419 MEMB     90       POPE     O21      OSL     -0.490000       15.9994           0
      9420 MEMB     90       POPE     C21      CL       0.900000       12.0110           0
      9421 MEMB     90       POPE     O22      OBL     -0.630000       15.9994           0
      9422 MEMB     90       POPE     C22      CTL2    -0.220000       12.0110           0
      9423 MEMB     90       POPE     H2R      HAL2     0.900000E-01   1.00800           0
      9424 MEMB     90       POPE     H2S      HAL2     0.900000E-01   1.00800           0
      9425 MEMB     90       POPE     C3       CTL2     0.800000E-01   12.0110           0
      9426 MEMB     90       POPE     HX       HAL2     0.900000E-01   1.00800           0
      9427 MEMB     90       POPE     HY       HAL2     0.900000E-01   1.00800           0
      9428 MEMB     90       POPE     O31      OSL     -0.490000       15.9994           0
      9429 MEMB     90       POPE     C31      CL       0.900000       12.0110           0
      9430 MEMB     90       POPE     O32      OBL     -0.630000       15.9994           0
      9431 MEMB     90       POPE     C32      CTL2    -0.220000       12.0110           0
      9432 MEMB     90       POPE     H2X      HAL2     0.900000E-01   1.00800           0
      9433 MEMB     90       POPE     H2Y      HAL2     0.900000E-01   1.00800           0
      9434 MEMB     90       POPE     C23      CTL2    -0.180000       12.0110           0
      9435 MEMB     90       POPE     H3R      HAL2     0.900000E-01   1.00800           0
      9436 MEMB     90       POPE     H3S      HAL2     0.900000E-01   1.00800           0
      9437 MEMB     90       POPE     C24      CTL2    -0.180000       12.0110           0
      9438 MEMB     90       POPE     H4R      HAL2     0.900000E-01   1.00800           0
      9439 MEMB     90       POPE     H4S      HAL2     0.900000E-01   1.00800           0
      9440 MEMB     90       POPE     C25      CTL2    -0.180000       12.0110           0
      9441 MEMB     90       POPE     H5R      HAL2     0.900000E-01   1.00800           0
      9442 MEMB     90       POPE     H5S      HAL2     0.900000E-01   1.00800           0
      9443 MEMB     90       POPE     C26      CTL2    -0.180000       12.0110           0
      9444 MEMB     90       POPE     H6R      HAL2     0.900000E-01   1.00800           0
      9445 MEMB     90       POPE     H6S      HAL2     0.900000E-01   1.00800           0
      9446 MEMB     90       POPE     C27      CTL2    -0.180000       12.0110           0
      9447 MEMB     90       POPE     H7R      HAL2     0.900000E-01   1.00800           0
      9448 MEMB     90       POPE     H7S      HAL2     0.900000E-01   1.00800           0
      9449 MEMB     90       POPE     C28      CTL2    -0.180000       12.0110           0
      9450 MEMB     90       POPE     H8R      HAL2     0.900000E-01   1.00800           0
      9451 MEMB     90       POPE     H8S      HAL2     0.900000E-01   1.00800           0
      9452 MEMB     90       POPE     C29      CEL1    -0.150000       12.0110           0
      9453 MEMB     90       POPE     H91      HEL1     0.150000       1.00800           0
      9454 MEMB     90       POPE     C210     CEL1    -0.150000       12.0110           0
      9455 MEMB     90       POPE     H101     HEL1     0.150000       1.00800           0
      9456 MEMB     90       POPE     C211     CTL2    -0.180000       12.0110           0
      9457 MEMB     90       POPE     H11R     HAL2     0.900000E-01   1.00800           0
      9458 MEMB     90       POPE     H11S     HAL2     0.900000E-01   1.00800           0
      9459 MEMB     90       POPE     C212     CTL2    -0.180000       12.0110           0
      9460 MEMB     90       POPE     H12R     HAL2     0.900000E-01   1.00800           0
      9461 MEMB     90       POPE     H12S     HAL2     0.900000E-01   1.00800           0
      9462 MEMB     90       POPE     C213     CTL2    -0.180000       12.0110           0
      9463 MEMB     90       POPE     H13R     HAL2     0.900000E-01   1.00800           0
      9464 MEMB     90       POPE     H13S     HAL2     0.900000E-01   1.00800           0
      9465 MEMB     90       POPE     C214     CTL2    -0.180000       12.0110           0
      9466 MEMB     90       POPE     H14R     HAL2     0.900000E-01   1.00800           0
      9467 MEMB     90       POPE     H14S     HAL2     0.900000E-01   1.00800           0
      9468 MEMB     90       POPE     C215     CTL2    -0.180000       12.0110           0
      9469 MEMB     90       POPE     H15R     HAL2     0.900000E-01   1.00800           0
      9470 MEMB     90       POPE     H15S     HAL2     0.900000E-01   1.00800           0
      9471 MEMB     90       POPE     C216     CTL2    -0.180000       12.0110           0
      9472 MEMB     90       POPE     H16R     HAL2     0.900000E-01   1.00800           0
      9473 MEMB     90       POPE     H16S     HAL2     0.900000E-01   1.00800           0
      9474 MEMB     90       POPE     C217     CTL2    -0.180000       12.0110           0
      9475 MEMB     90       POPE     H17R     HAL2     0.900000E-01   1.00800           0
      9476 MEMB     90       POPE     H17S     HAL2     0.900000E-01   1.00800           0
      9477 MEMB     90       POPE     C218     CTL3    -0.270000       12.0110           0
      9478 MEMB     90       POPE     H18R     HAL3     0.900000E-01   1.00800           0
      9479 MEMB     90       POPE     H18S     HAL3     0.900000E-01   1.00800           0
      9480 MEMB     90       POPE     H18T     HAL3     0.900000E-01   1.00800           0
      9481 MEMB     90       POPE     C33      CTL2    -0.180000       12.0110           0
      9482 MEMB     90       POPE     H3X      HAL2     0.900000E-01   1.00800           0
      9483 MEMB     90       POPE     H3Y      HAL2     0.900000E-01   1.00800           0
      9484 MEMB     90       POPE     C34      CTL2    -0.180000       12.0110           0
      9485 MEMB     90       POPE     H4X      HAL2     0.900000E-01   1.00800           0
      9486 MEMB     90       POPE     H4Y      HAL2     0.900000E-01   1.00800           0
      9487 MEMB     90       POPE     C35      CTL2    -0.180000       12.0110           0
      9488 MEMB     90       POPE     H5X      HAL2     0.900000E-01   1.00800           0
      9489 MEMB     90       POPE     H5Y      HAL2     0.900000E-01   1.00800           0
      9490 MEMB     90       POPE     C36      CTL2    -0.180000       12.0110           0
      9491 MEMB     90       POPE     H6X      HAL2     0.900000E-01   1.00800           0
      9492 MEMB     90       POPE     H6Y      HAL2     0.900000E-01   1.00800           0
      9493 MEMB     90       POPE     C37      CTL2    -0.180000       12.0110           0
      9494 MEMB     90       POPE     H7X      HAL2     0.900000E-01   1.00800           0
      9495 MEMB     90       POPE     H7Y      HAL2     0.900000E-01   1.00800           0
      9496 MEMB     90       POPE     C38      CTL2    -0.180000       12.0110           0
      9497 MEMB     90       POPE     H8X      HAL2     0.900000E-01   1.00800           0
      9498 MEMB     90       POPE     H8Y      HAL2     0.900000E-01   1.00800           0
      9499 MEMB     90       POPE     C39      CTL2    -0.180000       12.0110           0
      9500 MEMB     90       POPE     H9X      HAL2     0.900000E-01   1.00800           0
      9501 MEMB     90       POPE     H9Y      HAL2     0.900000E-01   1.00800           0
      9502 MEMB     90       POPE     C310     CTL2    -0.180000       12.0110           0
      9503 MEMB     90       POPE     H10X     HAL2     0.900000E-01   1.00800           0
      9504 MEMB     90       POPE     H10Y     HAL2     0.900000E-01   1.00800           0
      9505 MEMB     90       POPE     C311     CTL2    -0.180000       12.0110           0
      9506 MEMB     90       POPE     H11X     HAL2     0.900000E-01   1.00800           0
      9507 MEMB     90       POPE     H11Y     HAL2     0.900000E-01   1.00800           0
      9508 MEMB     90       POPE     C312     CTL2    -0.180000       12.0110           0
      9509 MEMB     90       POPE     H12X     HAL2     0.900000E-01   1.00800           0
      9510 MEMB     90       POPE     H12Y     HAL2     0.900000E-01   1.00800           0
      9511 MEMB     90       POPE     C313     CTL2    -0.180000       12.0110           0
      9512 MEMB     90       POPE     H13X     HAL2     0.900000E-01   1.00800           0
      9513 MEMB     90       POPE     H13Y     HAL2     0.900000E-01   1.00800           0
      9514 MEMB     90       POPE     C314     CTL2    -0.180000       12.0110           0
      9515 MEMB     90       POPE     H14X     HAL2     0.900000E-01   1.00800           0
      9516 MEMB     90       POPE     H14Y     HAL2     0.900000E-01   1.00800           0
      9517 MEMB     90       POPE     C315     CTL2    -0.180000       12.0110           0
      9518 MEMB     90       POPE     H15X     HAL2     0.900000E-01   1.00800           0
      9519 MEMB     90       POPE     H15Y     HAL2     0.900000E-01   1.00800           0
      9520 MEMB     90       POPE     C316     CTL3    -0.270000       12.0110           0
      9521 MEMB     90       POPE     H16X     HAL3     0.900000E-01   1.00800           0
      9522 MEMB     90       POPE     H16Y     HAL3     0.900000E-01   1.00800           0
      9523 MEMB     90       POPE     H16Z     HAL3     0.900000E-01   1.00800           0
      9524 MEMB     91       POPS     N        NH3L    -0.300000       14.0070           0
      9525 MEMB     91       POPS     HN1      HCL      0.330000       1.00800           0
      9526 MEMB     91       POPS     HN2      HCL      0.330000       1.00800           0
      9527 MEMB     91       POPS     HN3      HCL      0.330000       1.00800           0
      9528 MEMB     91       POPS     C12      CTL1     0.210000       12.0110           0
      9529 MEMB     91       POPS     H12A     HBL      0.100000       1.00800           0
      9530 MEMB     91       POPS     C13      CCL      0.340000       12.0110           0
      9531 MEMB     91       POPS     O13A     OCL     -0.670000       15.9994           0
      9532 MEMB     91       POPS     O13B     OCL     -0.670000       15.9994           0
      9533 MEMB     91       POPS     C11      CTL2    -0.800000E-01   12.0110           0
      9534 MEMB     91       POPS     H11A     HAL2     0.900000E-01   1.00800           0
      9535 MEMB     91       POPS     H11B     HAL2     0.900000E-01   1.00800           0
      9536 MEMB     91       POPS     P        PL       1.500000       30.9740           0
      9537 MEMB     91       POPS     O13      O2L     -0.780000       15.9994           0
      9538 MEMB     91       POPS     O14      O2L     -0.780000       15.9994           0
      9539 MEMB     91       POPS     O12      OSLP    -0.570000       15.9994           0
      9540 MEMB     91       POPS     O11      OSLP    -0.570000       15.9994           0
      9541 MEMB     91       POPS     C1       CTL2    -0.800000E-01   12.0110           0
      9542 MEMB     91       POPS     HA       HAL2     0.900000E-01   1.00800           0
      9543 MEMB     91       POPS     HB       HAL2     0.900000E-01   1.00800           0
      9544 MEMB     91       POPS     C2       CTL1     0.170000       12.0110           0
      9545 MEMB     91       POPS     HS       HAL1     0.900000E-01   1.00800           0
      9546 MEMB     91       POPS     O21      OSL     -0.490000       15.9994           0
      9547 MEMB     91       POPS     C21      CL       0.900000       12.0110           0
      9548 MEMB     91       POPS     O22      OBL     -0.630000       15.9994           0
      9549 MEMB     91       POPS     C22      CTL2    -0.220000       12.0110           0
      9550 MEMB     91       POPS     H2R      HAL2     0.900000E-01   1.00800           0
      9551 MEMB     91       POPS     H2S      HAL2     0.900000E-01   1.00800           0
      9552 MEMB     91       POPS     C3       CTL2     0.800000E-01   12.0110           0
      9553 MEMB     91       POPS     HX       HAL2     0.900000E-01   1.00800           0
      9554 MEMB     91       POPS     HY       HAL2     0.900000E-01   1.00800           0
      9555 MEMB     91       POPS     O31      OSL     -0.490000       15.9994           0
      9556 MEMB     91       POPS     C31      CL       0.900000       12.0110           0
      9557 MEMB     91       POPS     O32      OBL     -0.630000       15.9994           0
      9558 MEMB     91       POPS     C32      CTL2    -0.220000       12.0110           0
      9559 MEMB     91       POPS     H2X      HAL2     0.900000E-01   1.00800           0
      9560 MEMB     91       POPS     H2Y      HAL2     0.900000E-01   1.00800           0
      9561 MEMB     91       POPS     C23      CTL2    -0.180000       12.0110           0
      9562 MEMB     91       POPS     H3R      HAL2     0.900000E-01   1.00800           0
      9563 MEMB     91       POPS     H3S      HAL2     0.900000E-01   1.00800           0
      9564 MEMB     91       POPS     C24      CTL2    -0.180000       12.0110           0
      9565 MEMB     91       POPS     H4R      HAL2     0.900000E-01   1.00800           0
      9566 MEMB     91       POPS     H4S      HAL2     0.900000E-01   1.00800           0
      9567 MEMB     91       POPS     C25      CTL2    -0.180000       12.0110           0
      9568 MEMB     91       POPS     H5R      HAL2     0.900000E-01   1.00800           0
      9569 MEMB     91       POPS     H5S      HAL2     0.900000E-01   1.00800           0
      9570 MEMB     91       POPS     C26      CTL2    -0.180000       12.0110           0
      9571 MEMB     91       POPS     H6R      HAL2     0.900000E-01   1.00800           0
      9572 MEMB     91       POPS     H6S      HAL2     0.900000E-01   1.00800           0
      9573 MEMB     91       POPS     C27      CTL2    -0.180000       12.0110           0
      9574 MEMB     91       POPS     H7R      HAL2     0.900000E-01   1.00800           0
      9575 MEMB     91       POPS     H7S      HAL2     0.900000E-01   1.00800           0
      9576 MEMB     91       POPS     C28      CTL2    -0.180000       12.0110           0
      9577 MEMB     91       POPS     H8R      HAL2     0.900000E-01   1.00800           0
      9578 MEMB     91       POPS     H8S      HAL2     0.900000E-01   1.00800           0
      9579 MEMB     91       POPS     C29      CEL1    -0.150000       12.0110           0
      9580 MEMB     91       POPS     H91      HEL1     0.150000       1.00800           0
      9581 MEMB     91       POPS     C210     CEL1    -0.150000       12.0110           0
      9582 MEMB     91       POPS     H101     HEL1     0.150000       1.00800           0
      9583 MEMB     91       POPS     C211     CTL2    -0.180000       12.0110           0
      9584 MEMB     91       POPS     H11R     HAL2     0.900000E-01   1.00800           0
      9585 MEMB     91       POPS     H11S     HAL2     0.900000E-01   1.00800           0
      9586 MEMB     91       POPS     C212     CTL2    -0.180000       12.0110           0
      9587 MEMB     91       POPS     H12R     HAL2     0.900000E-01   1.00800           0
      9588 MEMB     91       POPS     H12S     HAL2     0.900000E-01   1.00800           0
      9589 MEMB     91       POPS     C213     CTL2    -0.180000       12.0110           0
      9590 MEMB     91       POPS     H13R     HAL2     0.900000E-01   1.00800           0
      9591 MEMB     91       POPS     H13S     HAL2     0.900000E-01   1.00800           0
      9592 MEMB     91       POPS     C214     CTL2    -0.180000       12.0110           0
      9593 MEMB     91       POPS     H14R     HAL2     0.900000E-01   1.00800           0
      9594 MEMB     91       POPS     H14S     HAL2     0.900000E-01   1.00800           0
      9595 MEMB     91       POPS     C215     CTL2    -0.180000       12.0110           0
      9596 MEMB     91       POPS     H15R     HAL2     0.900000E-01   1.00800           0
      9597 MEMB     91       POPS     H15S     HAL2     0.900000E-01   1.00800           0
      9598 MEMB     91       POPS     C216     CTL2    -0.180000       12.0110           0
      9599 MEMB     91       POPS     H16R     HAL2     0.900000E-01   1.00800           0
      9600 MEMB     91       POPS     H16S     HAL2     0.900000E-01   1.00800           0
      9601 MEMB     91       POPS     C217     CTL2    -0.180000       12.0110           0
      9602 MEMB     91       POPS     H17R     HAL2     0.900000E-01   1.00800           0
      9603 MEMB     91       POPS     H17S     HAL2     0.900000E-01   1.00800           0
      9604 MEMB     91       POPS     C218     CTL3    -0.270000       12.0110           0
      9605 MEMB     91       POPS     H18R     HAL3     0.900000E-01   1.00800           0
      9606 MEMB     91       POPS     H18S     HAL3     0.900000E-01   1.00800           0
      9607 MEMB     91       POPS     H18T     HAL3     0.900000E-01   1.00800           0
      9608 MEMB     91       POPS     C33      CTL2    -0.180000       12.0110           0
      9609 MEMB     91       POPS     H3X      HAL2     0.900000E-01   1.00800           0
      9610 MEMB     91       POPS     H3Y      HAL2     0.900000E-01   1.00800           0
      9611 MEMB     91       POPS     C34      CTL2    -0.180000       12.0110           0
      9612 MEMB     91       POPS     H4X      HAL2     0.900000E-01   1.00800           0
      9613 MEMB     91       POPS     H4Y      HAL2     0.900000E-01   1.00800           0
      9614 MEMB     91       POPS     C35      CTL2    -0.180000       12.0110           0
      9615 MEMB     91       POPS     H5X      HAL2     0.900000E-01   1.00800           0
      9616 MEMB     91       POPS     H5Y      HAL2     0.900000E-01   1.00800           0
      9617 MEMB     91       POPS     C36      CTL2    -0.180000       12.0110           0
      9618 MEMB     91       POPS     H6X      HAL2     0.900000E-01   1.00800           0
      9619 MEMB     91       POPS     H6Y      HAL2     0.900000E-01   1.00800           0
      9620 MEMB     91       POPS     C37      CTL2    -0.180000       12.0110           0
      9621 MEMB     91       POPS     H7X      HAL2     0.900000E-01   1.00800           0
      9622 MEMB     91       POPS     H7Y      HAL2     0.900000E-01   1.00800           0
      9623 MEMB     91       POPS     C38      CTL2    -0.180000       12.0110           0
      9624 MEMB     91       POPS     H8X      HAL2     0.900000E-01   1.00800           0
      9625 MEMB     91       POPS     H8Y      HAL2     0.900000E-01   1.00800           0
      9626 MEMB     91       POPS     C39      CTL2    -0.180000       12.0110           0
      9627 MEMB     91       POPS     H9X      HAL2     0.900000E-01   1.00800           0
      9628 MEMB     91       POPS     H9Y      HAL2     0.900000E-01   1.00800           0
      9629 MEMB     91       POPS     C310     CTL2    -0.180000       12.0110           0
      9630 MEMB     91       POPS     H10X     HAL2     0.900000E-01   1.00800           0
      9631 MEMB     91       POPS     H10Y     HAL2     0.900000E-01   1.00800           0
      9632 MEMB     91       POPS     C311     CTL2    -0.180000       12.0110           0
      9633 MEMB     91       POPS     H11X     HAL2     0.900000E-01   1.00800           0
      9634 MEMB     91       POPS     H11Y     HAL2     0.900000E-01   1.00800           0
      9635 MEMB     91       POPS     C312     CTL2    -0.180000       12.0110           0
      9636 MEMB     91       POPS     H12X     HAL2     0.900000E-01   1.00800           0
      9637 MEMB     91       POPS     H12Y     HAL2     0.900000E-01   1.00800           0
      9638 MEMB     91       POPS     C313     CTL2    -0.180000       12.0110           0
      9639 MEMB     91       POPS     H13X     HAL2     0.900000E-01   1.00800           0
      9640 MEMB     91       POPS     H13Y     HAL2     0.900000E-01   1.00800           0
      9641 MEMB     91       POPS     C314     CTL2    -0.180000       12.0110           0
      9642 MEMB     91       POPS     H14X     HAL2     0.900000E-01   1.00800           0
      9643 MEMB     91       POPS     H14Y     HAL2     0.900000E-01   1.00800           0
      9644 MEMB     91       POPS     C315     CTL2    -0.180000       12.0110           0
      9645 MEMB     91       POPS     H15X     HAL2     0.900000E-01   1.00800           0
      9646 MEMB     91       POPS     H15Y     HAL2     0.900000E-01   1.00800           0
      9647 MEMB     91       POPS     C316     CTL3    -0.270000       12.0110           0
      9648 MEMB     91       POPS     H16X     HAL3     0.900000E-01   1.00800           0
      9649 MEMB     91       POPS     H16Y     HAL3     0.900000E-01   1.00800           0
      9650 MEMB     91       POPS     H16Z     HAL3     0.900000E-01   1.00800           0
      9651 MEMB     92       POPC     N        NTL     -0.600000       14.0070           0
      9652 MEMB     92       POPC     C12      CTL2    -0.100000       12.0110           0
      9653 MEMB     92       POPC     H12A     HL       0.250000       1.00800           0
      9654 MEMB     92       POPC     H12B     HL       0.250000       1.00800           0
      9655 MEMB     92       POPC     C13      CTL5    -0.350000       12.0110           0
      9656 MEMB     92       POPC     H13A     HL       0.250000       1.00800           0
      9657 MEMB     92       POPC     H13B     HL       0.250000       1.00800           0
      9658 MEMB     92       POPC     H13C     HL       0.250000       1.00800           0
      9659 MEMB     92       POPC     C14      CTL5    -0.350000       12.0110           0
      9660 MEMB     92       POPC     H14A     HL       0.250000       1.00800           0
      9661 MEMB     92       POPC     H14B     HL       0.250000       1.00800           0
      9662 MEMB     92       POPC     H14C     HL       0.250000       1.00800           0
      9663 MEMB     92       POPC     C15      CTL5    -0.350000       12.0110           0
      9664 MEMB     92       POPC     H15A     HL       0.250000       1.00800           0
      9665 MEMB     92       POPC     H15B     HL       0.250000       1.00800           0
      9666 MEMB     92       POPC     H15C     HL       0.250000       1.00800           0
      9667 MEMB     92       POPC     C11      CTL2    -0.800000E-01   12.0110           0
      9668 MEMB     92       POPC     H11A     HAL2     0.900000E-01   1.00800           0
      9669 MEMB     92       POPC     H11B     HAL2     0.900000E-01   1.00800           0
      9670 MEMB     92       POPC     P        PL       1.500000       30.9740           0
      9671 MEMB     92       POPC     O13      O2L     -0.780000       15.9994           0
      9672 MEMB     92       POPC     O14      O2L     -0.780000       15.9994           0
      9673 MEMB     92       POPC     O12      OSLP    -0.570000       15.9994           0
      9674 MEMB     92       POPC     O11      OSLP    -0.570000       15.9994           0
      9675 MEMB     92       POPC     C1       CTL2    -0.800000E-01   12.0110           0
      9676 MEMB     92       POPC     HA       HAL2     0.900000E-01   1.00800           0
      9677 MEMB     92       POPC     HB       HAL2     0.900000E-01   1.00800           0
      9678 MEMB     92       POPC     C2       CTL1     0.170000       12.0110           0
      9679 MEMB     92       POPC     HS       HAL1     0.900000E-01   1.00800           0
      9680 MEMB     92       POPC     O21      OSL     -0.490000       15.9994           0
      9681 MEMB     92       POPC     C21      CL       0.900000       12.0110           0
      9682 MEMB     92       POPC     O22      OBL     -0.630000       15.9994           0
      9683 MEMB     92       POPC     C22      CTL2    -0.220000       12.0110           0
      9684 MEMB     92       POPC     H2R      HAL2     0.900000E-01   1.00800           0
      9685 MEMB     92       POPC     H2S      HAL2     0.900000E-01   1.00800           0
      9686 MEMB     92       POPC     C3       CTL2     0.800000E-01   12.0110           0
      9687 MEMB     92       POPC     HX       HAL2     0.900000E-01   1.00800           0
      9688 MEMB     92       POPC     HY       HAL2     0.900000E-01   1.00800           0
      9689 MEMB     92       POPC     O31      OSL     -0.490000       15.9994           0
      9690 MEMB     92       POPC     C31      CL       0.900000       12.0110           0
      9691 MEMB     92       POPC     O32      OBL     -0.630000       15.9994           0
      9692 MEMB     92       POPC     C32      CTL2    -0.220000       12.0110           0
      9693 MEMB     92       POPC     H2X      HAL2     0.900000E-01   1.00800           0
      9694 MEMB     92       POPC     H2Y      HAL2     0.900000E-01   1.00800           0
      9695 MEMB     92       POPC     C23      CTL2    -0.180000       12.0110           0
      9696 MEMB     92       POPC     H3R      HAL2     0.900000E-01   1.00800           0
      9697 MEMB     92       POPC     H3S      HAL2     0.900000E-01   1.00800           0
      9698 MEMB     92       POPC     C24      CTL2    -0.180000       12.0110           0
      9699 MEMB     92       POPC     H4R      HAL2     0.900000E-01   1.00800           0
      9700 MEMB     92       POPC     H4S      HAL2     0.900000E-01   1.00800           0
      9701 MEMB     92       POPC     C25      CTL2    -0.180000       12.0110           0
      9702 MEMB     92       POPC     H5R      HAL2     0.900000E-01   1.00800           0
      9703 MEMB     92       POPC     H5S      HAL2     0.900000E-01   1.00800           0
      9704 MEMB     92       POPC     C26      CTL2    -0.180000       12.0110           0
      9705 MEMB     92       POPC     H6R      HAL2     0.900000E-01   1.00800           0
      9706 MEMB     92       POPC     H6S      HAL2     0.900000E-01   1.00800           0
      9707 MEMB     92       POPC     C27      CTL2    -0.180000       12.0110           0
      9708 MEMB     92       POPC     H7R      HAL2     0.900000E-01   1.00800           0
      9709 MEMB     92       POPC     H7S      HAL2     0.900000E-01   1.00800           0
      9710 MEMB     92       POPC     C28      CTL2    -0.180000       12.0110           0
      9711 MEMB     92       POPC     H8R      HAL2     0.900000E-01   1.00800           0
      9712 MEMB     92       POPC     H8S      HAL2     0.900000E-01   1.00800           0
      9713 MEMB     92       POPC     C29      CEL1    -0.150000       12.0110           0
      9714 MEMB     92       POPC     H91      HEL1     0.150000       1.00800           0
      9715 MEMB     92       POPC     C210     CEL1    -0.150000       12.0110           0
      9716 MEMB     92       POPC     H101     HEL1     0.150000       1.00800           0
      9717 MEMB     92       POPC     C211     CTL2    -0.180000       12.0110           0
      9718 MEMB     92       POPC     H11R     HAL2     0.900000E-01   1.00800           0
      9719 MEMB     92       POPC     H11S     HAL2     0.900000E-01   1.00800           0
      9720 MEMB     92       POPC     C212     CTL2    -0.180000       12.0110           0
      9721 MEMB     92       POPC     H12R     HAL2     0.900000E-01   1.00800           0
      9722 MEMB     92       POPC     H12S     HAL2     0.900000E-01   1.00800           0
      9723 MEMB     92       POPC     C213     CTL2    -0.180000       12.0110           0
      9724 MEMB     92       POPC     H13R     HAL2     0.900000E-01   1.00800           0
      9725 MEMB     92       POPC     H13S     HAL2     0.900000E-01   1.00800           0
      9726 MEMB     92       POPC     C214     CTL2    -0.180000       12.0110           0
      9727 MEMB     92       POPC     H14R     HAL2     0.900000E-01   1.00800           0
      9728 MEMB     92       POPC     H14S     HAL2     0.900000E-01   1.00800           0
      9729 MEMB     92       POPC     C215     CTL2    -0.180000       12.0110           0
      9730 MEMB     92       POPC     H15R     HAL2     0.900000E-01   1.00800           0
      9731 MEMB     92       POPC     H15S     HAL2     0.900000E-01   1.00800           0
      9732 MEMB     92       POPC     C216     CTL2    -0.180000       12.0110           0
      9733 MEMB     92       POPC     H16R     HAL2     0.900000E-01   1.00800           0
      9734 MEMB     92       POPC     H16S     HAL2     0.900000E-01   1.00800           0
      9735 MEMB     92       POPC     C217     CTL2    -0.180000       12.0110           0
      9736 MEMB     92       POPC     H17R     HAL2     0.900000E-01   1.00800           0
      9737 MEMB     92       POPC     H17S     HAL2     0.900000E-01   1.00800           0
      9738 MEMB     92       POPC     C218     CTL3    -0.270000       12.0110           0
      9739 MEMB     92       POPC     H18R     HAL3     0.900000E-01   1.00800           0
      9740 MEMB     92       POPC     H18S     HAL3     0.900000E-01   1.00800           0
      9741 MEMB     92       POPC     H18T     HAL3     0.900000E-01   1.00800           0
      9742 MEMB     92       POPC     C33      CTL2    -0.180000       12.0110           0
      9743 MEMB     92       POPC     H3X      HAL2     0.900000E-01   1.00800           0
      9744 MEMB     92       POPC     H3Y      HAL2     0.900000E-01   1.00800           0
      9745 MEMB     92       POPC     C34      CTL2    -0.180000       12.0110           0
      9746 MEMB     92       POPC     H4X      HAL2     0.900000E-01   1.00800           0
      9747 MEMB     92       POPC     H4Y      HAL2     0.900000E-01   1.00800           0
      9748 MEMB     92       POPC     C35      CTL2    -0.180000       12.0110           0
      9749 MEMB     92       POPC     H5X      HAL2     0.900000E-01   1.00800           0
      9750 MEMB     92       POPC     H5Y      HAL2     0.900000E-01   1.00800           0
      9751 MEMB     92       POPC     C36      CTL2    -0.180000       12.0110           0
      9752 MEMB     92       POPC     H6X      HAL2     0.900000E-01   1.00800           0
      9753 MEMB     92       POPC     H6Y      HAL2     0.900000E-01   1.00800           0
      9754 MEMB     92       POPC     C37      CTL2    -0.180000       12.0110           0
      9755 MEMB     92       POPC     H7X      HAL2     0.900000E-01   1.00800           0
      9756 MEMB     92       POPC     H7Y      HAL2     0.900000E-01   1.00800           0
      9757 MEMB     92       POPC     C38      CTL2    -0.180000       12.0110           0
      9758 MEMB     92       POPC     H8X      HAL2     0.900000E-01   1.00800           0
      9759 MEMB     92       POPC     H8Y      HAL2     0.900000E-01   1.00800           0
      9760 MEMB     92       POPC     C39      CTL2    -0.180000       12.0110           0
      9761 MEMB     92       POPC     H9X      HAL2     0.900000E-01   1.00800           0
      9762 MEMB     92       POPC     H9Y      HAL2     0.900000E-01   1.00800           0
      9763 MEMB     92       POPC     C310     CTL2    -0.180000       12.0110           0
      9764 MEMB     92       POPC     H10X     HAL2     0.900000E-01   1.00800           0
      9765 MEMB     92       POPC     H10Y     HAL2     0.900000E-01   1.00800           0
      9766 MEMB     92       POPC     C311     CTL2    -0.180000       12.0110           0
      9767 MEMB     92       POPC     H11X     HAL2     0.900000E-01   1.00800           0
      9768 MEMB     92       POPC     H11Y     HAL2     0.900000E-01   1.00800           0
      9769 MEMB     92       POPC     C312     CTL2    -0.180000       12.0110           0
      9770 MEMB     92       POPC     H12X     HAL2     0.900000E-01   1.00800           0
      9771 MEMB     92       POPC     H12Y     HAL2     0.900000E-01   1.00800           0
      9772 MEMB     92       POPC     C313     CTL2    -0.180000       12.0110           0
      9773 MEMB     92       POPC     H13X     HAL2     0.900000E-01   1.00800           0
      9774 MEMB     92       POPC     H13Y     HAL2     0.900000E-01   1.00800           0
      9775 MEMB     92       POPC     C314     CTL2    -0.180000       12.0110           0
      9776 MEMB     92       POPC     H14X     HAL2     0.900000E-01   1.00800           0
      9777 MEMB     92       POPC     H14Y     HAL2     0.900000E-01   1.00800           0
      9778 MEMB     92       POPC     C315     CTL2    -0.180000       12.0110           0
      9779 MEMB     92       POPC     H15X     HAL2     0.900000E-01   1.00800           0
      9780 MEMB     92       POPC     H15Y     HAL2     0.900000E-01   1.00800           0
      9781 MEMB     92       POPC     C316     CTL3    -0.270000       12.0110           0
      9782 MEMB     92       POPC     H16X     HAL3     0.900000E-01   1.00800           0
      9783 MEMB     92       POPC     H16Y     HAL3     0.900000E-01   1.00800           0
      9784 MEMB     92       POPC     H16Z     HAL3     0.900000E-01   1.00800           0
      9785 MEMB     93       POPE     N        NH3L    -0.300000       14.0070           0
      9786 MEMB     93       POPE     HN1      HCL      0.330000       1.00800           0
      9787 MEMB     93       POPE     HN2      HCL      0.330000       1.00800           0
      9788 MEMB     93       POPE     HN3      HCL      0.330000       1.00800           0
      9789 MEMB     93       POPE     C12      CTL2     0.130000       12.0110           0
      9790 MEMB     93       POPE     H12A     HAL2     0.900000E-01   1.00800           0
      9791 MEMB     93       POPE     H12B     HAL2     0.900000E-01   1.00800           0
      9792 MEMB     93       POPE     C11      CTL2    -0.800000E-01   12.0110           0
      9793 MEMB     93       POPE     H11A     HAL2     0.900000E-01   1.00800           0
      9794 MEMB     93       POPE     H11B     HAL2     0.900000E-01   1.00800           0
      9795 MEMB     93       POPE     P        PL       1.500000       30.9740           0
      9796 MEMB     93       POPE     O13      O2L     -0.780000       15.9994           0
      9797 MEMB     93       POPE     O14      O2L     -0.780000       15.9994           0
      9798 MEMB     93       POPE     O11      OSLP    -0.570000       15.9994           0
      9799 MEMB     93       POPE     O12      OSLP    -0.570000       15.9994           0
      9800 MEMB     93       POPE     C1       CTL2    -0.800000E-01   12.0110           0
      9801 MEMB     93       POPE     HA       HAL2     0.900000E-01   1.00800           0
      9802 MEMB     93       POPE     HB       HAL2     0.900000E-01   1.00800           0
      9803 MEMB     93       POPE     C2       CTL1     0.170000       12.0110           0
      9804 MEMB     93       POPE     HS       HAL1     0.900000E-01   1.00800           0
      9805 MEMB     93       POPE     O21      OSL     -0.490000       15.9994           0
      9806 MEMB     93       POPE     C21      CL       0.900000       12.0110           0
      9807 MEMB     93       POPE     O22      OBL     -0.630000       15.9994           0
      9808 MEMB     93       POPE     C22      CTL2    -0.220000       12.0110           0
      9809 MEMB     93       POPE     H2R      HAL2     0.900000E-01   1.00800           0
      9810 MEMB     93       POPE     H2S      HAL2     0.900000E-01   1.00800           0
      9811 MEMB     93       POPE     C3       CTL2     0.800000E-01   12.0110           0
      9812 MEMB     93       POPE     HX       HAL2     0.900000E-01   1.00800           0
      9813 MEMB     93       POPE     HY       HAL2     0.900000E-01   1.00800           0
      9814 MEMB     93       POPE     O31      OSL     -0.490000       15.9994           0
      9815 MEMB     93       POPE     C31      CL       0.900000       12.0110           0
      9816 MEMB     93       POPE     O32      OBL     -0.630000       15.9994           0
      9817 MEMB     93       POPE     C32      CTL2    -0.220000       12.0110           0
      9818 MEMB     93       POPE     H2X      HAL2     0.900000E-01   1.00800           0
      9819 MEMB     93       POPE     H2Y      HAL2     0.900000E-01   1.00800           0
      9820 MEMB     93       POPE     C23      CTL2    -0.180000       12.0110           0
      9821 MEMB     93       POPE     H3R      HAL2     0.900000E-01   1.00800           0
      9822 MEMB     93       POPE     H3S      HAL2     0.900000E-01   1.00800           0
      9823 MEMB     93       POPE     C24      CTL2    -0.180000       12.0110           0
      9824 MEMB     93       POPE     H4R      HAL2     0.900000E-01   1.00800           0
      9825 MEMB     93       POPE     H4S      HAL2     0.900000E-01   1.00800           0
      9826 MEMB     93       POPE     C25      CTL2    -0.180000       12.0110           0
      9827 MEMB     93       POPE     H5R      HAL2     0.900000E-01   1.00800           0
      9828 MEMB     93       POPE     H5S      HAL2     0.900000E-01   1.00800           0
      9829 MEMB     93       POPE     C26      CTL2    -0.180000       12.0110           0
      9830 MEMB     93       POPE     H6R      HAL2     0.900000E-01   1.00800           0
      9831 MEMB     93       POPE     H6S      HAL2     0.900000E-01   1.00800           0
      9832 MEMB     93       POPE     C27      CTL2    -0.180000       12.0110           0
      9833 MEMB     93       POPE     H7R      HAL2     0.900000E-01   1.00800           0
      9834 MEMB     93       POPE     H7S      HAL2     0.900000E-01   1.00800           0
      9835 MEMB     93       POPE     C28      CTL2    -0.180000       12.0110           0
      9836 MEMB     93       POPE     H8R      HAL2     0.900000E-01   1.00800           0
      9837 MEMB     93       POPE     H8S      HAL2     0.900000E-01   1.00800           0
      9838 MEMB     93       POPE     C29      CEL1    -0.150000       12.0110           0
      9839 MEMB     93       POPE     H91      HEL1     0.150000       1.00800           0
      9840 MEMB     93       POPE     C210     CEL1    -0.150000       12.0110           0
      9841 MEMB     93       POPE     H101     HEL1     0.150000       1.00800           0
      9842 MEMB     93       POPE     C211     CTL2    -0.180000       12.0110           0
      9843 MEMB     93       POPE     H11R     HAL2     0.900000E-01   1.00800           0
      9844 MEMB     93       POPE     H11S     HAL2     0.900000E-01   1.00800           0
      9845 MEMB     93       POPE     C212     CTL2    -0.180000       12.0110           0
      9846 MEMB     93       POPE     H12R     HAL2     0.900000E-01   1.00800           0
      9847 MEMB     93       POPE     H12S     HAL2     0.900000E-01   1.00800           0
      9848 MEMB     93       POPE     C213     CTL2    -0.180000       12.0110           0
      9849 MEMB     93       POPE     H13R     HAL2     0.900000E-01   1.00800           0
      9850 MEMB     93       POPE     H13S     HAL2     0.900000E-01   1.00800           0
      9851 MEMB     93       POPE     C214     CTL2    -0.180000       12.0110           0
      9852 MEMB     93       POPE     H14R     HAL2     0.900000E-01   1.00800           0
      9853 MEMB     93       POPE     H14S     HAL2     0.900000E-01   1.00800           0
      9854 MEMB     93       POPE     C215     CTL2    -0.180000       12.0110           0
      9855 MEMB     93       POPE     H15R     HAL2     0.900000E-01   1.00800           0
      9856 MEMB     93       POPE     H15S     HAL2     0.900000E-01   1.00800           0
      9857 MEMB     93       POPE     C216     CTL2    -0.180000       12.0110           0
      9858 MEMB     93       POPE     H16R     HAL2     0.900000E-01   1.00800           0
      9859 MEMB     93       POPE     H16S     HAL2     0.900000E-01   1.00800           0
      9860 MEMB     93       POPE     C217     CTL2    -0.180000       12.0110           0
      9861 MEMB     93       POPE     H17R     HAL2     0.900000E-01   1.00800           0
      9862 MEMB     93       POPE     H17S     HAL2     0.900000E-01   1.00800           0
      9863 MEMB     93       POPE     C218     CTL3    -0.270000       12.0110           0
      9864 MEMB     93       POPE     H18R     HAL3     0.900000E-01   1.00800           0
      9865 MEMB     93       POPE     H18S     HAL3     0.900000E-01   1.00800           0
      9866 MEMB     93       POPE     H18T     HAL3     0.900000E-01   1.00800           0
      9867 MEMB     93       POPE     C33      CTL2    -0.180000       12.0110           0
      9868 MEMB     93       POPE     H3X      HAL2     0.900000E-01   1.00800           0
      9869 MEMB     93       POPE     H3Y      HAL2     0.900000E-01   1.00800           0
      9870 MEMB     93       POPE     C34      CTL2    -0.180000       12.0110           0
      9871 MEMB     93       POPE     H4X      HAL2     0.900000E-01   1.00800           0
      9872 MEMB     93       POPE     H4Y      HAL2     0.900000E-01   1.00800           0
      9873 MEMB     93       POPE     C35      CTL2    -0.180000       12.0110           0
      9874 MEMB     93       POPE     H5X      HAL2     0.900000E-01   1.00800           0
      9875 MEMB     93       POPE     H5Y      HAL2     0.900000E-01   1.00800           0
      9876 MEMB     93       POPE     C36      CTL2    -0.180000       12.0110           0
      9877 MEMB     93       POPE     H6X      HAL2     0.900000E-01   1.00800           0
      9878 MEMB     93       POPE     H6Y      HAL2     0.900000E-01   1.00800           0
      9879 MEMB     93       POPE     C37      CTL2    -0.180000       12.0110           0
      9880 MEMB     93       POPE     H7X      HAL2     0.900000E-01   1.00800           0
      9881 MEMB     93       POPE     H7Y      HAL2     0.900000E-01   1.00800           0
      9882 MEMB     93       POPE     C38      CTL2    -0.180000       12.0110           0
      9883 MEMB     93       POPE     H8X      HAL2     0.900000E-01   1.00800           0
      9884 MEMB     93       POPE     H8Y      HAL2     0.900000E-01   1.00800           0
      9885 MEMB     93       POPE     C39      CTL2    -0.180000       12.0110           0
      9886 MEMB     93       POPE     H9X      HAL2     0.900000E-01   1.00800           0
      9887 MEMB     93       POPE     H9Y      HAL2     0.900000E-01   1.00800           0
      9888 MEMB     93       POPE     C310     CTL2    -0.180000       12.0110           0
      9889 MEMB     93       POPE     H10X     HAL2     0.900000E-01   1.00800           0
      9890 MEMB     93       POPE     H10Y     HAL2     0.900000E-01   1.00800           0
      9891 MEMB     93       POPE     C311     CTL2    -0.180000       12.0110           0
      9892 MEMB     93       POPE     H11X     HAL2     0.900000E-01   1.00800           0
      9893 MEMB     93       POPE     H11Y     HAL2     0.900000E-01   1.00800           0
      9894 MEMB     93       POPE     C312     CTL2    -0.180000       12.0110           0
      9895 MEMB     93       POPE     H12X     HAL2     0.900000E-01   1.00800           0
      9896 MEMB     93       POPE     H12Y     HAL2     0.900000E-01   1.00800           0
      9897 MEMB     93       POPE     C313     CTL2    -0.180000       12.0110           0
      9898 MEMB     93       POPE     H13X     HAL2     0.900000E-01   1.00800           0
      9899 MEMB     93       POPE     H13Y     HAL2     0.900000E-01   1.00800           0
      9900 MEMB     93       POPE     C314     CTL2    -0.180000       12.0110           0
      9901 MEMB     93       POPE     H14X     HAL2     0.900000E-01   1.00800           0
      9902 MEMB     93       POPE     H14Y     HAL2     0.900000E-01   1.00800           0
      9903 MEMB     93       POPE     C315     CTL2    -0.180000       12.0110           0
      9904 MEMB     93       POPE     H15X     HAL2     0.900000E-01   1.00800           0
      9905 MEMB     93       POPE     H15Y     HAL2     0.900000E-01   1.00800           0
      9906 MEMB     93       POPE     C316     CTL3    -0.270000       12.0110           0
      9907 MEMB     93       POPE     H16X     HAL3     0.900000E-01   1.00800           0
      9908 MEMB     93       POPE     H16Y     HAL3     0.900000E-01   1.00800           0
      9909 MEMB     93       POPE     H16Z     HAL3     0.900000E-01   1.00800           0
      9910 MEMB     94       POPC     N        NTL     -0.600000       14.0070           0
      9911 MEMB     94       POPC     C12      CTL2    -0.100000       12.0110           0
      9912 MEMB     94       POPC     H12A     HL       0.250000       1.00800           0
      9913 MEMB     94       POPC     H12B     HL       0.250000       1.00800           0
      9914 MEMB     94       POPC     C13      CTL5    -0.350000       12.0110           0
      9915 MEMB     94       POPC     H13A     HL       0.250000       1.00800           0
      9916 MEMB     94       POPC     H13B     HL       0.250000       1.00800           0
      9917 MEMB     94       POPC     H13C     HL       0.250000       1.00800           0
      9918 MEMB     94       POPC     C14      CTL5    -0.350000       12.0110           0
      9919 MEMB     94       POPC     H14A     HL       0.250000       1.00800           0
      9920 MEMB     94       POPC     H14B     HL       0.250000       1.00800           0
      9921 MEMB     94       POPC     H14C     HL       0.250000       1.00800           0
      9922 MEMB     94       POPC     C15      CTL5    -0.350000       12.0110           0
      9923 MEMB     94       POPC     H15A     HL       0.250000       1.00800           0
      9924 MEMB     94       POPC     H15B     HL       0.250000       1.00800           0
      9925 MEMB     94       POPC     H15C     HL       0.250000       1.00800           0
      9926 MEMB     94       POPC     C11      CTL2    -0.800000E-01   12.0110           0
      9927 MEMB     94       POPC     H11A     HAL2     0.900000E-01   1.00800           0
      9928 MEMB     94       POPC     H11B     HAL2     0.900000E-01   1.00800           0
      9929 MEMB     94       POPC     P        PL       1.500000       30.9740           0
      9930 MEMB     94       POPC     O13      O2L     -0.780000       15.9994           0
      9931 MEMB     94       POPC     O14      O2L     -0.780000       15.9994           0
      9932 MEMB     94       POPC     O12      OSLP    -0.570000       15.9994           0
      9933 MEMB     94       POPC     O11      OSLP    -0.570000       15.9994           0
      9934 MEMB     94       POPC     C1       CTL2    -0.800000E-01   12.0110           0
      9935 MEMB     94       POPC     HA       HAL2     0.900000E-01   1.00800           0
      9936 MEMB     94       POPC     HB       HAL2     0.900000E-01   1.00800           0
      9937 MEMB     94       POPC     C2       CTL1     0.170000       12.0110           0
      9938 MEMB     94       POPC     HS       HAL1     0.900000E-01   1.00800           0
      9939 MEMB     94       POPC     O21      OSL     -0.490000       15.9994           0
      9940 MEMB     94       POPC     C21      CL       0.900000       12.0110           0
      9941 MEMB     94       POPC     O22      OBL     -0.630000       15.9994           0
      9942 MEMB     94       POPC     C22      CTL2    -0.220000       12.0110           0
      9943 MEMB     94       POPC     H2R      HAL2     0.900000E-01   1.00800           0
      9944 MEMB     94       POPC     H2S      HAL2     0.900000E-01   1.00800           0
      9945 MEMB     94       POPC     C3       CTL2     0.800000E-01   12.0110           0
      9946 MEMB     94       POPC     HX       HAL2     0.900000E-01   1.00800           0
      9947 MEMB     94       POPC     HY       HAL2     0.900000E-01   1.00800           0
      9948 MEMB     94       POPC     O31      OSL     -0.490000       15.9994           0
      9949 MEMB     94       POPC     C31      CL       0.900000       12.0110           0
      9950 MEMB     94       POPC     O32      OBL     -0.630000       15.9994           0
      9951 MEMB     94       POPC     C32      CTL2    -0.220000       12.0110           0
      9952 MEMB     94       POPC     H2X      HAL2     0.900000E-01   1.00800           0
      9953 MEMB     94       POPC     H2Y      HAL2     0.900000E-01   1.00800           0
      9954 MEMB     94       POPC     C23      CTL2    -0.180000       12.0110           0
      9955 MEMB     94       POPC     H3R      HAL2     0.900000E-01   1.00800           0
      9956 MEMB     94       POPC     H3S      HAL2     0.900000E-01   1.00800           0
      9957 MEMB     94       POPC     C24      CTL2    -0.180000       12.0110           0
      9958 MEMB     94       POPC     H4R      HAL2     0.900000E-01   1.00800           0
      9959 MEMB     94       POPC     H4S      HAL2     0.900000E-01   1.00800           0
      9960 MEMB     94       POPC     C25      CTL2    -0.180000       12.0110           0
      9961 MEMB     94       POPC     H5R      HAL2     0.900000E-01   1.00800           0
      9962 MEMB     94       POPC     H5S      HAL2     0.900000E-01   1.00800           0
      9963 MEMB     94       POPC     C26      CTL2    -0.180000       12.0110           0
      9964 MEMB     94       POPC     H6R      HAL2     0.900000E-01   1.00800           0
      9965 MEMB     94       POPC     H6S      HAL2     0.900000E-01   1.00800           0
      9966 MEMB     94       POPC     C27      CTL2    -0.180000       12.0110           0
      9967 MEMB     94       POPC     H7R      HAL2     0.900000E-01   1.00800           0
      9968 MEMB     94       POPC     H7S      HAL2     0.900000E-01   1.00800           0
      9969 MEMB     94       POPC     C28      CTL2    -0.180000       12.0110           0
      9970 MEMB     94       POPC     H8R      HAL2     0.900000E-01   1.00800           0
      9971 MEMB     94       POPC     H8S      HAL2     0.900000E-01   1.00800           0
      9972 MEMB     94       POPC     C29      CEL1    -0.150000       12.0110           0
      9973 MEMB     94       POPC     H91      HEL1     0.150000       1.00800           0
      9974 MEMB     94       POPC     C210     CEL1    -0.150000       12.0110           0
      9975 MEMB     94       POPC     H101     HEL1     0.150000       1.00800           0
      9976 MEMB     94       POPC     C211     CTL2    -0.180000       12.0110           0
      9977 MEMB     94       POPC     H11R     HAL2     0.900000E-01   1.00800           0
      9978 MEMB     94       POPC     H11S     HAL2     0.900000E-01   1.00800           0
      9979 MEMB     94       POPC     C212     CTL2    -0.180000       12.0110           0
      9980 MEMB     94       POPC     H12R     HAL2     0.900000E-01   1.00800           0
      9981 MEMB     94       POPC     H12S     HAL2     0.900000E-01   1.00800           0
      9982 MEMB     94       POPC     C213     CTL2    -0.180000       12.0110           0
      9983 MEMB     94       POPC     H13R     HAL2     0.900000E-01   1.00800           0
      9984 MEMB     94       POPC     H13S     HAL2     0.900000E-01   1.00800           0
      9985 MEMB     94       POPC     C214     CTL2    -0.180000       12.0110           0
      9986 MEMB     94       POPC     H14R     HAL2     0.900000E-01   1.00800           0
      9987 MEMB     94       POPC     H14S     HAL2     0.900000E-01   1.00800           0
      9988 MEMB     94       POPC     C215     CTL2    -0.180000       12.0110           0
      9989 MEMB     94       POPC     H15R     HAL2     0.900000E-01   1.00800           0
      9990 MEMB     94       POPC     H15S     HAL2     0.900000E-01   1.00800           0
      9991 MEMB     94       POPC     C216     CTL2    -0.180000       12.0110           0
      9992 MEMB     94       POPC     H16R     HAL2     0.900000E-01   1.00800           0
      9993 MEMB     94       POPC     H16S     HAL2     0.900000E-01   1.00800           0
      9994 MEMB     94       POPC     C217     CTL2    -0.180000       12.0110           0
      9995 MEMB     94       POPC     H17R     HAL2     0.900000E-01   1.00800           0
      9996 MEMB     94       POPC     H17S     HAL2     0.900000E-01   1.00800           0
      9997 MEMB     94       POPC     C218     CTL3    -0.270000       12.0110           0
      9998 MEMB     94       POPC     H18R     HAL3     0.900000E-01   1.00800           0
      9999 MEMB     94       POPC     H18S     HAL3     0.900000E-01   1.00800           0
     10000 MEMB     94       POPC     H18T     HAL3     0.900000E-01   1.00800           0
     10001 MEMB     94       POPC     C33      CTL2    -0.180000       12.0110           0
     10002 MEMB     94       POPC     H3X      HAL2     0.900000E-01   1.00800           0
     10003 MEMB     94       POPC     H3Y      HAL2     0.900000E-01   1.00800           0
     10004 MEMB     94       POPC     C34      CTL2    -0.180000       12.0110           0
     10005 MEMB     94       POPC     H4X      HAL2     0.900000E-01   1.00800           0
     10006 MEMB     94       POPC     H4Y      HAL2     0.900000E-01   1.00800           0
     10007 MEMB     94       POPC     C35      CTL2    -0.180000       12.0110           0
     10008 MEMB     94       POPC     H5X      HAL2     0.900000E-01   1.00800           0
     10009 MEMB     94       POPC     H5Y      HAL2     0.900000E-01   1.00800           0
     10010 MEMB     94       POPC     C36      CTL2    -0.180000       12.0110           0
     10011 MEMB     94       POPC     H6X      HAL2     0.900000E-01   1.00800           0
     10012 MEMB     94       POPC     H6Y      HAL2     0.900000E-01   1.00800           0
     10013 MEMB     94       POPC     C37      CTL2    -0.180000       12.0110           0
     10014 MEMB     94       POPC     H7X      HAL2     0.900000E-01   1.00800           0
     10015 MEMB     94       POPC     H7Y      HAL2     0.900000E-01   1.00800           0
     10016 MEMB     94       POPC     C38      CTL2    -0.180000       12.0110           0
     10017 MEMB     94       POPC     H8X      HAL2     0.900000E-01   1.00800           0
     10018 MEMB     94       POPC     H8Y      HAL2     0.900000E-01   1.00800           0
     10019 MEMB     94       POPC     C39      CTL2    -0.180000       12.0110           0
     10020 MEMB     94       POPC     H9X      HAL2     0.900000E-01   1.00800           0
     10021 MEMB     94       POPC     H9Y      HAL2     0.900000E-01   1.00800           0
     10022 MEMB     94       POPC     C310     CTL2    -0.180000       12.0110           0
     10023 MEMB     94       POPC     H10X     HAL2     0.900000E-01   1.00800           0
     10024 MEMB     94       POPC     H10Y     HAL2     0.900000E-01   1.00800           0
     10025 MEMB     94       POPC     C311     CTL2    -0.180000       12.0110           0
     10026 MEMB     94       POPC     H11X     HAL2     0.900000E-01   1.00800           0
     10027 MEMB     94       POPC     H11Y     HAL2     0.900000E-01   1.00800           0
     10028 MEMB     94       POPC     C312     CTL2    -0.180000       12.0110           0
     10029 MEMB     94       POPC     H12X     HAL2     0.900000E-01   1.00800           0
     10030 MEMB     94       POPC     H12Y     HAL2     0.900000E-01   1.00800           0
     10031 MEMB     94       POPC     C313     CTL2    -0.180000       12.0110           0
     10032 MEMB     94       POPC     H13X     HAL2     0.900000E-01   1.00800           0
     10033 MEMB     94       POPC     H13Y     HAL2     0.900000E-01   1.00800           0
     10034 MEMB     94       POPC     C314     CTL2    -0.180000       12.0110           0
     10035 MEMB     94       POPC     H14X     HAL2     0.900000E-01   1.00800           0
     10036 MEMB     94       POPC     H14Y     HAL2     0.900000E-01   1.00800           0
     10037 MEMB     94       POPC     C315     CTL2    -0.180000       12.0110           0
     10038 MEMB     94       POPC     H15X     HAL2     0.900000E-01   1.00800           0
     10039 MEMB     94       POPC     H15Y     HAL2     0.900000E-01   1.00800           0
     10040 MEMB     94       POPC     C316     CTL3    -0.270000       12.0110           0
     10041 MEMB     94       POPC     H16X     HAL3     0.900000E-01   1.00800           0
     10042 MEMB     94       POPC     H16Y     HAL3     0.900000E-01   1.00800           0
     10043 MEMB     94       POPC     H16Z     HAL3     0.900000E-01   1.00800           0
     10044 MEMB     95       PSM      N        NTL     -0.600000       14.0070           0
     10045 MEMB     95       PSM      C15      CTL5    -0.350000       12.0110           0
     10046 MEMB     95       PSM      H15A     HL       0.250000       1.00800           0
     10047 MEMB     95       PSM      H15B     HL       0.250000       1.00800           0
     10048 MEMB     95       PSM      H15C     HL       0.250000       1.00800           0
     10049 MEMB     95       PSM      C14      CTL5    -0.350000       12.0110           0
     10050 MEMB     95       PSM      H14A     HL       0.250000       1.00800           0
     10051 MEMB     95       PSM      H14B     HL       0.250000       1.00800           0
     10052 MEMB     95       PSM      H14C     HL       0.250000       1.00800           0
     10053 MEMB     95       PSM      C13      CTL5    -0.350000       12.0110           0
     10054 MEMB     95       PSM      H13A     HL       0.250000       1.00800           0
     10055 MEMB     95       PSM      H13B     HL       0.250000       1.00800           0
     10056 MEMB     95       PSM      H13C     HL       0.250000       1.00800           0
     10057 MEMB     95       PSM      C12      CTL2    -0.100000       12.0110           0
     10058 MEMB     95       PSM      H12A     HL       0.250000       1.00800           0
     10059 MEMB     95       PSM      H12B     HL       0.250000       1.00800           0
     10060 MEMB     95       PSM      C11      CTL2    -0.800000E-01   12.0110           0
     10061 MEMB     95       PSM      H11A     HAL2     0.900000E-01   1.00800           0
     10062 MEMB     95       PSM      H11B     HAL2     0.900000E-01   1.00800           0
     10063 MEMB     95       PSM      P        PL       1.500000       30.9740           0
     10064 MEMB     95       PSM      O13      O2L     -0.780000       15.9994           0
     10065 MEMB     95       PSM      O14      O2L     -0.780000       15.9994           0
     10066 MEMB     95       PSM      O11      OSLP    -0.570000       15.9994           0
     10067 MEMB     95       PSM      O12      OSLP    -0.570000       15.9994           0
     10068 MEMB     95       PSM      C1S      CTL2    -0.800000E-01   12.0110           0
     10069 MEMB     95       PSM      H1S      HAL2     0.900000E-01   1.00800           0
     10070 MEMB     95       PSM      H1T      HAL2     0.900000E-01   1.00800           0
     10071 MEMB     95       PSM      NF       NHL     -0.700000       14.0070           0
     10072 MEMB     95       PSM      HNF      H        0.350000       1.00800           0
     10073 MEMB     95       PSM      C2S      CTL1     0.300000       12.0110           0
     10074 MEMB     95       PSM      H2S      HAL1     0.500000E-01   1.00800           0
     10075 MEMB     95       PSM      C3S      CTO1     0.500000       12.0110           0
     10076 MEMB     95       PSM      H3S      HAL1    -0.110000       1.00800           0
     10077 MEMB     95       PSM      O3       OHL     -0.690000       15.9994           0
     10078 MEMB     95       PSM      HO3      HOL      0.300000       1.00800           0
     10079 MEMB     95       PSM      C4S      CEL3    -0.150000       12.0110           0
     10080 MEMB     95       PSM      H4S      HEL1     0.150000       1.00800           0
     10081 MEMB     95       PSM      C5S      CEL3    -0.150000       12.0110           0
     10082 MEMB     95       PSM      H5S      HEL1     0.150000       1.00800           0
     10083 MEMB     95       PSM      C6S      CTL2    -0.180000       12.0110           0
     10084 MEMB     95       PSM      H6S      HAL2     0.900000E-01   1.00800           0
     10085 MEMB     95       PSM      H6T      HAL2     0.900000E-01   1.00800           0
     10086 MEMB     95       PSM      C7S      CTL2    -0.180000       12.0110           0
     10087 MEMB     95       PSM      H7S      HAL2     0.900000E-01   1.00800           0
     10088 MEMB     95       PSM      H7T      HAL2     0.900000E-01   1.00800           0
     10089 MEMB     95       PSM      C8S      CTL2    -0.180000       12.0110           0
     10090 MEMB     95       PSM      H8S      HAL2     0.900000E-01   1.00800           0
     10091 MEMB     95       PSM      H8T      HAL2     0.900000E-01   1.00800           0
     10092 MEMB     95       PSM      C9S      CTL2    -0.180000       12.0110           0
     10093 MEMB     95       PSM      H9S      HAL2     0.900000E-01   1.00800           0
     10094 MEMB     95       PSM      H9T      HAL2     0.900000E-01   1.00800           0
     10095 MEMB     95       PSM      C10S     CTL2    -0.180000       12.0110           0
     10096 MEMB     95       PSM      H10S     HAL2     0.900000E-01   1.00800           0
     10097 MEMB     95       PSM      H10T     HAL2     0.900000E-01   1.00800           0
     10098 MEMB     95       PSM      C11S     CTL2    -0.180000       12.0110           0
     10099 MEMB     95       PSM      H11S     HAL2     0.900000E-01   1.00800           0
     10100 MEMB     95       PSM      H11T     HAL2     0.900000E-01   1.00800           0
     10101 MEMB     95       PSM      C12S     CTL2    -0.180000       12.0110           0
     10102 MEMB     95       PSM      H12S     HAL2     0.900000E-01   1.00800           0
     10103 MEMB     95       PSM      H12T     HAL2     0.900000E-01   1.00800           0
     10104 MEMB     95       PSM      C13S     CTL2    -0.180000       12.0110           0
     10105 MEMB     95       PSM      H13S     HAL2     0.900000E-01   1.00800           0
     10106 MEMB     95       PSM      H13T     HAL2     0.900000E-01   1.00800           0
     10107 MEMB     95       PSM      C14S     CTL2    -0.180000       12.0110           0
     10108 MEMB     95       PSM      H14S     HAL2     0.900000E-01   1.00800           0
     10109 MEMB     95       PSM      H14T     HAL2     0.900000E-01   1.00800           0
     10110 MEMB     95       PSM      C15S     CTL2    -0.180000       12.0110           0
     10111 MEMB     95       PSM      H15S     HAL2     0.900000E-01   1.00800           0
     10112 MEMB     95       PSM      H15T     HAL2     0.900000E-01   1.00800           0
     10113 MEMB     95       PSM      C16S     CTL2    -0.180000       12.0110           0
     10114 MEMB     95       PSM      H16S     HAL2     0.900000E-01   1.00800           0
     10115 MEMB     95       PSM      H16T     HAL2     0.900000E-01   1.00800           0
     10116 MEMB     95       PSM      C17S     CTL2    -0.180000       12.0110           0
     10117 MEMB     95       PSM      H17S     HAL2     0.900000E-01   1.00800           0
     10118 MEMB     95       PSM      H17T     HAL2     0.900000E-01   1.00800           0
     10119 MEMB     95       PSM      C18S     CTL3    -0.270000       12.0110           0
     10120 MEMB     95       PSM      H18S     HAL3     0.900000E-01   1.00800           0
     10121 MEMB     95       PSM      H18T     HAL3     0.900000E-01   1.00800           0
     10122 MEMB     95       PSM      H18U     HAL3     0.900000E-01   1.00800           0
     10123 MEMB     95       PSM      C1F      C        0.550000       12.0110           0
     10124 MEMB     95       PSM      OF       O       -0.600000       15.9994           0
     10125 MEMB     95       PSM      C2F      CTL2    -0.700000E-01   12.0110           0
     10126 MEMB     95       PSM      H2F      HAL2     0.600000E-01   1.00800           0
     10127 MEMB     95       PSM      H2G      HAL2     0.600000E-01   1.00800           0
     10128 MEMB     95       PSM      C3F      CTL2    -0.180000       12.0110           0
     10129 MEMB     95       PSM      H3F      HAL2     0.900000E-01   1.00800           0
     10130 MEMB     95       PSM      H3G      HAL2     0.900000E-01   1.00800           0
     10131 MEMB     95       PSM      C4F      CTL2    -0.180000       12.0110           0
     10132 MEMB     95       PSM      H4F      HAL2     0.900000E-01   1.00800           0
     10133 MEMB     95       PSM      H4G      HAL2     0.900000E-01   1.00800           0
     10134 MEMB     95       PSM      C5F      CTL2    -0.180000       12.0110           0
     10135 MEMB     95       PSM      H5F      HAL2     0.900000E-01   1.00800           0
     10136 MEMB     95       PSM      H5G      HAL2     0.900000E-01   1.00800           0
     10137 MEMB     95       PSM      C6F      CTL2    -0.180000       12.0110           0
     10138 MEMB     95       PSM      H6F      HAL2     0.900000E-01   1.00800           0
     10139 MEMB     95       PSM      H6G      HAL2     0.900000E-01   1.00800           0
     10140 MEMB     95       PSM      C7F      CTL2    -0.180000       12.0110           0
     10141 MEMB     95       PSM      H7F      HAL2     0.900000E-01   1.00800           0
     10142 MEMB     95       PSM      H7G      HAL2     0.900000E-01   1.00800           0
     10143 MEMB     95       PSM      C8F      CTL2    -0.180000       12.0110           0
     10144 MEMB     95       PSM      H8F      HAL2     0.900000E-01   1.00800           0
     10145 MEMB     95       PSM      H8G      HAL2     0.900000E-01   1.00800           0
     10146 MEMB     95       PSM      C9F      CTL2    -0.180000       12.0110           0
     10147 MEMB     95       PSM      H9F      HAL2     0.900000E-01   1.00800           0
     10148 MEMB     95       PSM      H9G      HAL2     0.900000E-01   1.00800           0
     10149 MEMB     95       PSM      C10F     CTL2    -0.180000       12.0110           0
     10150 MEMB     95       PSM      H10F     HAL2     0.900000E-01   1.00800           0
     10151 MEMB     95       PSM      H10G     HAL2     0.900000E-01   1.00800           0
     10152 MEMB     95       PSM      C11F     CTL2    -0.180000       12.0110           0
     10153 MEMB     95       PSM      H11F     HAL2     0.900000E-01   1.00800           0
     10154 MEMB     95       PSM      H11G     HAL2     0.900000E-01   1.00800           0
     10155 MEMB     95       PSM      C12F     CTL2    -0.180000       12.0110           0
     10156 MEMB     95       PSM      H12F     HAL2     0.900000E-01   1.00800           0
     10157 MEMB     95       PSM      H12G     HAL2     0.900000E-01   1.00800           0
     10158 MEMB     95       PSM      C13F     CTL2    -0.180000       12.0110           0
     10159 MEMB     95       PSM      H13F     HAL2     0.900000E-01   1.00800           0
     10160 MEMB     95       PSM      H13G     HAL2     0.900000E-01   1.00800           0
     10161 MEMB     95       PSM      C14F     CTL2    -0.180000       12.0110           0
     10162 MEMB     95       PSM      H14F     HAL2     0.900000E-01   1.00800           0
     10163 MEMB     95       PSM      H14G     HAL2     0.900000E-01   1.00800           0
     10164 MEMB     95       PSM      C15F     CTL2    -0.180000       12.0110           0
     10165 MEMB     95       PSM      H15F     HAL2     0.900000E-01   1.00800           0
     10166 MEMB     95       PSM      H15G     HAL2     0.900000E-01   1.00800           0
     10167 MEMB     95       PSM      C16F     CTL3    -0.270000       12.0110           0
     10168 MEMB     95       PSM      H16F     HAL3     0.900000E-01   1.00800           0
     10169 MEMB     95       PSM      H16G     HAL3     0.900000E-01   1.00800           0
     10170 MEMB     95       PSM      H16H     HAL3     0.900000E-01   1.00800           0
     10171 MEMB     96       POPC     N        NTL     -0.600000       14.0070           0
     10172 MEMB     96       POPC     C12      CTL2    -0.100000       12.0110           0
     10173 MEMB     96       POPC     H12A     HL       0.250000       1.00800           0
     10174 MEMB     96       POPC     H12B     HL       0.250000       1.00800           0
     10175 MEMB     96       POPC     C13      CTL5    -0.350000       12.0110           0
     10176 MEMB     96       POPC     H13A     HL       0.250000       1.00800           0
     10177 MEMB     96       POPC     H13B     HL       0.250000       1.00800           0
     10178 MEMB     96       POPC     H13C     HL       0.250000       1.00800           0
     10179 MEMB     96       POPC     C14      CTL5    -0.350000       12.0110           0
     10180 MEMB     96       POPC     H14A     HL       0.250000       1.00800           0
     10181 MEMB     96       POPC     H14B     HL       0.250000       1.00800           0
     10182 MEMB     96       POPC     H14C     HL       0.250000       1.00800           0
     10183 MEMB     96       POPC     C15      CTL5    -0.350000       12.0110           0
     10184 MEMB     96       POPC     H15A     HL       0.250000       1.00800           0
     10185 MEMB     96       POPC     H15B     HL       0.250000       1.00800           0
     10186 MEMB     96       POPC     H15C     HL       0.250000       1.00800           0
     10187 MEMB     96       POPC     C11      CTL2    -0.800000E-01   12.0110           0
     10188 MEMB     96       POPC     H11A     HAL2     0.900000E-01   1.00800           0
     10189 MEMB     96       POPC     H11B     HAL2     0.900000E-01   1.00800           0
     10190 MEMB     96       POPC     P        PL       1.500000       30.9740           0
     10191 MEMB     96       POPC     O13      O2L     -0.780000       15.9994           0
     10192 MEMB     96       POPC     O14      O2L     -0.780000       15.9994           0
     10193 MEMB     96       POPC     O12      OSLP    -0.570000       15.9994           0
     10194 MEMB     96       POPC     O11      OSLP    -0.570000       15.9994           0
     10195 MEMB     96       POPC     C1       CTL2    -0.800000E-01   12.0110           0
     10196 MEMB     96       POPC     HA       HAL2     0.900000E-01   1.00800           0
     10197 MEMB     96       POPC     HB       HAL2     0.900000E-01   1.00800           0
     10198 MEMB     96       POPC     C2       CTL1     0.170000       12.0110           0
     10199 MEMB     96       POPC     HS       HAL1     0.900000E-01   1.00800           0
     10200 MEMB     96       POPC     O21      OSL     -0.490000       15.9994           0
     10201 MEMB     96       POPC     C21      CL       0.900000       12.0110           0
     10202 MEMB     96       POPC     O22      OBL     -0.630000       15.9994           0
     10203 MEMB     96       POPC     C22      CTL2    -0.220000       12.0110           0
     10204 MEMB     96       POPC     H2R      HAL2     0.900000E-01   1.00800           0
     10205 MEMB     96       POPC     H2S      HAL2     0.900000E-01   1.00800           0
     10206 MEMB     96       POPC     C3       CTL2     0.800000E-01   12.0110           0
     10207 MEMB     96       POPC     HX       HAL2     0.900000E-01   1.00800           0
     10208 MEMB     96       POPC     HY       HAL2     0.900000E-01   1.00800           0
     10209 MEMB     96       POPC     O31      OSL     -0.490000       15.9994           0
     10210 MEMB     96       POPC     C31      CL       0.900000       12.0110           0
     10211 MEMB     96       POPC     O32      OBL     -0.630000       15.9994           0
     10212 MEMB     96       POPC     C32      CTL2    -0.220000       12.0110           0
     10213 MEMB     96       POPC     H2X      HAL2     0.900000E-01   1.00800           0
     10214 MEMB     96       POPC     H2Y      HAL2     0.900000E-01   1.00800           0
     10215 MEMB     96       POPC     C23      CTL2    -0.180000       12.0110           0
     10216 MEMB     96       POPC     H3R      HAL2     0.900000E-01   1.00800           0
     10217 MEMB     96       POPC     H3S      HAL2     0.900000E-01   1.00800           0
     10218 MEMB     96       POPC     C24      CTL2    -0.180000       12.0110           0
     10219 MEMB     96       POPC     H4R      HAL2     0.900000E-01   1.00800           0
     10220 MEMB     96       POPC     H4S      HAL2     0.900000E-01   1.00800           0
     10221 MEMB     96       POPC     C25      CTL2    -0.180000       12.0110           0
     10222 MEMB     96       POPC     H5R      HAL2     0.900000E-01   1.00800           0
     10223 MEMB     96       POPC     H5S      HAL2     0.900000E-01   1.00800           0
     10224 MEMB     96       POPC     C26      CTL2    -0.180000       12.0110           0
     10225 MEMB     96       POPC     H6R      HAL2     0.900000E-01   1.00800           0
     10226 MEMB     96       POPC     H6S      HAL2     0.900000E-01   1.00800           0
     10227 MEMB     96       POPC     C27      CTL2    -0.180000       12.0110           0
     10228 MEMB     96       POPC     H7R      HAL2     0.900000E-01   1.00800           0
     10229 MEMB     96       POPC     H7S      HAL2     0.900000E-01   1.00800           0
     10230 MEMB     96       POPC     C28      CTL2    -0.180000       12.0110           0
     10231 MEMB     96       POPC     H8R      HAL2     0.900000E-01   1.00800           0
     10232 MEMB     96       POPC     H8S      HAL2     0.900000E-01   1.00800           0
     10233 MEMB     96       POPC     C29      CEL1    -0.150000       12.0110           0
     10234 MEMB     96       POPC     H91      HEL1     0.150000       1.00800           0
     10235 MEMB     96       POPC     C210     CEL1    -0.150000       12.0110           0
     10236 MEMB     96       POPC     H101     HEL1     0.150000       1.00800           0
     10237 MEMB     96       POPC     C211     CTL2    -0.180000       12.0110           0
     10238 MEMB     96       POPC     H11R     HAL2     0.900000E-01   1.00800           0
     10239 MEMB     96       POPC     H11S     HAL2     0.900000E-01   1.00800           0
     10240 MEMB     96       POPC     C212     CTL2    -0.180000       12.0110           0
     10241 MEMB     96       POPC     H12R     HAL2     0.900000E-01   1.00800           0
     10242 MEMB     96       POPC     H12S     HAL2     0.900000E-01   1.00800           0
     10243 MEMB     96       POPC     C213     CTL2    -0.180000       12.0110           0
     10244 MEMB     96       POPC     H13R     HAL2     0.900000E-01   1.00800           0
     10245 MEMB     96       POPC     H13S     HAL2     0.900000E-01   1.00800           0
     10246 MEMB     96       POPC     C214     CTL2    -0.180000       12.0110           0
     10247 MEMB     96       POPC     H14R     HAL2     0.900000E-01   1.00800           0
     10248 MEMB     96       POPC     H14S     HAL2     0.900000E-01   1.00800           0
     10249 MEMB     96       POPC     C215     CTL2    -0.180000       12.0110           0
     10250 MEMB     96       POPC     H15R     HAL2     0.900000E-01   1.00800           0
     10251 MEMB     96       POPC     H15S     HAL2     0.900000E-01   1.00800           0
     10252 MEMB     96       POPC     C216     CTL2    -0.180000       12.0110           0
     10253 MEMB     96       POPC     H16R     HAL2     0.900000E-01   1.00800           0
     10254 MEMB     96       POPC     H16S     HAL2     0.900000E-01   1.00800           0
     10255 MEMB     96       POPC     C217     CTL2    -0.180000       12.0110           0
     10256 MEMB     96       POPC     H17R     HAL2     0.900000E-01   1.00800           0
     10257 MEMB     96       POPC     H17S     HAL2     0.900000E-01   1.00800           0
     10258 MEMB     96       POPC     C218     CTL3    -0.270000       12.0110           0
     10259 MEMB     96       POPC     H18R     HAL3     0.900000E-01   1.00800           0
     10260 MEMB     96       POPC     H18S     HAL3     0.900000E-01   1.00800           0
     10261 MEMB     96       POPC     H18T     HAL3     0.900000E-01   1.00800           0
     10262 MEMB     96       POPC     C33      CTL2    -0.180000       12.0110           0
     10263 MEMB     96       POPC     H3X      HAL2     0.900000E-01   1.00800           0
     10264 MEMB     96       POPC     H3Y      HAL2     0.900000E-01   1.00800           0
     10265 MEMB     96       POPC     C34      CTL2    -0.180000       12.0110           0
     10266 MEMB     96       POPC     H4X      HAL2     0.900000E-01   1.00800           0
     10267 MEMB     96       POPC     H4Y      HAL2     0.900000E-01   1.00800           0
     10268 MEMB     96       POPC     C35      CTL2    -0.180000       12.0110           0
     10269 MEMB     96       POPC     H5X      HAL2     0.900000E-01   1.00800           0
     10270 MEMB     96       POPC     H5Y      HAL2     0.900000E-01   1.00800           0
     10271 MEMB     96       POPC     C36      CTL2    -0.180000       12.0110           0
     10272 MEMB     96       POPC     H6X      HAL2     0.900000E-01   1.00800           0
     10273 MEMB     96       POPC     H6Y      HAL2     0.900000E-01   1.00800           0
     10274 MEMB     96       POPC     C37      CTL2    -0.180000       12.0110           0
     10275 MEMB     96       POPC     H7X      HAL2     0.900000E-01   1.00800           0
     10276 MEMB     96       POPC     H7Y      HAL2     0.900000E-01   1.00800           0
     10277 MEMB     96       POPC     C38      CTL2    -0.180000       12.0110           0
     10278 MEMB     96       POPC     H8X      HAL2     0.900000E-01   1.00800           0
     10279 MEMB     96       POPC     H8Y      HAL2     0.900000E-01   1.00800           0
     10280 MEMB     96       POPC     C39      CTL2    -0.180000       12.0110           0
     10281 MEMB     96       POPC     H9X      HAL2     0.900000E-01   1.00800           0
     10282 MEMB     96       POPC     H9Y      HAL2     0.900000E-01   1.00800           0
     10283 MEMB     96       POPC     C310     CTL2    -0.180000       12.0110           0
     10284 MEMB     96       POPC     H10X     HAL2     0.900000E-01   1.00800           0
     10285 MEMB     96       POPC     H10Y     HAL2     0.900000E-01   1.00800           0
     10286 MEMB     96       POPC     C311     CTL2    -0.180000       12.0110           0
     10287 MEMB     96       POPC     H11X     HAL2     0.900000E-01   1.00800           0
     10288 MEMB     96       POPC     H11Y     HAL2     0.900000E-01   1.00800           0
     10289 MEMB     96       POPC     C312     CTL2    -0.180000       12.0110           0
     10290 MEMB     96       POPC     H12X     HAL2     0.900000E-01   1.00800           0
     10291 MEMB     96       POPC     H12Y     HAL2     0.900000E-01   1.00800           0
     10292 MEMB     96       POPC     C313     CTL2    -0.180000       12.0110           0
     10293 MEMB     96       POPC     H13X     HAL2     0.900000E-01   1.00800           0
     10294 MEMB     96       POPC     H13Y     HAL2     0.900000E-01   1.00800           0
     10295 MEMB     96       POPC     C314     CTL2    -0.180000       12.0110           0
     10296 MEMB     96       POPC     H14X     HAL2     0.900000E-01   1.00800           0
     10297 MEMB     96       POPC     H14Y     HAL2     0.900000E-01   1.00800           0
     10298 MEMB     96       POPC     C315     CTL2    -0.180000       12.0110           0
     10299 MEMB     96       POPC     H15X     HAL2     0.900000E-01   1.00800           0
     10300 MEMB     96       POPC     H15Y     HAL2     0.900000E-01   1.00800           0
     10301 MEMB     96       POPC     C316     CTL3    -0.270000       12.0110           0
     10302 MEMB     96       POPC     H16X     HAL3     0.900000E-01   1.00800           0
     10303 MEMB     96       POPC     H16Y     HAL3     0.900000E-01   1.00800           0
     10304 MEMB     96       POPC     H16Z     HAL3     0.900000E-01   1.00800           0
     10305 MEMB     97       POPE     N        NH3L    -0.300000       14.0070           0
     10306 MEMB     97       POPE     HN1      HCL      0.330000       1.00800           0
     10307 MEMB     97       POPE     HN2      HCL      0.330000       1.00800           0
     10308 MEMB     97       POPE     HN3      HCL      0.330000       1.00800           0
     10309 MEMB     97       POPE     C12      CTL2     0.130000       12.0110           0
     10310 MEMB     97       POPE     H12A     HAL2     0.900000E-01   1.00800           0
     10311 MEMB     97       POPE     H12B     HAL2     0.900000E-01   1.00800           0
     10312 MEMB     97       POPE     C11      CTL2    -0.800000E-01   12.0110           0
     10313 MEMB     97       POPE     H11A     HAL2     0.900000E-01   1.00800           0
     10314 MEMB     97       POPE     H11B     HAL2     0.900000E-01   1.00800           0
     10315 MEMB     97       POPE     P        PL       1.500000       30.9740           0
     10316 MEMB     97       POPE     O13      O2L     -0.780000       15.9994           0
     10317 MEMB     97       POPE     O14      O2L     -0.780000       15.9994           0
     10318 MEMB     97       POPE     O11      OSLP    -0.570000       15.9994           0
     10319 MEMB     97       POPE     O12      OSLP    -0.570000       15.9994           0
     10320 MEMB     97       POPE     C1       CTL2    -0.800000E-01   12.0110           0
     10321 MEMB     97       POPE     HA       HAL2     0.900000E-01   1.00800           0
     10322 MEMB     97       POPE     HB       HAL2     0.900000E-01   1.00800           0
     10323 MEMB     97       POPE     C2       CTL1     0.170000       12.0110           0
     10324 MEMB     97       POPE     HS       HAL1     0.900000E-01   1.00800           0
     10325 MEMB     97       POPE     O21      OSL     -0.490000       15.9994           0
     10326 MEMB     97       POPE     C21      CL       0.900000       12.0110           0
     10327 MEMB     97       POPE     O22      OBL     -0.630000       15.9994           0
     10328 MEMB     97       POPE     C22      CTL2    -0.220000       12.0110           0
     10329 MEMB     97       POPE     H2R      HAL2     0.900000E-01   1.00800           0
     10330 MEMB     97       POPE     H2S      HAL2     0.900000E-01   1.00800           0
     10331 MEMB     97       POPE     C3       CTL2     0.800000E-01   12.0110           0
     10332 MEMB     97       POPE     HX       HAL2     0.900000E-01   1.00800           0
     10333 MEMB     97       POPE     HY       HAL2     0.900000E-01   1.00800           0
     10334 MEMB     97       POPE     O31      OSL     -0.490000       15.9994           0
     10335 MEMB     97       POPE     C31      CL       0.900000       12.0110           0
     10336 MEMB     97       POPE     O32      OBL     -0.630000       15.9994           0
     10337 MEMB     97       POPE     C32      CTL2    -0.220000       12.0110           0
     10338 MEMB     97       POPE     H2X      HAL2     0.900000E-01   1.00800           0
     10339 MEMB     97       POPE     H2Y      HAL2     0.900000E-01   1.00800           0
     10340 MEMB     97       POPE     C23      CTL2    -0.180000       12.0110           0
     10341 MEMB     97       POPE     H3R      HAL2     0.900000E-01   1.00800           0
     10342 MEMB     97       POPE     H3S      HAL2     0.900000E-01   1.00800           0
     10343 MEMB     97       POPE     C24      CTL2    -0.180000       12.0110           0
     10344 MEMB     97       POPE     H4R      HAL2     0.900000E-01   1.00800           0
     10345 MEMB     97       POPE     H4S      HAL2     0.900000E-01   1.00800           0
     10346 MEMB     97       POPE     C25      CTL2    -0.180000       12.0110           0
     10347 MEMB     97       POPE     H5R      HAL2     0.900000E-01   1.00800           0
     10348 MEMB     97       POPE     H5S      HAL2     0.900000E-01   1.00800           0
     10349 MEMB     97       POPE     C26      CTL2    -0.180000       12.0110           0
     10350 MEMB     97       POPE     H6R      HAL2     0.900000E-01   1.00800           0
     10351 MEMB     97       POPE     H6S      HAL2     0.900000E-01   1.00800           0
     10352 MEMB     97       POPE     C27      CTL2    -0.180000       12.0110           0
     10353 MEMB     97       POPE     H7R      HAL2     0.900000E-01   1.00800           0
     10354 MEMB     97       POPE     H7S      HAL2     0.900000E-01   1.00800           0
     10355 MEMB     97       POPE     C28      CTL2    -0.180000       12.0110           0
     10356 MEMB     97       POPE     H8R      HAL2     0.900000E-01   1.00800           0
     10357 MEMB     97       POPE     H8S      HAL2     0.900000E-01   1.00800           0
     10358 MEMB     97       POPE     C29      CEL1    -0.150000       12.0110           0
     10359 MEMB     97       POPE     H91      HEL1     0.150000       1.00800           0
     10360 MEMB     97       POPE     C210     CEL1    -0.150000       12.0110           0
     10361 MEMB     97       POPE     H101     HEL1     0.150000       1.00800           0
     10362 MEMB     97       POPE     C211     CTL2    -0.180000       12.0110           0
     10363 MEMB     97       POPE     H11R     HAL2     0.900000E-01   1.00800           0
     10364 MEMB     97       POPE     H11S     HAL2     0.900000E-01   1.00800           0
     10365 MEMB     97       POPE     C212     CTL2    -0.180000       12.0110           0
     10366 MEMB     97       POPE     H12R     HAL2     0.900000E-01   1.00800           0
     10367 MEMB     97       POPE     H12S     HAL2     0.900000E-01   1.00800           0
     10368 MEMB     97       POPE     C213     CTL2    -0.180000       12.0110           0
     10369 MEMB     97       POPE     H13R     HAL2     0.900000E-01   1.00800           0
     10370 MEMB     97       POPE     H13S     HAL2     0.900000E-01   1.00800           0
     10371 MEMB     97       POPE     C214     CTL2    -0.180000       12.0110           0
     10372 MEMB     97       POPE     H14R     HAL2     0.900000E-01   1.00800           0
     10373 MEMB     97       POPE     H14S     HAL2     0.900000E-01   1.00800           0
     10374 MEMB     97       POPE     C215     CTL2    -0.180000       12.0110           0
     10375 MEMB     97       POPE     H15R     HAL2     0.900000E-01   1.00800           0
     10376 MEMB     97       POPE     H15S     HAL2     0.900000E-01   1.00800           0
     10377 MEMB     97       POPE     C216     CTL2    -0.180000       12.0110           0
     10378 MEMB     97       POPE     H16R     HAL2     0.900000E-01   1.00800           0
     10379 MEMB     97       POPE     H16S     HAL2     0.900000E-01   1.00800           0
     10380 MEMB     97       POPE     C217     CTL2    -0.180000       12.0110           0
     10381 MEMB     97       POPE     H17R     HAL2     0.900000E-01   1.00800           0
     10382 MEMB     97       POPE     H17S     HAL2     0.900000E-01   1.00800           0
     10383 MEMB     97       POPE     C218     CTL3    -0.270000       12.0110           0
     10384 MEMB     97       POPE     H18R     HAL3     0.900000E-01   1.00800           0
     10385 MEMB     97       POPE     H18S     HAL3     0.900000E-01   1.00800           0
     10386 MEMB     97       POPE     H18T     HAL3     0.900000E-01   1.00800           0
     10387 MEMB     97       POPE     C33      CTL2    -0.180000       12.0110           0
     10388 MEMB     97       POPE     H3X      HAL2     0.900000E-01   1.00800           0
     10389 MEMB     97       POPE     H3Y      HAL2     0.900000E-01   1.00800           0
     10390 MEMB     97       POPE     C34      CTL2    -0.180000       12.0110           0
     10391 MEMB     97       POPE     H4X      HAL2     0.900000E-01   1.00800           0
     10392 MEMB     97       POPE     H4Y      HAL2     0.900000E-01   1.00800           0
     10393 MEMB     97       POPE     C35      CTL2    -0.180000       12.0110           0
     10394 MEMB     97       POPE     H5X      HAL2     0.900000E-01   1.00800           0
     10395 MEMB     97       POPE     H5Y      HAL2     0.900000E-01   1.00800           0
     10396 MEMB     97       POPE     C36      CTL2    -0.180000       12.0110           0
     10397 MEMB     97       POPE     H6X      HAL2     0.900000E-01   1.00800           0
     10398 MEMB     97       POPE     H6Y      HAL2     0.900000E-01   1.00800           0
     10399 MEMB     97       POPE     C37      CTL2    -0.180000       12.0110           0
     10400 MEMB     97       POPE     H7X      HAL2     0.900000E-01   1.00800           0
     10401 MEMB     97       POPE     H7Y      HAL2     0.900000E-01   1.00800           0
     10402 MEMB     97       POPE     C38      CTL2    -0.180000       12.0110           0
     10403 MEMB     97       POPE     H8X      HAL2     0.900000E-01   1.00800           0
     10404 MEMB     97       POPE     H8Y      HAL2     0.900000E-01   1.00800           0
     10405 MEMB     97       POPE     C39      CTL2    -0.180000       12.0110           0
     10406 MEMB     97       POPE     H9X      HAL2     0.900000E-01   1.00800           0
     10407 MEMB     97       POPE     H9Y      HAL2     0.900000E-01   1.00800           0
     10408 MEMB     97       POPE     C310     CTL2    -0.180000       12.0110           0
     10409 MEMB     97       POPE     H10X     HAL2     0.900000E-01   1.00800           0
     10410 MEMB     97       POPE     H10Y     HAL2     0.900000E-01   1.00800           0
     10411 MEMB     97       POPE     C311     CTL2    -0.180000       12.0110           0
     10412 MEMB     97       POPE     H11X     HAL2     0.900000E-01   1.00800           0
     10413 MEMB     97       POPE     H11Y     HAL2     0.900000E-01   1.00800           0
     10414 MEMB     97       POPE     C312     CTL2    -0.180000       12.0110           0
     10415 MEMB     97       POPE     H12X     HAL2     0.900000E-01   1.00800           0
     10416 MEMB     97       POPE     H12Y     HAL2     0.900000E-01   1.00800           0
     10417 MEMB     97       POPE     C313     CTL2    -0.180000       12.0110           0
     10418 MEMB     97       POPE     H13X     HAL2     0.900000E-01   1.00800           0
     10419 MEMB     97       POPE     H13Y     HAL2     0.900000E-01   1.00800           0
     10420 MEMB     97       POPE     C314     CTL2    -0.180000       12.0110           0
     10421 MEMB     97       POPE     H14X     HAL2     0.900000E-01   1.00800           0
     10422 MEMB     97       POPE     H14Y     HAL2     0.900000E-01   1.00800           0
     10423 MEMB     97       POPE     C315     CTL2    -0.180000       12.0110           0
     10424 MEMB     97       POPE     H15X     HAL2     0.900000E-01   1.00800           0
     10425 MEMB     97       POPE     H15Y     HAL2     0.900000E-01   1.00800           0
     10426 MEMB     97       POPE     C316     CTL3    -0.270000       12.0110           0
     10427 MEMB     97       POPE     H16X     HAL3     0.900000E-01   1.00800           0
     10428 MEMB     97       POPE     H16Y     HAL3     0.900000E-01   1.00800           0
     10429 MEMB     97       POPE     H16Z     HAL3     0.900000E-01   1.00800           0
     10430 MEMB     98       POPE     N        NH3L    -0.300000       14.0070           0
     10431 MEMB     98       POPE     HN1      HCL      0.330000       1.00800           0
     10432 MEMB     98       POPE     HN2      HCL      0.330000       1.00800           0
     10433 MEMB     98       POPE     HN3      HCL      0.330000       1.00800           0
     10434 MEMB     98       POPE     C12      CTL2     0.130000       12.0110           0
     10435 MEMB     98       POPE     H12A     HAL2     0.900000E-01   1.00800           0
     10436 MEMB     98       POPE     H12B     HAL2     0.900000E-01   1.00800           0
     10437 MEMB     98       POPE     C11      CTL2    -0.800000E-01   12.0110           0
     10438 MEMB     98       POPE     H11A     HAL2     0.900000E-01   1.00800           0
     10439 MEMB     98       POPE     H11B     HAL2     0.900000E-01   1.00800           0
     10440 MEMB     98       POPE     P        PL       1.500000       30.9740           0
     10441 MEMB     98       POPE     O13      O2L     -0.780000       15.9994           0
     10442 MEMB     98       POPE     O14      O2L     -0.780000       15.9994           0
     10443 MEMB     98       POPE     O11      OSLP    -0.570000       15.9994           0
     10444 MEMB     98       POPE     O12      OSLP    -0.570000       15.9994           0
     10445 MEMB     98       POPE     C1       CTL2    -0.800000E-01   12.0110           0
     10446 MEMB     98       POPE     HA       HAL2     0.900000E-01   1.00800           0
     10447 MEMB     98       POPE     HB       HAL2     0.900000E-01   1.00800           0
     10448 MEMB     98       POPE     C2       CTL1     0.170000       12.0110           0
     10449 MEMB     98       POPE     HS       HAL1     0.900000E-01   1.00800           0
     10450 MEMB     98       POPE     O21      OSL     -0.490000       15.9994           0
     10451 MEMB     98       POPE     C21      CL       0.900000       12.0110           0
     10452 MEMB     98       POPE     O22      OBL     -0.630000       15.9994           0
     10453 MEMB     98       POPE     C22      CTL2    -0.220000       12.0110           0
     10454 MEMB     98       POPE     H2R      HAL2     0.900000E-01   1.00800           0
     10455 MEMB     98       POPE     H2S      HAL2     0.900000E-01   1.00800           0
     10456 MEMB     98       POPE     C3       CTL2     0.800000E-01   12.0110           0
     10457 MEMB     98       POPE     HX       HAL2     0.900000E-01   1.00800           0
     10458 MEMB     98       POPE     HY       HAL2     0.900000E-01   1.00800           0
     10459 MEMB     98       POPE     O31      OSL     -0.490000       15.9994           0
     10460 MEMB     98       POPE     C31      CL       0.900000       12.0110           0
     10461 MEMB     98       POPE     O32      OBL     -0.630000       15.9994           0
     10462 MEMB     98       POPE     C32      CTL2    -0.220000       12.0110           0
     10463 MEMB     98       POPE     H2X      HAL2     0.900000E-01   1.00800           0
     10464 MEMB     98       POPE     H2Y      HAL2     0.900000E-01   1.00800           0
     10465 MEMB     98       POPE     C23      CTL2    -0.180000       12.0110           0
     10466 MEMB     98       POPE     H3R      HAL2     0.900000E-01   1.00800           0
     10467 MEMB     98       POPE     H3S      HAL2     0.900000E-01   1.00800           0
     10468 MEMB     98       POPE     C24      CTL2    -0.180000       12.0110           0
     10469 MEMB     98       POPE     H4R      HAL2     0.900000E-01   1.00800           0
     10470 MEMB     98       POPE     H4S      HAL2     0.900000E-01   1.00800           0
     10471 MEMB     98       POPE     C25      CTL2    -0.180000       12.0110           0
     10472 MEMB     98       POPE     H5R      HAL2     0.900000E-01   1.00800           0
     10473 MEMB     98       POPE     H5S      HAL2     0.900000E-01   1.00800           0
     10474 MEMB     98       POPE     C26      CTL2    -0.180000       12.0110           0
     10475 MEMB     98       POPE     H6R      HAL2     0.900000E-01   1.00800           0
     10476 MEMB     98       POPE     H6S      HAL2     0.900000E-01   1.00800           0
     10477 MEMB     98       POPE     C27      CTL2    -0.180000       12.0110           0
     10478 MEMB     98       POPE     H7R      HAL2     0.900000E-01   1.00800           0
     10479 MEMB     98       POPE     H7S      HAL2     0.900000E-01   1.00800           0
     10480 MEMB     98       POPE     C28      CTL2    -0.180000       12.0110           0
     10481 MEMB     98       POPE     H8R      HAL2     0.900000E-01   1.00800           0
     10482 MEMB     98       POPE     H8S      HAL2     0.900000E-01   1.00800           0
     10483 MEMB     98       POPE     C29      CEL1    -0.150000       12.0110           0
     10484 MEMB     98       POPE     H91      HEL1     0.150000       1.00800           0
     10485 MEMB     98       POPE     C210     CEL1    -0.150000       12.0110           0
     10486 MEMB     98       POPE     H101     HEL1     0.150000       1.00800           0
     10487 MEMB     98       POPE     C211     CTL2    -0.180000       12.0110           0
     10488 MEMB     98       POPE     H11R     HAL2     0.900000E-01   1.00800           0
     10489 MEMB     98       POPE     H11S     HAL2     0.900000E-01   1.00800           0
     10490 MEMB     98       POPE     C212     CTL2    -0.180000       12.0110           0
     10491 MEMB     98       POPE     H12R     HAL2     0.900000E-01   1.00800           0
     10492 MEMB     98       POPE     H12S     HAL2     0.900000E-01   1.00800           0
     10493 MEMB     98       POPE     C213     CTL2    -0.180000       12.0110           0
     10494 MEMB     98       POPE     H13R     HAL2     0.900000E-01   1.00800           0
     10495 MEMB     98       POPE     H13S     HAL2     0.900000E-01   1.00800           0
     10496 MEMB     98       POPE     C214     CTL2    -0.180000       12.0110           0
     10497 MEMB     98       POPE     H14R     HAL2     0.900000E-01   1.00800           0
     10498 MEMB     98       POPE     H14S     HAL2     0.900000E-01   1.00800           0
     10499 MEMB     98       POPE     C215     CTL2    -0.180000       12.0110           0
     10500 MEMB     98       POPE     H15R     HAL2     0.900000E-01   1.00800           0
     10501 MEMB     98       POPE     H15S     HAL2     0.900000E-01   1.00800           0
     10502 MEMB     98       POPE     C216     CTL2    -0.180000       12.0110           0
     10503 MEMB     98       POPE     H16R     HAL2     0.900000E-01   1.00800           0
     10504 MEMB     98       POPE     H16S     HAL2     0.900000E-01   1.00800           0
     10505 MEMB     98       POPE     C217     CTL2    -0.180000       12.0110           0
     10506 MEMB     98       POPE     H17R     HAL2     0.900000E-01   1.00800           0
     10507 MEMB     98       POPE     H17S     HAL2     0.900000E-01   1.00800           0
     10508 MEMB     98       POPE     C218     CTL3    -0.270000       12.0110           0
     10509 MEMB     98       POPE     H18R     HAL3     0.900000E-01   1.00800           0
     10510 MEMB     98       POPE     H18S     HAL3     0.900000E-01   1.00800           0
     10511 MEMB     98       POPE     H18T     HAL3     0.900000E-01   1.00800           0
     10512 MEMB     98       POPE     C33      CTL2    -0.180000       12.0110           0
     10513 MEMB     98       POPE     H3X      HAL2     0.900000E-01   1.00800           0
     10514 MEMB     98       POPE     H3Y      HAL2     0.900000E-01   1.00800           0
     10515 MEMB     98       POPE     C34      CTL2    -0.180000       12.0110           0
     10516 MEMB     98       POPE     H4X      HAL2     0.900000E-01   1.00800           0
     10517 MEMB     98       POPE     H4Y      HAL2     0.900000E-01   1.00800           0
     10518 MEMB     98       POPE     C35      CTL2    -0.180000       12.0110           0
     10519 MEMB     98       POPE     H5X      HAL2     0.900000E-01   1.00800           0
     10520 MEMB     98       POPE     H5Y      HAL2     0.900000E-01   1.00800           0
     10521 MEMB     98       POPE     C36      CTL2    -0.180000       12.0110           0
     10522 MEMB     98       POPE     H6X      HAL2     0.900000E-01   1.00800           0
     10523 MEMB     98       POPE     H6Y      HAL2     0.900000E-01   1.00800           0
     10524 MEMB     98       POPE     C37      CTL2    -0.180000       12.0110           0
     10525 MEMB     98       POPE     H7X      HAL2     0.900000E-01   1.00800           0
     10526 MEMB     98       POPE     H7Y      HAL2     0.900000E-01   1.00800           0
     10527 MEMB     98       POPE     C38      CTL2    -0.180000       12.0110           0
     10528 MEMB     98       POPE     H8X      HAL2     0.900000E-01   1.00800           0
     10529 MEMB     98       POPE     H8Y      HAL2     0.900000E-01   1.00800           0
     10530 MEMB     98       POPE     C39      CTL2    -0.180000       12.0110           0
     10531 MEMB     98       POPE     H9X      HAL2     0.900000E-01   1.00800           0
     10532 MEMB     98       POPE     H9Y      HAL2     0.900000E-01   1.00800           0
     10533 MEMB     98       POPE     C310     CTL2    -0.180000       12.0110           0
     10534 MEMB     98       POPE     H10X     HAL2     0.900000E-01   1.00800           0
     10535 MEMB     98       POPE     H10Y     HAL2     0.900000E-01   1.00800           0
     10536 MEMB     98       POPE     C311     CTL2    -0.180000       12.0110           0
     10537 MEMB     98       POPE     H11X     HAL2     0.900000E-01   1.00800           0
     10538 MEMB     98       POPE     H11Y     HAL2     0.900000E-01   1.00800           0
     10539 MEMB     98       POPE     C312     CTL2    -0.180000       12.0110           0
     10540 MEMB     98       POPE     H12X     HAL2     0.900000E-01   1.00800           0
     10541 MEMB     98       POPE     H12Y     HAL2     0.900000E-01   1.00800           0
     10542 MEMB     98       POPE     C313     CTL2    -0.180000       12.0110           0
     10543 MEMB     98       POPE     H13X     HAL2     0.900000E-01   1.00800           0
     10544 MEMB     98       POPE     H13Y     HAL2     0.900000E-01   1.00800           0
     10545 MEMB     98       POPE     C314     CTL2    -0.180000       12.0110           0
     10546 MEMB     98       POPE     H14X     HAL2     0.900000E-01   1.00800           0
     10547 MEMB     98       POPE     H14Y     HAL2     0.900000E-01   1.00800           0
     10548 MEMB     98       POPE     C315     CTL2    -0.180000       12.0110           0
     10549 MEMB     98       POPE     H15X     HAL2     0.900000E-01   1.00800           0
     10550 MEMB     98       POPE     H15Y     HAL2     0.900000E-01   1.00800           0
     10551 MEMB     98       POPE     C316     CTL3    -0.270000       12.0110           0
     10552 MEMB     98       POPE     H16X     HAL3     0.900000E-01   1.00800           0
     10553 MEMB     98       POPE     H16Y     HAL3     0.900000E-01   1.00800           0
     10554 MEMB     98       POPE     H16Z     HAL3     0.900000E-01   1.00800           0
     10555 MEMB     99       POPE     N        NH3L    -0.300000       14.0070           0
     10556 MEMB     99       POPE     HN1      HCL      0.330000       1.00800           0
     10557 MEMB     99       POPE     HN2      HCL      0.330000       1.00800           0
     10558 MEMB     99       POPE     HN3      HCL      0.330000       1.00800           0
     10559 MEMB     99       POPE     C12      CTL2     0.130000       12.0110           0
     10560 MEMB     99       POPE     H12A     HAL2     0.900000E-01   1.00800           0
     10561 MEMB     99       POPE     H12B     HAL2     0.900000E-01   1.00800           0
     10562 MEMB     99       POPE     C11      CTL2    -0.800000E-01   12.0110           0
     10563 MEMB     99       POPE     H11A     HAL2     0.900000E-01   1.00800           0
     10564 MEMB     99       POPE     H11B     HAL2     0.900000E-01   1.00800           0
     10565 MEMB     99       POPE     P        PL       1.500000       30.9740           0
     10566 MEMB     99       POPE     O13      O2L     -0.780000       15.9994           0
     10567 MEMB     99       POPE     O14      O2L     -0.780000       15.9994           0
     10568 MEMB     99       POPE     O11      OSLP    -0.570000       15.9994           0
     10569 MEMB     99       POPE     O12      OSLP    -0.570000       15.9994           0
     10570 MEMB     99       POPE     C1       CTL2    -0.800000E-01   12.0110           0
     10571 MEMB     99       POPE     HA       HAL2     0.900000E-01   1.00800           0
     10572 MEMB     99       POPE     HB       HAL2     0.900000E-01   1.00800           0
     10573 MEMB     99       POPE     C2       CTL1     0.170000       12.0110           0
     10574 MEMB     99       POPE     HS       HAL1     0.900000E-01   1.00800           0
     10575 MEMB     99       POPE     O21      OSL     -0.490000       15.9994           0
     10576 MEMB     99       POPE     C21      CL       0.900000       12.0110           0
     10577 MEMB     99       POPE     O22      OBL     -0.630000       15.9994           0
     10578 MEMB     99       POPE     C22      CTL2    -0.220000       12.0110           0
     10579 MEMB     99       POPE     H2R      HAL2     0.900000E-01   1.00800           0
     10580 MEMB     99       POPE     H2S      HAL2     0.900000E-01   1.00800           0
     10581 MEMB     99       POPE     C3       CTL2     0.800000E-01   12.0110           0
     10582 MEMB     99       POPE     HX       HAL2     0.900000E-01   1.00800           0
     10583 MEMB     99       POPE     HY       HAL2     0.900000E-01   1.00800           0
     10584 MEMB     99       POPE     O31      OSL     -0.490000       15.9994           0
     10585 MEMB     99       POPE     C31      CL       0.900000       12.0110           0
     10586 MEMB     99       POPE     O32      OBL     -0.630000       15.9994           0
     10587 MEMB     99       POPE     C32      CTL2    -0.220000       12.0110           0
     10588 MEMB     99       POPE     H2X      HAL2     0.900000E-01   1.00800           0
     10589 MEMB     99       POPE     H2Y      HAL2     0.900000E-01   1.00800           0
     10590 MEMB     99       POPE     C23      CTL2    -0.180000       12.0110           0
     10591 MEMB     99       POPE     H3R      HAL2     0.900000E-01   1.00800           0
     10592 MEMB     99       POPE     H3S      HAL2     0.900000E-01   1.00800           0
     10593 MEMB     99       POPE     C24      CTL2    -0.180000       12.0110           0
     10594 MEMB     99       POPE     H4R      HAL2     0.900000E-01   1.00800           0
     10595 MEMB     99       POPE     H4S      HAL2     0.900000E-01   1.00800           0
     10596 MEMB     99       POPE     C25      CTL2    -0.180000       12.0110           0
     10597 MEMB     99       POPE     H5R      HAL2     0.900000E-01   1.00800           0
     10598 MEMB     99       POPE     H5S      HAL2     0.900000E-01   1.00800           0
     10599 MEMB     99       POPE     C26      CTL2    -0.180000       12.0110           0
     10600 MEMB     99       POPE     H6R      HAL2     0.900000E-01   1.00800           0
     10601 MEMB     99       POPE     H6S      HAL2     0.900000E-01   1.00800           0
     10602 MEMB     99       POPE     C27      CTL2    -0.180000       12.0110           0
     10603 MEMB     99       POPE     H7R      HAL2     0.900000E-01   1.00800           0
     10604 MEMB     99       POPE     H7S      HAL2     0.900000E-01   1.00800           0
     10605 MEMB     99       POPE     C28      CTL2    -0.180000       12.0110           0
     10606 MEMB     99       POPE     H8R      HAL2     0.900000E-01   1.00800           0
     10607 MEMB     99       POPE     H8S      HAL2     0.900000E-01   1.00800           0
     10608 MEMB     99       POPE     C29      CEL1    -0.150000       12.0110           0
     10609 MEMB     99       POPE     H91      HEL1     0.150000       1.00800           0
     10610 MEMB     99       POPE     C210     CEL1    -0.150000       12.0110           0
     10611 MEMB     99       POPE     H101     HEL1     0.150000       1.00800           0
     10612 MEMB     99       POPE     C211     CTL2    -0.180000       12.0110           0
     10613 MEMB     99       POPE     H11R     HAL2     0.900000E-01   1.00800           0
     10614 MEMB     99       POPE     H11S     HAL2     0.900000E-01   1.00800           0
     10615 MEMB     99       POPE     C212     CTL2    -0.180000       12.0110           0
     10616 MEMB     99       POPE     H12R     HAL2     0.900000E-01   1.00800           0
     10617 MEMB     99       POPE     H12S     HAL2     0.900000E-01   1.00800           0
     10618 MEMB     99       POPE     C213     CTL2    -0.180000       12.0110           0
     10619 MEMB     99       POPE     H13R     HAL2     0.900000E-01   1.00800           0
     10620 MEMB     99       POPE     H13S     HAL2     0.900000E-01   1.00800           0
     10621 MEMB     99       POPE     C214     CTL2    -0.180000       12.0110           0
     10622 MEMB     99       POPE     H14R     HAL2     0.900000E-01   1.00800           0
     10623 MEMB     99       POPE     H14S     HAL2     0.900000E-01   1.00800           0
     10624 MEMB     99       POPE     C215     CTL2    -0.180000       12.0110           0
     10625 MEMB     99       POPE     H15R     HAL2     0.900000E-01   1.00800           0
     10626 MEMB     99       POPE     H15S     HAL2     0.900000E-01   1.00800           0
     10627 MEMB     99       POPE     C216     CTL2    -0.180000       12.0110           0
     10628 MEMB     99       POPE     H16R     HAL2     0.900000E-01   1.00800           0
     10629 MEMB     99       POPE     H16S     HAL2     0.900000E-01   1.00800           0
     10630 MEMB     99       POPE     C217     CTL2    -0.180000       12.0110           0
     10631 MEMB     99       POPE     H17R     HAL2     0.900000E-01   1.00800           0
     10632 MEMB     99       POPE     H17S     HAL2     0.900000E-01   1.00800           0
     10633 MEMB     99       POPE     C218     CTL3    -0.270000       12.0110           0
     10634 MEMB     99       POPE     H18R     HAL3     0.900000E-01   1.00800           0
     10635 MEMB     99       POPE     H18S     HAL3     0.900000E-01   1.00800           0
     10636 MEMB     99       POPE     H18T     HAL3     0.900000E-01   1.00800           0
     10637 MEMB     99       POPE     C33      CTL2    -0.180000       12.0110           0
     10638 MEMB     99       POPE     H3X      HAL2     0.900000E-01   1.00800           0
     10639 MEMB     99       POPE     H3Y      HAL2     0.900000E-01   1.00800           0
     10640 MEMB     99       POPE     C34      CTL2    -0.180000       12.0110           0
     10641 MEMB     99       POPE     H4X      HAL2     0.900000E-01   1.00800           0
     10642 MEMB     99       POPE     H4Y      HAL2     0.900000E-01   1.00800           0
     10643 MEMB     99       POPE     C35      CTL2    -0.180000       12.0110           0
     10644 MEMB     99       POPE     H5X      HAL2     0.900000E-01   1.00800           0
     10645 MEMB     99       POPE     H5Y      HAL2     0.900000E-01   1.00800           0
     10646 MEMB     99       POPE     C36      CTL2    -0.180000       12.0110           0
     10647 MEMB     99       POPE     H6X      HAL2     0.900000E-01   1.00800           0
     10648 MEMB     99       POPE     H6Y      HAL2     0.900000E-01   1.00800           0
     10649 MEMB     99       POPE     C37      CTL2    -0.180000       12.0110           0
     10650 MEMB     99       POPE     H7X      HAL2     0.900000E-01   1.00800           0
     10651 MEMB     99       POPE     H7Y      HAL2     0.900000E-01   1.00800           0
     10652 MEMB     99       POPE     C38      CTL2    -0.180000       12.0110           0
     10653 MEMB     99       POPE     H8X      HAL2     0.900000E-01   1.00800           0
     10654 MEMB     99       POPE     H8Y      HAL2     0.900000E-01   1.00800           0
     10655 MEMB     99       POPE     C39      CTL2    -0.180000       12.0110           0
     10656 MEMB     99       POPE     H9X      HAL2     0.900000E-01   1.00800           0
     10657 MEMB     99       POPE     H9Y      HAL2     0.900000E-01   1.00800           0
     10658 MEMB     99       POPE     C310     CTL2    -0.180000       12.0110           0
     10659 MEMB     99       POPE     H10X     HAL2     0.900000E-01   1.00800           0
     10660 MEMB     99       POPE     H10Y     HAL2     0.900000E-01   1.00800           0
     10661 MEMB     99       POPE     C311     CTL2    -0.180000       12.0110           0
     10662 MEMB     99       POPE     H11X     HAL2     0.900000E-01   1.00800           0
     10663 MEMB     99       POPE     H11Y     HAL2     0.900000E-01   1.00800           0
     10664 MEMB     99       POPE     C312     CTL2    -0.180000       12.0110           0
     10665 MEMB     99       POPE     H12X     HAL2     0.900000E-01   1.00800           0
     10666 MEMB     99       POPE     H12Y     HAL2     0.900000E-01   1.00800           0
     10667 MEMB     99       POPE     C313     CTL2    -0.180000       12.0110           0
     10668 MEMB     99       POPE     H13X     HAL2     0.900000E-01   1.00800           0
     10669 MEMB     99       POPE     H13Y     HAL2     0.900000E-01   1.00800           0
     10670 MEMB     99       POPE     C314     CTL2    -0.180000       12.0110           0
     10671 MEMB     99       POPE     H14X     HAL2     0.900000E-01   1.00800           0
     10672 MEMB     99       POPE     H14Y     HAL2     0.900000E-01   1.00800           0
     10673 MEMB     99       POPE     C315     CTL2    -0.180000       12.0110           0
     10674 MEMB     99       POPE     H15X     HAL2     0.900000E-01   1.00800           0
     10675 MEMB     99       POPE     H15Y     HAL2     0.900000E-01   1.00800           0
     10676 MEMB     99       POPE     C316     CTL3    -0.270000       12.0110           0
     10677 MEMB     99       POPE     H16X     HAL3     0.900000E-01   1.00800           0
     10678 MEMB     99       POPE     H16Y     HAL3     0.900000E-01   1.00800           0
     10679 MEMB     99       POPE     H16Z     HAL3     0.900000E-01   1.00800           0
     10680 MEMB     100      POPE     N        NH3L    -0.300000       14.0070           0
     10681 MEMB     100      POPE     HN1      HCL      0.330000       1.00800           0
     10682 MEMB     100      POPE     HN2      HCL      0.330000       1.00800           0
     10683 MEMB     100      POPE     HN3      HCL      0.330000       1.00800           0
     10684 MEMB     100      POPE     C12      CTL2     0.130000       12.0110           0
     10685 MEMB     100      POPE     H12A     HAL2     0.900000E-01   1.00800           0
     10686 MEMB     100      POPE     H12B     HAL2     0.900000E-01   1.00800           0
     10687 MEMB     100      POPE     C11      CTL2    -0.800000E-01   12.0110           0
     10688 MEMB     100      POPE     H11A     HAL2     0.900000E-01   1.00800           0
     10689 MEMB     100      POPE     H11B     HAL2     0.900000E-01   1.00800           0
     10690 MEMB     100      POPE     P        PL       1.500000       30.9740           0
     10691 MEMB     100      POPE     O13      O2L     -0.780000       15.9994           0
     10692 MEMB     100      POPE     O14      O2L     -0.780000       15.9994           0
     10693 MEMB     100      POPE     O11      OSLP    -0.570000       15.9994           0
     10694 MEMB     100      POPE     O12      OSLP    -0.570000       15.9994           0
     10695 MEMB     100      POPE     C1       CTL2    -0.800000E-01   12.0110           0
     10696 MEMB     100      POPE     HA       HAL2     0.900000E-01   1.00800           0
     10697 MEMB     100      POPE     HB       HAL2     0.900000E-01   1.00800           0
     10698 MEMB     100      POPE     C2       CTL1     0.170000       12.0110           0
     10699 MEMB     100      POPE     HS       HAL1     0.900000E-01   1.00800           0
     10700 MEMB     100      POPE     O21      OSL     -0.490000       15.9994           0
     10701 MEMB     100      POPE     C21      CL       0.900000       12.0110           0
     10702 MEMB     100      POPE     O22      OBL     -0.630000       15.9994           0
     10703 MEMB     100      POPE     C22      CTL2    -0.220000       12.0110           0
     10704 MEMB     100      POPE     H2R      HAL2     0.900000E-01   1.00800           0
     10705 MEMB     100      POPE     H2S      HAL2     0.900000E-01   1.00800           0
     10706 MEMB     100      POPE     C3       CTL2     0.800000E-01   12.0110           0
     10707 MEMB     100      POPE     HX       HAL2     0.900000E-01   1.00800           0
     10708 MEMB     100      POPE     HY       HAL2     0.900000E-01   1.00800           0
     10709 MEMB     100      POPE     O31      OSL     -0.490000       15.9994           0
     10710 MEMB     100      POPE     C31      CL       0.900000       12.0110           0
     10711 MEMB     100      POPE     O32      OBL     -0.630000       15.9994           0
     10712 MEMB     100      POPE     C32      CTL2    -0.220000       12.0110           0
     10713 MEMB     100      POPE     H2X      HAL2     0.900000E-01   1.00800           0
     10714 MEMB     100      POPE     H2Y      HAL2     0.900000E-01   1.00800           0
     10715 MEMB     100      POPE     C23      CTL2    -0.180000       12.0110           0
     10716 MEMB     100      POPE     H3R      HAL2     0.900000E-01   1.00800           0
     10717 MEMB     100      POPE     H3S      HAL2     0.900000E-01   1.00800           0
     10718 MEMB     100      POPE     C24      CTL2    -0.180000       12.0110           0
     10719 MEMB     100      POPE     H4R      HAL2     0.900000E-01   1.00800           0
     10720 MEMB     100      POPE     H4S      HAL2     0.900000E-01   1.00800           0
     10721 MEMB     100      POPE     C25      CTL2    -0.180000       12.0110           0
     10722 MEMB     100      POPE     H5R      HAL2     0.900000E-01   1.00800           0
     10723 MEMB     100      POPE     H5S      HAL2     0.900000E-01   1.00800           0
     10724 MEMB     100      POPE     C26      CTL2    -0.180000       12.0110           0
     10725 MEMB     100      POPE     H6R      HAL2     0.900000E-01   1.00800           0
     10726 MEMB     100      POPE     H6S      HAL2     0.900000E-01   1.00800           0
     10727 MEMB     100      POPE     C27      CTL2    -0.180000       12.0110           0
     10728 MEMB     100      POPE     H7R      HAL2     0.900000E-01   1.00800           0
     10729 MEMB     100      POPE     H7S      HAL2     0.900000E-01   1.00800           0
     10730 MEMB     100      POPE     C28      CTL2    -0.180000       12.0110           0
     10731 MEMB     100      POPE     H8R      HAL2     0.900000E-01   1.00800           0
     10732 MEMB     100      POPE     H8S      HAL2     0.900000E-01   1.00800           0
     10733 MEMB     100      POPE     C29      CEL1    -0.150000       12.0110           0
     10734 MEMB     100      POPE     H91      HEL1     0.150000       1.00800           0
     10735 MEMB     100      POPE     C210     CEL1    -0.150000       12.0110           0
     10736 MEMB     100      POPE     H101     HEL1     0.150000       1.00800           0
     10737 MEMB     100      POPE     C211     CTL2    -0.180000       12.0110           0
     10738 MEMB     100      POPE     H11R     HAL2     0.900000E-01   1.00800           0
     10739 MEMB     100      POPE     H11S     HAL2     0.900000E-01   1.00800           0
     10740 MEMB     100      POPE     C212     CTL2    -0.180000       12.0110           0
     10741 MEMB     100      POPE     H12R     HAL2     0.900000E-01   1.00800           0
     10742 MEMB     100      POPE     H12S     HAL2     0.900000E-01   1.00800           0
     10743 MEMB     100      POPE     C213     CTL2    -0.180000       12.0110           0
     10744 MEMB     100      POPE     H13R     HAL2     0.900000E-01   1.00800           0
     10745 MEMB     100      POPE     H13S     HAL2     0.900000E-01   1.00800           0
     10746 MEMB     100      POPE     C214     CTL2    -0.180000       12.0110           0
     10747 MEMB     100      POPE     H14R     HAL2     0.900000E-01   1.00800           0
     10748 MEMB     100      POPE     H14S     HAL2     0.900000E-01   1.00800           0
     10749 MEMB     100      POPE     C215     CTL2    -0.180000       12.0110           0
     10750 MEMB     100      POPE     H15R     HAL2     0.900000E-01   1.00800           0
     10751 MEMB     100      POPE     H15S     HAL2     0.900000E-01   1.00800           0
     10752 MEMB     100      POPE     C216     CTL2    -0.180000       12.0110           0
     10753 MEMB     100      POPE     H16R     HAL2     0.900000E-01   1.00800           0
     10754 MEMB     100      POPE     H16S     HAL2     0.900000E-01   1.00800           0
     10755 MEMB     100      POPE     C217     CTL2    -0.180000       12.0110           0
     10756 MEMB     100      POPE     H17R     HAL2     0.900000E-01   1.00800           0
     10757 MEMB     100      POPE     H17S     HAL2     0.900000E-01   1.00800           0
     10758 MEMB     100      POPE     C218     CTL3    -0.270000       12.0110           0
     10759 MEMB     100      POPE     H18R     HAL3     0.900000E-01   1.00800           0
     10760 MEMB     100      POPE     H18S     HAL3     0.900000E-01   1.00800           0
     10761 MEMB     100      POPE     H18T     HAL3     0.900000E-01   1.00800           0
     10762 MEMB     100      POPE     C33      CTL2    -0.180000       12.0110           0
     10763 MEMB     100      POPE     H3X      HAL2     0.900000E-01   1.00800           0
     10764 MEMB     100      POPE     H3Y      HAL2     0.900000E-01   1.00800           0
     10765 MEMB     100      POPE     C34      CTL2    -0.180000       12.0110           0
     10766 MEMB     100      POPE     H4X      HAL2     0.900000E-01   1.00800           0
     10767 MEMB     100      POPE     H4Y      HAL2     0.900000E-01   1.00800           0
     10768 MEMB     100      POPE     C35      CTL2    -0.180000       12.0110           0
     10769 MEMB     100      POPE     H5X      HAL2     0.900000E-01   1.00800           0
     10770 MEMB     100      POPE     H5Y      HAL2     0.900000E-01   1.00800           0
     10771 MEMB     100      POPE     C36      CTL2    -0.180000       12.0110           0
     10772 MEMB     100      POPE     H6X      HAL2     0.900000E-01   1.00800           0
     10773 MEMB     100      POPE     H6Y      HAL2     0.900000E-01   1.00800           0
     10774 MEMB     100      POPE     C37      CTL2    -0.180000       12.0110           0
     10775 MEMB     100      POPE     H7X      HAL2     0.900000E-01   1.00800           0
     10776 MEMB     100      POPE     H7Y      HAL2     0.900000E-01   1.00800           0
     10777 MEMB     100      POPE     C38      CTL2    -0.180000       12.0110           0
     10778 MEMB     100      POPE     H8X      HAL2     0.900000E-01   1.00800           0
     10779 MEMB     100      POPE     H8Y      HAL2     0.900000E-01   1.00800           0
     10780 MEMB     100      POPE     C39      CTL2    -0.180000       12.0110           0
     10781 MEMB     100      POPE     H9X      HAL2     0.900000E-01   1.00800           0
     10782 MEMB     100      POPE     H9Y      HAL2     0.900000E-01   1.00800           0
     10783 MEMB     100      POPE     C310     CTL2    -0.180000       12.0110           0
     10784 MEMB     100      POPE     H10X     HAL2     0.900000E-01   1.00800           0
     10785 MEMB     100      POPE     H10Y     HAL2     0.900000E-01   1.00800           0
     10786 MEMB     100      POPE     C311     CTL2    -0.180000       12.0110           0
     10787 MEMB     100      POPE     H11X     HAL2     0.900000E-01   1.00800           0
     10788 MEMB     100      POPE     H11Y     HAL2     0.900000E-01   1.00800           0
     10789 MEMB     100      POPE     C312     CTL2    -0.180000       12.0110           0
     10790 MEMB     100      POPE     H12X     HAL2     0.900000E-01   1.00800           0
     10791 MEMB     100      POPE     H12Y     HAL2     0.900000E-01   1.00800           0
     10792 MEMB     100      POPE     C313     CTL2    -0.180000       12.0110           0
     10793 MEMB     100      POPE     H13X     HAL2     0.900000E-01   1.00800           0
     10794 MEMB     100      POPE     H13Y     HAL2     0.900000E-01   1.00800           0
     10795 MEMB     100      POPE     C314     CTL2    -0.180000       12.0110           0
     10796 MEMB     100      POPE     H14X     HAL2     0.900000E-01   1.00800           0
     10797 MEMB     100      POPE     H14Y     HAL2     0.900000E-01   1.00800           0
     10798 MEMB     100      POPE     C315     CTL2    -0.180000       12.0110           0
     10799 MEMB     100      POPE     H15X     HAL2     0.900000E-01   1.00800           0
     10800 MEMB     100      POPE     H15Y     HAL2     0.900000E-01   1.00800           0
     10801 MEMB     100      POPE     C316     CTL3    -0.270000       12.0110           0
     10802 MEMB     100      POPE     H16X     HAL3     0.900000E-01   1.00800           0
     10803 MEMB     100      POPE     H16Y     HAL3     0.900000E-01   1.00800           0
     10804 MEMB     100      POPE     H16Z     HAL3     0.900000E-01   1.00800           0
     10805 MEMB     101      PSM      N        NTL     -0.600000       14.0070           0
     10806 MEMB     101      PSM      C15      CTL5    -0.350000       12.0110           0
     10807 MEMB     101      PSM      H15A     HL       0.250000       1.00800           0
     10808 MEMB     101      PSM      H15B     HL       0.250000       1.00800           0
     10809 MEMB     101      PSM      H15C     HL       0.250000       1.00800           0
     10810 MEMB     101      PSM      C14      CTL5    -0.350000       12.0110           0
     10811 MEMB     101      PSM      H14A     HL       0.250000       1.00800           0
     10812 MEMB     101      PSM      H14B     HL       0.250000       1.00800           0
     10813 MEMB     101      PSM      H14C     HL       0.250000       1.00800           0
     10814 MEMB     101      PSM      C13      CTL5    -0.350000       12.0110           0
     10815 MEMB     101      PSM      H13A     HL       0.250000       1.00800           0
     10816 MEMB     101      PSM      H13B     HL       0.250000       1.00800           0
     10817 MEMB     101      PSM      H13C     HL       0.250000       1.00800           0
     10818 MEMB     101      PSM      C12      CTL2    -0.100000       12.0110           0
     10819 MEMB     101      PSM      H12A     HL       0.250000       1.00800           0
     10820 MEMB     101      PSM      H12B     HL       0.250000       1.00800           0
     10821 MEMB     101      PSM      C11      CTL2    -0.800000E-01   12.0110           0
     10822 MEMB     101      PSM      H11A     HAL2     0.900000E-01   1.00800           0
     10823 MEMB     101      PSM      H11B     HAL2     0.900000E-01   1.00800           0
     10824 MEMB     101      PSM      P        PL       1.500000       30.9740           0
     10825 MEMB     101      PSM      O13      O2L     -0.780000       15.9994           0
     10826 MEMB     101      PSM      O14      O2L     -0.780000       15.9994           0
     10827 MEMB     101      PSM      O11      OSLP    -0.570000       15.9994           0
     10828 MEMB     101      PSM      O12      OSLP    -0.570000       15.9994           0
     10829 MEMB     101      PSM      C1S      CTL2    -0.800000E-01   12.0110           0
     10830 MEMB     101      PSM      H1S      HAL2     0.900000E-01   1.00800           0
     10831 MEMB     101      PSM      H1T      HAL2     0.900000E-01   1.00800           0
     10832 MEMB     101      PSM      NF       NHL     -0.700000       14.0070           0
     10833 MEMB     101      PSM      HNF      H        0.350000       1.00800           0
     10834 MEMB     101      PSM      C2S      CTL1     0.300000       12.0110           0
     10835 MEMB     101      PSM      H2S      HAL1     0.500000E-01   1.00800           0
     10836 MEMB     101      PSM      C3S      CTO1     0.500000       12.0110           0
     10837 MEMB     101      PSM      H3S      HAL1    -0.110000       1.00800           0
     10838 MEMB     101      PSM      O3       OHL     -0.690000       15.9994           0
     10839 MEMB     101      PSM      HO3      HOL      0.300000       1.00800           0
     10840 MEMB     101      PSM      C4S      CEL3    -0.150000       12.0110           0
     10841 MEMB     101      PSM      H4S      HEL1     0.150000       1.00800           0
     10842 MEMB     101      PSM      C5S      CEL3    -0.150000       12.0110           0
     10843 MEMB     101      PSM      H5S      HEL1     0.150000       1.00800           0
     10844 MEMB     101      PSM      C6S      CTL2    -0.180000       12.0110           0
     10845 MEMB     101      PSM      H6S      HAL2     0.900000E-01   1.00800           0
     10846 MEMB     101      PSM      H6T      HAL2     0.900000E-01   1.00800           0
     10847 MEMB     101      PSM      C7S      CTL2    -0.180000       12.0110           0
     10848 MEMB     101      PSM      H7S      HAL2     0.900000E-01   1.00800           0
     10849 MEMB     101      PSM      H7T      HAL2     0.900000E-01   1.00800           0
     10850 MEMB     101      PSM      C8S      CTL2    -0.180000       12.0110           0
     10851 MEMB     101      PSM      H8S      HAL2     0.900000E-01   1.00800           0
     10852 MEMB     101      PSM      H8T      HAL2     0.900000E-01   1.00800           0
     10853 MEMB     101      PSM      C9S      CTL2    -0.180000       12.0110           0
     10854 MEMB     101      PSM      H9S      HAL2     0.900000E-01   1.00800           0
     10855 MEMB     101      PSM      H9T      HAL2     0.900000E-01   1.00800           0
     10856 MEMB     101      PSM      C10S     CTL2    -0.180000       12.0110           0
     10857 MEMB     101      PSM      H10S     HAL2     0.900000E-01   1.00800           0
     10858 MEMB     101      PSM      H10T     HAL2     0.900000E-01   1.00800           0
     10859 MEMB     101      PSM      C11S     CTL2    -0.180000       12.0110           0
     10860 MEMB     101      PSM      H11S     HAL2     0.900000E-01   1.00800           0
     10861 MEMB     101      PSM      H11T     HAL2     0.900000E-01   1.00800           0
     10862 MEMB     101      PSM      C12S     CTL2    -0.180000       12.0110           0
     10863 MEMB     101      PSM      H12S     HAL2     0.900000E-01   1.00800           0
     10864 MEMB     101      PSM      H12T     HAL2     0.900000E-01   1.00800           0
     10865 MEMB     101      PSM      C13S     CTL2    -0.180000       12.0110           0
     10866 MEMB     101      PSM      H13S     HAL2     0.900000E-01   1.00800           0
     10867 MEMB     101      PSM      H13T     HAL2     0.900000E-01   1.00800           0
     10868 MEMB     101      PSM      C14S     CTL2    -0.180000       12.0110           0
     10869 MEMB     101      PSM      H14S     HAL2     0.900000E-01   1.00800           0
     10870 MEMB     101      PSM      H14T     HAL2     0.900000E-01   1.00800           0
     10871 MEMB     101      PSM      C15S     CTL2    -0.180000       12.0110           0
     10872 MEMB     101      PSM      H15S     HAL2     0.900000E-01   1.00800           0
     10873 MEMB     101      PSM      H15T     HAL2     0.900000E-01   1.00800           0
     10874 MEMB     101      PSM      C16S     CTL2    -0.180000       12.0110           0
     10875 MEMB     101      PSM      H16S     HAL2     0.900000E-01   1.00800           0
     10876 MEMB     101      PSM      H16T     HAL2     0.900000E-01   1.00800           0
     10877 MEMB     101      PSM      C17S     CTL2    -0.180000       12.0110           0
     10878 MEMB     101      PSM      H17S     HAL2     0.900000E-01   1.00800           0
     10879 MEMB     101      PSM      H17T     HAL2     0.900000E-01   1.00800           0
     10880 MEMB     101      PSM      C18S     CTL3    -0.270000       12.0110           0
     10881 MEMB     101      PSM      H18S     HAL3     0.900000E-01   1.00800           0
     10882 MEMB     101      PSM      H18T     HAL3     0.900000E-01   1.00800           0
     10883 MEMB     101      PSM      H18U     HAL3     0.900000E-01   1.00800           0
     10884 MEMB     101      PSM      C1F      C        0.550000       12.0110           0
     10885 MEMB     101      PSM      OF       O       -0.600000       15.9994           0
     10886 MEMB     101      PSM      C2F      CTL2    -0.700000E-01   12.0110           0
     10887 MEMB     101      PSM      H2F      HAL2     0.600000E-01   1.00800           0
     10888 MEMB     101      PSM      H2G      HAL2     0.600000E-01   1.00800           0
     10889 MEMB     101      PSM      C3F      CTL2    -0.180000       12.0110           0
     10890 MEMB     101      PSM      H3F      HAL2     0.900000E-01   1.00800           0
     10891 MEMB     101      PSM      H3G      HAL2     0.900000E-01   1.00800           0
     10892 MEMB     101      PSM      C4F      CTL2    -0.180000       12.0110           0
     10893 MEMB     101      PSM      H4F      HAL2     0.900000E-01   1.00800           0
     10894 MEMB     101      PSM      H4G      HAL2     0.900000E-01   1.00800           0
     10895 MEMB     101      PSM      C5F      CTL2    -0.180000       12.0110           0
     10896 MEMB     101      PSM      H5F      HAL2     0.900000E-01   1.00800           0
     10897 MEMB     101      PSM      H5G      HAL2     0.900000E-01   1.00800           0
     10898 MEMB     101      PSM      C6F      CTL2    -0.180000       12.0110           0
     10899 MEMB     101      PSM      H6F      HAL2     0.900000E-01   1.00800           0
     10900 MEMB     101      PSM      H6G      HAL2     0.900000E-01   1.00800           0
     10901 MEMB     101      PSM      C7F      CTL2    -0.180000       12.0110           0
     10902 MEMB     101      PSM      H7F      HAL2     0.900000E-01   1.00800           0
     10903 MEMB     101      PSM      H7G      HAL2     0.900000E-01   1.00800           0
     10904 MEMB     101      PSM      C8F      CTL2    -0.180000       12.0110           0
     10905 MEMB     101      PSM      H8F      HAL2     0.900000E-01   1.00800           0
     10906 MEMB     101      PSM      H8G      HAL2     0.900000E-01   1.00800           0
     10907 MEMB     101      PSM      C9F      CTL2    -0.180000       12.0110           0
     10908 MEMB     101      PSM      H9F      HAL2     0.900000E-01   1.00800           0
     10909 MEMB     101      PSM      H9G      HAL2     0.900000E-01   1.00800           0
     10910 MEMB     101      PSM      C10F     CTL2    -0.180000       12.0110           0
     10911 MEMB     101      PSM      H10F     HAL2     0.900000E-01   1.00800           0
     10912 MEMB     101      PSM      H10G     HAL2     0.900000E-01   1.00800           0
     10913 MEMB     101      PSM      C11F     CTL2    -0.180000       12.0110           0
     10914 MEMB     101      PSM      H11F     HAL2     0.900000E-01   1.00800           0
     10915 MEMB     101      PSM      H11G     HAL2     0.900000E-01   1.00800           0
     10916 MEMB     101      PSM      C12F     CTL2    -0.180000       12.0110           0
     10917 MEMB     101      PSM      H12F     HAL2     0.900000E-01   1.00800           0
     10918 MEMB     101      PSM      H12G     HAL2     0.900000E-01   1.00800           0
     10919 MEMB     101      PSM      C13F     CTL2    -0.180000       12.0110           0
     10920 MEMB     101      PSM      H13F     HAL2     0.900000E-01   1.00800           0
     10921 MEMB     101      PSM      H13G     HAL2     0.900000E-01   1.00800           0
     10922 MEMB     101      PSM      C14F     CTL2    -0.180000       12.0110           0
     10923 MEMB     101      PSM      H14F     HAL2     0.900000E-01   1.00800           0
     10924 MEMB     101      PSM      H14G     HAL2     0.900000E-01   1.00800           0
     10925 MEMB     101      PSM      C15F     CTL2    -0.180000       12.0110           0
     10926 MEMB     101      PSM      H15F     HAL2     0.900000E-01   1.00800           0
     10927 MEMB     101      PSM      H15G     HAL2     0.900000E-01   1.00800           0
     10928 MEMB     101      PSM      C16F     CTL3    -0.270000       12.0110           0
     10929 MEMB     101      PSM      H16F     HAL3     0.900000E-01   1.00800           0
     10930 MEMB     101      PSM      H16G     HAL3     0.900000E-01   1.00800           0
     10931 MEMB     101      PSM      H16H     HAL3     0.900000E-01   1.00800           0
     10932 MEMB     102      POPC     N        NTL     -0.600000       14.0070           0
     10933 MEMB     102      POPC     C12      CTL2    -0.100000       12.0110           0
     10934 MEMB     102      POPC     H12A     HL       0.250000       1.00800           0
     10935 MEMB     102      POPC     H12B     HL       0.250000       1.00800           0
     10936 MEMB     102      POPC     C13      CTL5    -0.350000       12.0110           0
     10937 MEMB     102      POPC     H13A     HL       0.250000       1.00800           0
     10938 MEMB     102      POPC     H13B     HL       0.250000       1.00800           0
     10939 MEMB     102      POPC     H13C     HL       0.250000       1.00800           0
     10940 MEMB     102      POPC     C14      CTL5    -0.350000       12.0110           0
     10941 MEMB     102      POPC     H14A     HL       0.250000       1.00800           0
     10942 MEMB     102      POPC     H14B     HL       0.250000       1.00800           0
     10943 MEMB     102      POPC     H14C     HL       0.250000       1.00800           0
     10944 MEMB     102      POPC     C15      CTL5    -0.350000       12.0110           0
     10945 MEMB     102      POPC     H15A     HL       0.250000       1.00800           0
     10946 MEMB     102      POPC     H15B     HL       0.250000       1.00800           0
     10947 MEMB     102      POPC     H15C     HL       0.250000       1.00800           0
     10948 MEMB     102      POPC     C11      CTL2    -0.800000E-01   12.0110           0
     10949 MEMB     102      POPC     H11A     HAL2     0.900000E-01   1.00800           0
     10950 MEMB     102      POPC     H11B     HAL2     0.900000E-01   1.00800           0
     10951 MEMB     102      POPC     P        PL       1.500000       30.9740           0
     10952 MEMB     102      POPC     O13      O2L     -0.780000       15.9994           0
     10953 MEMB     102      POPC     O14      O2L     -0.780000       15.9994           0
     10954 MEMB     102      POPC     O12      OSLP    -0.570000       15.9994           0
     10955 MEMB     102      POPC     O11      OSLP    -0.570000       15.9994           0
     10956 MEMB     102      POPC     C1       CTL2    -0.800000E-01   12.0110           0
     10957 MEMB     102      POPC     HA       HAL2     0.900000E-01   1.00800           0
     10958 MEMB     102      POPC     HB       HAL2     0.900000E-01   1.00800           0
     10959 MEMB     102      POPC     C2       CTL1     0.170000       12.0110           0
     10960 MEMB     102      POPC     HS       HAL1     0.900000E-01   1.00800           0
     10961 MEMB     102      POPC     O21      OSL     -0.490000       15.9994           0
     10962 MEMB     102      POPC     C21      CL       0.900000       12.0110           0
     10963 MEMB     102      POPC     O22      OBL     -0.630000       15.9994           0
     10964 MEMB     102      POPC     C22      CTL2    -0.220000       12.0110           0
     10965 MEMB     102      POPC     H2R      HAL2     0.900000E-01   1.00800           0
     10966 MEMB     102      POPC     H2S      HAL2     0.900000E-01   1.00800           0
     10967 MEMB     102      POPC     C3       CTL2     0.800000E-01   12.0110           0
     10968 MEMB     102      POPC     HX       HAL2     0.900000E-01   1.00800           0
     10969 MEMB     102      POPC     HY       HAL2     0.900000E-01   1.00800           0
     10970 MEMB     102      POPC     O31      OSL     -0.490000       15.9994           0
     10971 MEMB     102      POPC     C31      CL       0.900000       12.0110           0
     10972 MEMB     102      POPC     O32      OBL     -0.630000       15.9994           0
     10973 MEMB     102      POPC     C32      CTL2    -0.220000       12.0110           0
     10974 MEMB     102      POPC     H2X      HAL2     0.900000E-01   1.00800           0
     10975 MEMB     102      POPC     H2Y      HAL2     0.900000E-01   1.00800           0
     10976 MEMB     102      POPC     C23      CTL2    -0.180000       12.0110           0
     10977 MEMB     102      POPC     H3R      HAL2     0.900000E-01   1.00800           0
     10978 MEMB     102      POPC     H3S      HAL2     0.900000E-01   1.00800           0
     10979 MEMB     102      POPC     C24      CTL2    -0.180000       12.0110           0
     10980 MEMB     102      POPC     H4R      HAL2     0.900000E-01   1.00800           0
     10981 MEMB     102      POPC     H4S      HAL2     0.900000E-01   1.00800           0
     10982 MEMB     102      POPC     C25      CTL2    -0.180000       12.0110           0
     10983 MEMB     102      POPC     H5R      HAL2     0.900000E-01   1.00800           0
     10984 MEMB     102      POPC     H5S      HAL2     0.900000E-01   1.00800           0
     10985 MEMB     102      POPC     C26      CTL2    -0.180000       12.0110           0
     10986 MEMB     102      POPC     H6R      HAL2     0.900000E-01   1.00800           0
     10987 MEMB     102      POPC     H6S      HAL2     0.900000E-01   1.00800           0
     10988 MEMB     102      POPC     C27      CTL2    -0.180000       12.0110           0
     10989 MEMB     102      POPC     H7R      HAL2     0.900000E-01   1.00800           0
     10990 MEMB     102      POPC     H7S      HAL2     0.900000E-01   1.00800           0
     10991 MEMB     102      POPC     C28      CTL2    -0.180000       12.0110           0
     10992 MEMB     102      POPC     H8R      HAL2     0.900000E-01   1.00800           0
     10993 MEMB     102      POPC     H8S      HAL2     0.900000E-01   1.00800           0
     10994 MEMB     102      POPC     C29      CEL1    -0.150000       12.0110           0
     10995 MEMB     102      POPC     H91      HEL1     0.150000       1.00800           0
     10996 MEMB     102      POPC     C210     CEL1    -0.150000       12.0110           0
     10997 MEMB     102      POPC     H101     HEL1     0.150000       1.00800           0
     10998 MEMB     102      POPC     C211     CTL2    -0.180000       12.0110           0
     10999 MEMB     102      POPC     H11R     HAL2     0.900000E-01   1.00800           0
     11000 MEMB     102      POPC     H11S     HAL2     0.900000E-01   1.00800           0
     11001 MEMB     102      POPC     C212     CTL2    -0.180000       12.0110           0
     11002 MEMB     102      POPC     H12R     HAL2     0.900000E-01   1.00800           0
     11003 MEMB     102      POPC     H12S     HAL2     0.900000E-01   1.00800           0
     11004 MEMB     102      POPC     C213     CTL2    -0.180000       12.0110           0
     11005 MEMB     102      POPC     H13R     HAL2     0.900000E-01   1.00800           0
     11006 MEMB     102      POPC     H13S     HAL2     0.900000E-01   1.00800           0
     11007 MEMB     102      POPC     C214     CTL2    -0.180000       12.0110           0
     11008 MEMB     102      POPC     H14R     HAL2     0.900000E-01   1.00800           0
     11009 MEMB     102      POPC     H14S     HAL2     0.900000E-01   1.00800           0
     11010 MEMB     102      POPC     C215     CTL2    -0.180000       12.0110           0
     11011 MEMB     102      POPC     H15R     HAL2     0.900000E-01   1.00800           0
     11012 MEMB     102      POPC     H15S     HAL2     0.900000E-01   1.00800           0
     11013 MEMB     102      POPC     C216     CTL2    -0.180000       12.0110           0
     11014 MEMB     102      POPC     H16R     HAL2     0.900000E-01   1.00800           0
     11015 MEMB     102      POPC     H16S     HAL2     0.900000E-01   1.00800           0
     11016 MEMB     102      POPC     C217     CTL2    -0.180000       12.0110           0
     11017 MEMB     102      POPC     H17R     HAL2     0.900000E-01   1.00800           0
     11018 MEMB     102      POPC     H17S     HAL2     0.900000E-01   1.00800           0
     11019 MEMB     102      POPC     C218     CTL3    -0.270000       12.0110           0
     11020 MEMB     102      POPC     H18R     HAL3     0.900000E-01   1.00800           0
     11021 MEMB     102      POPC     H18S     HAL3     0.900000E-01   1.00800           0
     11022 MEMB     102      POPC     H18T     HAL3     0.900000E-01   1.00800           0
     11023 MEMB     102      POPC     C33      CTL2    -0.180000       12.0110           0
     11024 MEMB     102      POPC     H3X      HAL2     0.900000E-01   1.00800           0
     11025 MEMB     102      POPC     H3Y      HAL2     0.900000E-01   1.00800           0
     11026 MEMB     102      POPC     C34      CTL2    -0.180000       12.0110           0
     11027 MEMB     102      POPC     H4X      HAL2     0.900000E-01   1.00800           0
     11028 MEMB     102      POPC     H4Y      HAL2     0.900000E-01   1.00800           0
     11029 MEMB     102      POPC     C35      CTL2    -0.180000       12.0110           0
     11030 MEMB     102      POPC     H5X      HAL2     0.900000E-01   1.00800           0
     11031 MEMB     102      POPC     H5Y      HAL2     0.900000E-01   1.00800           0
     11032 MEMB     102      POPC     C36      CTL2    -0.180000       12.0110           0
     11033 MEMB     102      POPC     H6X      HAL2     0.900000E-01   1.00800           0
     11034 MEMB     102      POPC     H6Y      HAL2     0.900000E-01   1.00800           0
     11035 MEMB     102      POPC     C37      CTL2    -0.180000       12.0110           0
     11036 MEMB     102      POPC     H7X      HAL2     0.900000E-01   1.00800           0
     11037 MEMB     102      POPC     H7Y      HAL2     0.900000E-01   1.00800           0
     11038 MEMB     102      POPC     C38      CTL2    -0.180000       12.0110           0
     11039 MEMB     102      POPC     H8X      HAL2     0.900000E-01   1.00800           0
     11040 MEMB     102      POPC     H8Y      HAL2     0.900000E-01   1.00800           0
     11041 MEMB     102      POPC     C39      CTL2    -0.180000       12.0110           0
     11042 MEMB     102      POPC     H9X      HAL2     0.900000E-01   1.00800           0
     11043 MEMB     102      POPC     H9Y      HAL2     0.900000E-01   1.00800           0
     11044 MEMB     102      POPC     C310     CTL2    -0.180000       12.0110           0
     11045 MEMB     102      POPC     H10X     HAL2     0.900000E-01   1.00800           0
     11046 MEMB     102      POPC     H10Y     HAL2     0.900000E-01   1.00800           0
     11047 MEMB     102      POPC     C311     CTL2    -0.180000       12.0110           0
     11048 MEMB     102      POPC     H11X     HAL2     0.900000E-01   1.00800           0
     11049 MEMB     102      POPC     H11Y     HAL2     0.900000E-01   1.00800           0
     11050 MEMB     102      POPC     C312     CTL2    -0.180000       12.0110           0
     11051 MEMB     102      POPC     H12X     HAL2     0.900000E-01   1.00800           0
     11052 MEMB     102      POPC     H12Y     HAL2     0.900000E-01   1.00800           0
     11053 MEMB     102      POPC     C313     CTL2    -0.180000       12.0110           0
     11054 MEMB     102      POPC     H13X     HAL2     0.900000E-01   1.00800           0
     11055 MEMB     102      POPC     H13Y     HAL2     0.900000E-01   1.00800           0
     11056 MEMB     102      POPC     C314     CTL2    -0.180000       12.0110           0
     11057 MEMB     102      POPC     H14X     HAL2     0.900000E-01   1.00800           0
     11058 MEMB     102      POPC     H14Y     HAL2     0.900000E-01   1.00800           0
     11059 MEMB     102      POPC     C315     CTL2    -0.180000       12.0110           0
     11060 MEMB     102      POPC     H15X     HAL2     0.900000E-01   1.00800           0
     11061 MEMB     102      POPC     H15Y     HAL2     0.900000E-01   1.00800           0
     11062 MEMB     102      POPC     C316     CTL3    -0.270000       12.0110           0
     11063 MEMB     102      POPC     H16X     HAL3     0.900000E-01   1.00800           0
     11064 MEMB     102      POPC     H16Y     HAL3     0.900000E-01   1.00800           0
     11065 MEMB     102      POPC     H16Z     HAL3     0.900000E-01   1.00800           0
     11066 MEMB     103      POPE     N        NH3L    -0.300000       14.0070           0
     11067 MEMB     103      POPE     HN1      HCL      0.330000       1.00800           0
     11068 MEMB     103      POPE     HN2      HCL      0.330000       1.00800           0
     11069 MEMB     103      POPE     HN3      HCL      0.330000       1.00800           0
     11070 MEMB     103      POPE     C12      CTL2     0.130000       12.0110           0
     11071 MEMB     103      POPE     H12A     HAL2     0.900000E-01   1.00800           0
     11072 MEMB     103      POPE     H12B     HAL2     0.900000E-01   1.00800           0
     11073 MEMB     103      POPE     C11      CTL2    -0.800000E-01   12.0110           0
     11074 MEMB     103      POPE     H11A     HAL2     0.900000E-01   1.00800           0
     11075 MEMB     103      POPE     H11B     HAL2     0.900000E-01   1.00800           0
     11076 MEMB     103      POPE     P        PL       1.500000       30.9740           0
     11077 MEMB     103      POPE     O13      O2L     -0.780000       15.9994           0
     11078 MEMB     103      POPE     O14      O2L     -0.780000       15.9994           0
     11079 MEMB     103      POPE     O11      OSLP    -0.570000       15.9994           0
     11080 MEMB     103      POPE     O12      OSLP    -0.570000       15.9994           0
     11081 MEMB     103      POPE     C1       CTL2    -0.800000E-01   12.0110           0
     11082 MEMB     103      POPE     HA       HAL2     0.900000E-01   1.00800           0
     11083 MEMB     103      POPE     HB       HAL2     0.900000E-01   1.00800           0
     11084 MEMB     103      POPE     C2       CTL1     0.170000       12.0110           0
     11085 MEMB     103      POPE     HS       HAL1     0.900000E-01   1.00800           0
     11086 MEMB     103      POPE     O21      OSL     -0.490000       15.9994           0
     11087 MEMB     103      POPE     C21      CL       0.900000       12.0110           0
     11088 MEMB     103      POPE     O22      OBL     -0.630000       15.9994           0
     11089 MEMB     103      POPE     C22      CTL2    -0.220000       12.0110           0
     11090 MEMB     103      POPE     H2R      HAL2     0.900000E-01   1.00800           0
     11091 MEMB     103      POPE     H2S      HAL2     0.900000E-01   1.00800           0
     11092 MEMB     103      POPE     C3       CTL2     0.800000E-01   12.0110           0
     11093 MEMB     103      POPE     HX       HAL2     0.900000E-01   1.00800           0
     11094 MEMB     103      POPE     HY       HAL2     0.900000E-01   1.00800           0
     11095 MEMB     103      POPE     O31      OSL     -0.490000       15.9994           0
     11096 MEMB     103      POPE     C31      CL       0.900000       12.0110           0
     11097 MEMB     103      POPE     O32      OBL     -0.630000       15.9994           0
     11098 MEMB     103      POPE     C32      CTL2    -0.220000       12.0110           0
     11099 MEMB     103      POPE     H2X      HAL2     0.900000E-01   1.00800           0
     11100 MEMB     103      POPE     H2Y      HAL2     0.900000E-01   1.00800           0
     11101 MEMB     103      POPE     C23      CTL2    -0.180000       12.0110           0
     11102 MEMB     103      POPE     H3R      HAL2     0.900000E-01   1.00800           0
     11103 MEMB     103      POPE     H3S      HAL2     0.900000E-01   1.00800           0
     11104 MEMB     103      POPE     C24      CTL2    -0.180000       12.0110           0
     11105 MEMB     103      POPE     H4R      HAL2     0.900000E-01   1.00800           0
     11106 MEMB     103      POPE     H4S      HAL2     0.900000E-01   1.00800           0
     11107 MEMB     103      POPE     C25      CTL2    -0.180000       12.0110           0
     11108 MEMB     103      POPE     H5R      HAL2     0.900000E-01   1.00800           0
     11109 MEMB     103      POPE     H5S      HAL2     0.900000E-01   1.00800           0
     11110 MEMB     103      POPE     C26      CTL2    -0.180000       12.0110           0
     11111 MEMB     103      POPE     H6R      HAL2     0.900000E-01   1.00800           0
     11112 MEMB     103      POPE     H6S      HAL2     0.900000E-01   1.00800           0
     11113 MEMB     103      POPE     C27      CTL2    -0.180000       12.0110           0
     11114 MEMB     103      POPE     H7R      HAL2     0.900000E-01   1.00800           0
     11115 MEMB     103      POPE     H7S      HAL2     0.900000E-01   1.00800           0
     11116 MEMB     103      POPE     C28      CTL2    -0.180000       12.0110           0
     11117 MEMB     103      POPE     H8R      HAL2     0.900000E-01   1.00800           0
     11118 MEMB     103      POPE     H8S      HAL2     0.900000E-01   1.00800           0
     11119 MEMB     103      POPE     C29      CEL1    -0.150000       12.0110           0
     11120 MEMB     103      POPE     H91      HEL1     0.150000       1.00800           0
     11121 MEMB     103      POPE     C210     CEL1    -0.150000       12.0110           0
     11122 MEMB     103      POPE     H101     HEL1     0.150000       1.00800           0
     11123 MEMB     103      POPE     C211     CTL2    -0.180000       12.0110           0
     11124 MEMB     103      POPE     H11R     HAL2     0.900000E-01   1.00800           0
     11125 MEMB     103      POPE     H11S     HAL2     0.900000E-01   1.00800           0
     11126 MEMB     103      POPE     C212     CTL2    -0.180000       12.0110           0
     11127 MEMB     103      POPE     H12R     HAL2     0.900000E-01   1.00800           0
     11128 MEMB     103      POPE     H12S     HAL2     0.900000E-01   1.00800           0
     11129 MEMB     103      POPE     C213     CTL2    -0.180000       12.0110           0
     11130 MEMB     103      POPE     H13R     HAL2     0.900000E-01   1.00800           0
     11131 MEMB     103      POPE     H13S     HAL2     0.900000E-01   1.00800           0
     11132 MEMB     103      POPE     C214     CTL2    -0.180000       12.0110           0
     11133 MEMB     103      POPE     H14R     HAL2     0.900000E-01   1.00800           0
     11134 MEMB     103      POPE     H14S     HAL2     0.900000E-01   1.00800           0
     11135 MEMB     103      POPE     C215     CTL2    -0.180000       12.0110           0
     11136 MEMB     103      POPE     H15R     HAL2     0.900000E-01   1.00800           0
     11137 MEMB     103      POPE     H15S     HAL2     0.900000E-01   1.00800           0
     11138 MEMB     103      POPE     C216     CTL2    -0.180000       12.0110           0
     11139 MEMB     103      POPE     H16R     HAL2     0.900000E-01   1.00800           0
     11140 MEMB     103      POPE     H16S     HAL2     0.900000E-01   1.00800           0
     11141 MEMB     103      POPE     C217     CTL2    -0.180000       12.0110           0
     11142 MEMB     103      POPE     H17R     HAL2     0.900000E-01   1.00800           0
     11143 MEMB     103      POPE     H17S     HAL2     0.900000E-01   1.00800           0
     11144 MEMB     103      POPE     C218     CTL3    -0.270000       12.0110           0
     11145 MEMB     103      POPE     H18R     HAL3     0.900000E-01   1.00800           0
     11146 MEMB     103      POPE     H18S     HAL3     0.900000E-01   1.00800           0
     11147 MEMB     103      POPE     H18T     HAL3     0.900000E-01   1.00800           0
     11148 MEMB     103      POPE     C33      CTL2    -0.180000       12.0110           0
     11149 MEMB     103      POPE     H3X      HAL2     0.900000E-01   1.00800           0
     11150 MEMB     103      POPE     H3Y      HAL2     0.900000E-01   1.00800           0
     11151 MEMB     103      POPE     C34      CTL2    -0.180000       12.0110           0
     11152 MEMB     103      POPE     H4X      HAL2     0.900000E-01   1.00800           0
     11153 MEMB     103      POPE     H4Y      HAL2     0.900000E-01   1.00800           0
     11154 MEMB     103      POPE     C35      CTL2    -0.180000       12.0110           0
     11155 MEMB     103      POPE     H5X      HAL2     0.900000E-01   1.00800           0
     11156 MEMB     103      POPE     H5Y      HAL2     0.900000E-01   1.00800           0
     11157 MEMB     103      POPE     C36      CTL2    -0.180000       12.0110           0
     11158 MEMB     103      POPE     H6X      HAL2     0.900000E-01   1.00800           0
     11159 MEMB     103      POPE     H6Y      HAL2     0.900000E-01   1.00800           0
     11160 MEMB     103      POPE     C37      CTL2    -0.180000       12.0110           0
     11161 MEMB     103      POPE     H7X      HAL2     0.900000E-01   1.00800           0
     11162 MEMB     103      POPE     H7Y      HAL2     0.900000E-01   1.00800           0
     11163 MEMB     103      POPE     C38      CTL2    -0.180000       12.0110           0
     11164 MEMB     103      POPE     H8X      HAL2     0.900000E-01   1.00800           0
     11165 MEMB     103      POPE     H8Y      HAL2     0.900000E-01   1.00800           0
     11166 MEMB     103      POPE     C39      CTL2    -0.180000       12.0110           0
     11167 MEMB     103      POPE     H9X      HAL2     0.900000E-01   1.00800           0
     11168 MEMB     103      POPE     H9Y      HAL2     0.900000E-01   1.00800           0
     11169 MEMB     103      POPE     C310     CTL2    -0.180000       12.0110           0
     11170 MEMB     103      POPE     H10X     HAL2     0.900000E-01   1.00800           0
     11171 MEMB     103      POPE     H10Y     HAL2     0.900000E-01   1.00800           0
     11172 MEMB     103      POPE     C311     CTL2    -0.180000       12.0110           0
     11173 MEMB     103      POPE     H11X     HAL2     0.900000E-01   1.00800           0
     11174 MEMB     103      POPE     H11Y     HAL2     0.900000E-01   1.00800           0
     11175 MEMB     103      POPE     C312     CTL2    -0.180000       12.0110           0
     11176 MEMB     103      POPE     H12X     HAL2     0.900000E-01   1.00800           0
     11177 MEMB     103      POPE     H12Y     HAL2     0.900000E-01   1.00800           0
     11178 MEMB     103      POPE     C313     CTL2    -0.180000       12.0110           0
     11179 MEMB     103      POPE     H13X     HAL2     0.900000E-01   1.00800           0
     11180 MEMB     103      POPE     H13Y     HAL2     0.900000E-01   1.00800           0
     11181 MEMB     103      POPE     C314     CTL2    -0.180000       12.0110           0
     11182 MEMB     103      POPE     H14X     HAL2     0.900000E-01   1.00800           0
     11183 MEMB     103      POPE     H14Y     HAL2     0.900000E-01   1.00800           0
     11184 MEMB     103      POPE     C315     CTL2    -0.180000       12.0110           0
     11185 MEMB     103      POPE     H15X     HAL2     0.900000E-01   1.00800           0
     11186 MEMB     103      POPE     H15Y     HAL2     0.900000E-01   1.00800           0
     11187 MEMB     103      POPE     C316     CTL3    -0.270000       12.0110           0
     11188 MEMB     103      POPE     H16X     HAL3     0.900000E-01   1.00800           0
     11189 MEMB     103      POPE     H16Y     HAL3     0.900000E-01   1.00800           0
     11190 MEMB     103      POPE     H16Z     HAL3     0.900000E-01   1.00800           0
     11191 MEMB     104      POPC     N        NTL     -0.600000       14.0070           0
     11192 MEMB     104      POPC     C12      CTL2    -0.100000       12.0110           0
     11193 MEMB     104      POPC     H12A     HL       0.250000       1.00800           0
     11194 MEMB     104      POPC     H12B     HL       0.250000       1.00800           0
     11195 MEMB     104      POPC     C13      CTL5    -0.350000       12.0110           0
     11196 MEMB     104      POPC     H13A     HL       0.250000       1.00800           0
     11197 MEMB     104      POPC     H13B     HL       0.250000       1.00800           0
     11198 MEMB     104      POPC     H13C     HL       0.250000       1.00800           0
     11199 MEMB     104      POPC     C14      CTL5    -0.350000       12.0110           0
     11200 MEMB     104      POPC     H14A     HL       0.250000       1.00800           0
     11201 MEMB     104      POPC     H14B     HL       0.250000       1.00800           0
     11202 MEMB     104      POPC     H14C     HL       0.250000       1.00800           0
     11203 MEMB     104      POPC     C15      CTL5    -0.350000       12.0110           0
     11204 MEMB     104      POPC     H15A     HL       0.250000       1.00800           0
     11205 MEMB     104      POPC     H15B     HL       0.250000       1.00800           0
     11206 MEMB     104      POPC     H15C     HL       0.250000       1.00800           0
     11207 MEMB     104      POPC     C11      CTL2    -0.800000E-01   12.0110           0
     11208 MEMB     104      POPC     H11A     HAL2     0.900000E-01   1.00800           0
     11209 MEMB     104      POPC     H11B     HAL2     0.900000E-01   1.00800           0
     11210 MEMB     104      POPC     P        PL       1.500000       30.9740           0
     11211 MEMB     104      POPC     O13      O2L     -0.780000       15.9994           0
     11212 MEMB     104      POPC     O14      O2L     -0.780000       15.9994           0
     11213 MEMB     104      POPC     O12      OSLP    -0.570000       15.9994           0
     11214 MEMB     104      POPC     O11      OSLP    -0.570000       15.9994           0
     11215 MEMB     104      POPC     C1       CTL2    -0.800000E-01   12.0110           0
     11216 MEMB     104      POPC     HA       HAL2     0.900000E-01   1.00800           0
     11217 MEMB     104      POPC     HB       HAL2     0.900000E-01   1.00800           0
     11218 MEMB     104      POPC     C2       CTL1     0.170000       12.0110           0
     11219 MEMB     104      POPC     HS       HAL1     0.900000E-01   1.00800           0
     11220 MEMB     104      POPC     O21      OSL     -0.490000       15.9994           0
     11221 MEMB     104      POPC     C21      CL       0.900000       12.0110           0
     11222 MEMB     104      POPC     O22      OBL     -0.630000       15.9994           0
     11223 MEMB     104      POPC     C22      CTL2    -0.220000       12.0110           0
     11224 MEMB     104      POPC     H2R      HAL2     0.900000E-01   1.00800           0
     11225 MEMB     104      POPC     H2S      HAL2     0.900000E-01   1.00800           0
     11226 MEMB     104      POPC     C3       CTL2     0.800000E-01   12.0110           0
     11227 MEMB     104      POPC     HX       HAL2     0.900000E-01   1.00800           0
     11228 MEMB     104      POPC     HY       HAL2     0.900000E-01   1.00800           0
     11229 MEMB     104      POPC     O31      OSL     -0.490000       15.9994           0
     11230 MEMB     104      POPC     C31      CL       0.900000       12.0110           0
     11231 MEMB     104      POPC     O32      OBL     -0.630000       15.9994           0
     11232 MEMB     104      POPC     C32      CTL2    -0.220000       12.0110           0
     11233 MEMB     104      POPC     H2X      HAL2     0.900000E-01   1.00800           0
     11234 MEMB     104      POPC     H2Y      HAL2     0.900000E-01   1.00800           0
     11235 MEMB     104      POPC     C23      CTL2    -0.180000       12.0110           0
     11236 MEMB     104      POPC     H3R      HAL2     0.900000E-01   1.00800           0
     11237 MEMB     104      POPC     H3S      HAL2     0.900000E-01   1.00800           0
     11238 MEMB     104      POPC     C24      CTL2    -0.180000       12.0110           0
     11239 MEMB     104      POPC     H4R      HAL2     0.900000E-01   1.00800           0
     11240 MEMB     104      POPC     H4S      HAL2     0.900000E-01   1.00800           0
     11241 MEMB     104      POPC     C25      CTL2    -0.180000       12.0110           0
     11242 MEMB     104      POPC     H5R      HAL2     0.900000E-01   1.00800           0
     11243 MEMB     104      POPC     H5S      HAL2     0.900000E-01   1.00800           0
     11244 MEMB     104      POPC     C26      CTL2    -0.180000       12.0110           0
     11245 MEMB     104      POPC     H6R      HAL2     0.900000E-01   1.00800           0
     11246 MEMB     104      POPC     H6S      HAL2     0.900000E-01   1.00800           0
     11247 MEMB     104      POPC     C27      CTL2    -0.180000       12.0110           0
     11248 MEMB     104      POPC     H7R      HAL2     0.900000E-01   1.00800           0
     11249 MEMB     104      POPC     H7S      HAL2     0.900000E-01   1.00800           0
     11250 MEMB     104      POPC     C28      CTL2    -0.180000       12.0110           0
     11251 MEMB     104      POPC     H8R      HAL2     0.900000E-01   1.00800           0
     11252 MEMB     104      POPC     H8S      HAL2     0.900000E-01   1.00800           0
     11253 MEMB     104      POPC     C29      CEL1    -0.150000       12.0110           0
     11254 MEMB     104      POPC     H91      HEL1     0.150000       1.00800           0
     11255 MEMB     104      POPC     C210     CEL1    -0.150000       12.0110           0
     11256 MEMB     104      POPC     H101     HEL1     0.150000       1.00800           0
     11257 MEMB     104      POPC     C211     CTL2    -0.180000       12.0110           0
     11258 MEMB     104      POPC     H11R     HAL2     0.900000E-01   1.00800           0
     11259 MEMB     104      POPC     H11S     HAL2     0.900000E-01   1.00800           0
     11260 MEMB     104      POPC     C212     CTL2    -0.180000       12.0110           0
     11261 MEMB     104      POPC     H12R     HAL2     0.900000E-01   1.00800           0
     11262 MEMB     104      POPC     H12S     HAL2     0.900000E-01   1.00800           0
     11263 MEMB     104      POPC     C213     CTL2    -0.180000       12.0110           0
     11264 MEMB     104      POPC     H13R     HAL2     0.900000E-01   1.00800           0
     11265 MEMB     104      POPC     H13S     HAL2     0.900000E-01   1.00800           0
     11266 MEMB     104      POPC     C214     CTL2    -0.180000       12.0110           0
     11267 MEMB     104      POPC     H14R     HAL2     0.900000E-01   1.00800           0
     11268 MEMB     104      POPC     H14S     HAL2     0.900000E-01   1.00800           0
     11269 MEMB     104      POPC     C215     CTL2    -0.180000       12.0110           0
     11270 MEMB     104      POPC     H15R     HAL2     0.900000E-01   1.00800           0
     11271 MEMB     104      POPC     H15S     HAL2     0.900000E-01   1.00800           0
     11272 MEMB     104      POPC     C216     CTL2    -0.180000       12.0110           0
     11273 MEMB     104      POPC     H16R     HAL2     0.900000E-01   1.00800           0
     11274 MEMB     104      POPC     H16S     HAL2     0.900000E-01   1.00800           0
     11275 MEMB     104      POPC     C217     CTL2    -0.180000       12.0110           0
     11276 MEMB     104      POPC     H17R     HAL2     0.900000E-01   1.00800           0
     11277 MEMB     104      POPC     H17S     HAL2     0.900000E-01   1.00800           0
     11278 MEMB     104      POPC     C218     CTL3    -0.270000       12.0110           0
     11279 MEMB     104      POPC     H18R     HAL3     0.900000E-01   1.00800           0
     11280 MEMB     104      POPC     H18S     HAL3     0.900000E-01   1.00800           0
     11281 MEMB     104      POPC     H18T     HAL3     0.900000E-01   1.00800           0
     11282 MEMB     104      POPC     C33      CTL2    -0.180000       12.0110           0
     11283 MEMB     104      POPC     H3X      HAL2     0.900000E-01   1.00800           0
     11284 MEMB     104      POPC     H3Y      HAL2     0.900000E-01   1.00800           0
     11285 MEMB     104      POPC     C34      CTL2    -0.180000       12.0110           0
     11286 MEMB     104      POPC     H4X      HAL2     0.900000E-01   1.00800           0
     11287 MEMB     104      POPC     H4Y      HAL2     0.900000E-01   1.00800           0
     11288 MEMB     104      POPC     C35      CTL2    -0.180000       12.0110           0
     11289 MEMB     104      POPC     H5X      HAL2     0.900000E-01   1.00800           0
     11290 MEMB     104      POPC     H5Y      HAL2     0.900000E-01   1.00800           0
     11291 MEMB     104      POPC     C36      CTL2    -0.180000       12.0110           0
     11292 MEMB     104      POPC     H6X      HAL2     0.900000E-01   1.00800           0
     11293 MEMB     104      POPC     H6Y      HAL2     0.900000E-01   1.00800           0
     11294 MEMB     104      POPC     C37      CTL2    -0.180000       12.0110           0
     11295 MEMB     104      POPC     H7X      HAL2     0.900000E-01   1.00800           0
     11296 MEMB     104      POPC     H7Y      HAL2     0.900000E-01   1.00800           0
     11297 MEMB     104      POPC     C38      CTL2    -0.180000       12.0110           0
     11298 MEMB     104      POPC     H8X      HAL2     0.900000E-01   1.00800           0
     11299 MEMB     104      POPC     H8Y      HAL2     0.900000E-01   1.00800           0
     11300 MEMB     104      POPC     C39      CTL2    -0.180000       12.0110           0
     11301 MEMB     104      POPC     H9X      HAL2     0.900000E-01   1.00800           0
     11302 MEMB     104      POPC     H9Y      HAL2     0.900000E-01   1.00800           0
     11303 MEMB     104      POPC     C310     CTL2    -0.180000       12.0110           0
     11304 MEMB     104      POPC     H10X     HAL2     0.900000E-01   1.00800           0
     11305 MEMB     104      POPC     H10Y     HAL2     0.900000E-01   1.00800           0
     11306 MEMB     104      POPC     C311     CTL2    -0.180000       12.0110           0
     11307 MEMB     104      POPC     H11X     HAL2     0.900000E-01   1.00800           0
     11308 MEMB     104      POPC     H11Y     HAL2     0.900000E-01   1.00800           0
     11309 MEMB     104      POPC     C312     CTL2    -0.180000       12.0110           0
     11310 MEMB     104      POPC     H12X     HAL2     0.900000E-01   1.00800           0
     11311 MEMB     104      POPC     H12Y     HAL2     0.900000E-01   1.00800           0
     11312 MEMB     104      POPC     C313     CTL2    -0.180000       12.0110           0
     11313 MEMB     104      POPC     H13X     HAL2     0.900000E-01   1.00800           0
     11314 MEMB     104      POPC     H13Y     HAL2     0.900000E-01   1.00800           0
     11315 MEMB     104      POPC     C314     CTL2    -0.180000       12.0110           0
     11316 MEMB     104      POPC     H14X     HAL2     0.900000E-01   1.00800           0
     11317 MEMB     104      POPC     H14Y     HAL2     0.900000E-01   1.00800           0
     11318 MEMB     104      POPC     C315     CTL2    -0.180000       12.0110           0
     11319 MEMB     104      POPC     H15X     HAL2     0.900000E-01   1.00800           0
     11320 MEMB     104      POPC     H15Y     HAL2     0.900000E-01   1.00800           0
     11321 MEMB     104      POPC     C316     CTL3    -0.270000       12.0110           0
     11322 MEMB     104      POPC     H16X     HAL3     0.900000E-01   1.00800           0
     11323 MEMB     104      POPC     H16Y     HAL3     0.900000E-01   1.00800           0
     11324 MEMB     104      POPC     H16Z     HAL3     0.900000E-01   1.00800           0
     11325 MEMB     105      POPE     N        NH3L    -0.300000       14.0070           0
     11326 MEMB     105      POPE     HN1      HCL      0.330000       1.00800           0
     11327 MEMB     105      POPE     HN2      HCL      0.330000       1.00800           0
     11328 MEMB     105      POPE     HN3      HCL      0.330000       1.00800           0
     11329 MEMB     105      POPE     C12      CTL2     0.130000       12.0110           0
     11330 MEMB     105      POPE     H12A     HAL2     0.900000E-01   1.00800           0
     11331 MEMB     105      POPE     H12B     HAL2     0.900000E-01   1.00800           0
     11332 MEMB     105      POPE     C11      CTL2    -0.800000E-01   12.0110           0
     11333 MEMB     105      POPE     H11A     HAL2     0.900000E-01   1.00800           0
     11334 MEMB     105      POPE     H11B     HAL2     0.900000E-01   1.00800           0
     11335 MEMB     105      POPE     P        PL       1.500000       30.9740           0
     11336 MEMB     105      POPE     O13      O2L     -0.780000       15.9994           0
     11337 MEMB     105      POPE     O14      O2L     -0.780000       15.9994           0
     11338 MEMB     105      POPE     O11      OSLP    -0.570000       15.9994           0
     11339 MEMB     105      POPE     O12      OSLP    -0.570000       15.9994           0
     11340 MEMB     105      POPE     C1       CTL2    -0.800000E-01   12.0110           0
     11341 MEMB     105      POPE     HA       HAL2     0.900000E-01   1.00800           0
     11342 MEMB     105      POPE     HB       HAL2     0.900000E-01   1.00800           0
     11343 MEMB     105      POPE     C2       CTL1     0.170000       12.0110           0
     11344 MEMB     105      POPE     HS       HAL1     0.900000E-01   1.00800           0
     11345 MEMB     105      POPE     O21      OSL     -0.490000       15.9994           0
     11346 MEMB     105      POPE     C21      CL       0.900000       12.0110           0
     11347 MEMB     105      POPE     O22      OBL     -0.630000       15.9994           0
     11348 MEMB     105      POPE     C22      CTL2    -0.220000       12.0110           0
     11349 MEMB     105      POPE     H2R      HAL2     0.900000E-01   1.00800           0
     11350 MEMB     105      POPE     H2S      HAL2     0.900000E-01   1.00800           0
     11351 MEMB     105      POPE     C3       CTL2     0.800000E-01   12.0110           0
     11352 MEMB     105      POPE     HX       HAL2     0.900000E-01   1.00800           0
     11353 MEMB     105      POPE     HY       HAL2     0.900000E-01   1.00800           0
     11354 MEMB     105      POPE     O31      OSL     -0.490000       15.9994           0
     11355 MEMB     105      POPE     C31      CL       0.900000       12.0110           0
     11356 MEMB     105      POPE     O32      OBL     -0.630000       15.9994           0
     11357 MEMB     105      POPE     C32      CTL2    -0.220000       12.0110           0
     11358 MEMB     105      POPE     H2X      HAL2     0.900000E-01   1.00800           0
     11359 MEMB     105      POPE     H2Y      HAL2     0.900000E-01   1.00800           0
     11360 MEMB     105      POPE     C23      CTL2    -0.180000       12.0110           0
     11361 MEMB     105      POPE     H3R      HAL2     0.900000E-01   1.00800           0
     11362 MEMB     105      POPE     H3S      HAL2     0.900000E-01   1.00800           0
     11363 MEMB     105      POPE     C24      CTL2    -0.180000       12.0110           0
     11364 MEMB     105      POPE     H4R      HAL2     0.900000E-01   1.00800           0
     11365 MEMB     105      POPE     H4S      HAL2     0.900000E-01   1.00800           0
     11366 MEMB     105      POPE     C25      CTL2    -0.180000       12.0110           0
     11367 MEMB     105      POPE     H5R      HAL2     0.900000E-01   1.00800           0
     11368 MEMB     105      POPE     H5S      HAL2     0.900000E-01   1.00800           0
     11369 MEMB     105      POPE     C26      CTL2    -0.180000       12.0110           0
     11370 MEMB     105      POPE     H6R      HAL2     0.900000E-01   1.00800           0
     11371 MEMB     105      POPE     H6S      HAL2     0.900000E-01   1.00800           0
     11372 MEMB     105      POPE     C27      CTL2    -0.180000       12.0110           0
     11373 MEMB     105      POPE     H7R      HAL2     0.900000E-01   1.00800           0
     11374 MEMB     105      POPE     H7S      HAL2     0.900000E-01   1.00800           0
     11375 MEMB     105      POPE     C28      CTL2    -0.180000       12.0110           0
     11376 MEMB     105      POPE     H8R      HAL2     0.900000E-01   1.00800           0
     11377 MEMB     105      POPE     H8S      HAL2     0.900000E-01   1.00800           0
     11378 MEMB     105      POPE     C29      CEL1    -0.150000       12.0110           0
     11379 MEMB     105      POPE     H91      HEL1     0.150000       1.00800           0
     11380 MEMB     105      POPE     C210     CEL1    -0.150000       12.0110           0
     11381 MEMB     105      POPE     H101     HEL1     0.150000       1.00800           0
     11382 MEMB     105      POPE     C211     CTL2    -0.180000       12.0110           0
     11383 MEMB     105      POPE     H11R     HAL2     0.900000E-01   1.00800           0
     11384 MEMB     105      POPE     H11S     HAL2     0.900000E-01   1.00800           0
     11385 MEMB     105      POPE     C212     CTL2    -0.180000       12.0110           0
     11386 MEMB     105      POPE     H12R     HAL2     0.900000E-01   1.00800           0
     11387 MEMB     105      POPE     H12S     HAL2     0.900000E-01   1.00800           0
     11388 MEMB     105      POPE     C213     CTL2    -0.180000       12.0110           0
     11389 MEMB     105      POPE     H13R     HAL2     0.900000E-01   1.00800           0
     11390 MEMB     105      POPE     H13S     HAL2     0.900000E-01   1.00800           0
     11391 MEMB     105      POPE     C214     CTL2    -0.180000       12.0110           0
     11392 MEMB     105      POPE     H14R     HAL2     0.900000E-01   1.00800           0
     11393 MEMB     105      POPE     H14S     HAL2     0.900000E-01   1.00800           0
     11394 MEMB     105      POPE     C215     CTL2    -0.180000       12.0110           0
     11395 MEMB     105      POPE     H15R     HAL2     0.900000E-01   1.00800           0
     11396 MEMB     105      POPE     H15S     HAL2     0.900000E-01   1.00800           0
     11397 MEMB     105      POPE     C216     CTL2    -0.180000       12.0110           0
     11398 MEMB     105      POPE     H16R     HAL2     0.900000E-01   1.00800           0
     11399 MEMB     105      POPE     H16S     HAL2     0.900000E-01   1.00800           0
     11400 MEMB     105      POPE     C217     CTL2    -0.180000       12.0110           0
     11401 MEMB     105      POPE     H17R     HAL2     0.900000E-01   1.00800           0
     11402 MEMB     105      POPE     H17S     HAL2     0.900000E-01   1.00800           0
     11403 MEMB     105      POPE     C218     CTL3    -0.270000       12.0110           0
     11404 MEMB     105      POPE     H18R     HAL3     0.900000E-01   1.00800           0
     11405 MEMB     105      POPE     H18S     HAL3     0.900000E-01   1.00800           0
     11406 MEMB     105      POPE     H18T     HAL3     0.900000E-01   1.00800           0
     11407 MEMB     105      POPE     C33      CTL2    -0.180000       12.0110           0
     11408 MEMB     105      POPE     H3X      HAL2     0.900000E-01   1.00800           0
     11409 MEMB     105      POPE     H3Y      HAL2     0.900000E-01   1.00800           0
     11410 MEMB     105      POPE     C34      CTL2    -0.180000       12.0110           0
     11411 MEMB     105      POPE     H4X      HAL2     0.900000E-01   1.00800           0
     11412 MEMB     105      POPE     H4Y      HAL2     0.900000E-01   1.00800           0
     11413 MEMB     105      POPE     C35      CTL2    -0.180000       12.0110           0
     11414 MEMB     105      POPE     H5X      HAL2     0.900000E-01   1.00800           0
     11415 MEMB     105      POPE     H5Y      HAL2     0.900000E-01   1.00800           0
     11416 MEMB     105      POPE     C36      CTL2    -0.180000       12.0110           0
     11417 MEMB     105      POPE     H6X      HAL2     0.900000E-01   1.00800           0
     11418 MEMB     105      POPE     H6Y      HAL2     0.900000E-01   1.00800           0
     11419 MEMB     105      POPE     C37      CTL2    -0.180000       12.0110           0
     11420 MEMB     105      POPE     H7X      HAL2     0.900000E-01   1.00800           0
     11421 MEMB     105      POPE     H7Y      HAL2     0.900000E-01   1.00800           0
     11422 MEMB     105      POPE     C38      CTL2    -0.180000       12.0110           0
     11423 MEMB     105      POPE     H8X      HAL2     0.900000E-01   1.00800           0
     11424 MEMB     105      POPE     H8Y      HAL2     0.900000E-01   1.00800           0
     11425 MEMB     105      POPE     C39      CTL2    -0.180000       12.0110           0
     11426 MEMB     105      POPE     H9X      HAL2     0.900000E-01   1.00800           0
     11427 MEMB     105      POPE     H9Y      HAL2     0.900000E-01   1.00800           0
     11428 MEMB     105      POPE     C310     CTL2    -0.180000       12.0110           0
     11429 MEMB     105      POPE     H10X     HAL2     0.900000E-01   1.00800           0
     11430 MEMB     105      POPE     H10Y     HAL2     0.900000E-01   1.00800           0
     11431 MEMB     105      POPE     C311     CTL2    -0.180000       12.0110           0
     11432 MEMB     105      POPE     H11X     HAL2     0.900000E-01   1.00800           0
     11433 MEMB     105      POPE     H11Y     HAL2     0.900000E-01   1.00800           0
     11434 MEMB     105      POPE     C312     CTL2    -0.180000       12.0110           0
     11435 MEMB     105      POPE     H12X     HAL2     0.900000E-01   1.00800           0
     11436 MEMB     105      POPE     H12Y     HAL2     0.900000E-01   1.00800           0
     11437 MEMB     105      POPE     C313     CTL2    -0.180000       12.0110           0
     11438 MEMB     105      POPE     H13X     HAL2     0.900000E-01   1.00800           0
     11439 MEMB     105      POPE     H13Y     HAL2     0.900000E-01   1.00800           0
     11440 MEMB     105      POPE     C314     CTL2    -0.180000       12.0110           0
     11441 MEMB     105      POPE     H14X     HAL2     0.900000E-01   1.00800           0
     11442 MEMB     105      POPE     H14Y     HAL2     0.900000E-01   1.00800           0
     11443 MEMB     105      POPE     C315     CTL2    -0.180000       12.0110           0
     11444 MEMB     105      POPE     H15X     HAL2     0.900000E-01   1.00800           0
     11445 MEMB     105      POPE     H15Y     HAL2     0.900000E-01   1.00800           0
     11446 MEMB     105      POPE     C316     CTL3    -0.270000       12.0110           0
     11447 MEMB     105      POPE     H16X     HAL3     0.900000E-01   1.00800           0
     11448 MEMB     105      POPE     H16Y     HAL3     0.900000E-01   1.00800           0
     11449 MEMB     105      POPE     H16Z     HAL3     0.900000E-01   1.00800           0
     11450 MEMB     106      POPE     N        NH3L    -0.300000       14.0070           0
     11451 MEMB     106      POPE     HN1      HCL      0.330000       1.00800           0
     11452 MEMB     106      POPE     HN2      HCL      0.330000       1.00800           0
     11453 MEMB     106      POPE     HN3      HCL      0.330000       1.00800           0
     11454 MEMB     106      POPE     C12      CTL2     0.130000       12.0110           0
     11455 MEMB     106      POPE     H12A     HAL2     0.900000E-01   1.00800           0
     11456 MEMB     106      POPE     H12B     HAL2     0.900000E-01   1.00800           0
     11457 MEMB     106      POPE     C11      CTL2    -0.800000E-01   12.0110           0
     11458 MEMB     106      POPE     H11A     HAL2     0.900000E-01   1.00800           0
     11459 MEMB     106      POPE     H11B     HAL2     0.900000E-01   1.00800           0
     11460 MEMB     106      POPE     P        PL       1.500000       30.9740           0
     11461 MEMB     106      POPE     O13      O2L     -0.780000       15.9994           0
     11462 MEMB     106      POPE     O14      O2L     -0.780000       15.9994           0
     11463 MEMB     106      POPE     O11      OSLP    -0.570000       15.9994           0
     11464 MEMB     106      POPE     O12      OSLP    -0.570000       15.9994           0
     11465 MEMB     106      POPE     C1       CTL2    -0.800000E-01   12.0110           0
     11466 MEMB     106      POPE     HA       HAL2     0.900000E-01   1.00800           0
     11467 MEMB     106      POPE     HB       HAL2     0.900000E-01   1.00800           0
     11468 MEMB     106      POPE     C2       CTL1     0.170000       12.0110           0
     11469 MEMB     106      POPE     HS       HAL1     0.900000E-01   1.00800           0
     11470 MEMB     106      POPE     O21      OSL     -0.490000       15.9994           0
     11471 MEMB     106      POPE     C21      CL       0.900000       12.0110           0
     11472 MEMB     106      POPE     O22      OBL     -0.630000       15.9994           0
     11473 MEMB     106      POPE     C22      CTL2    -0.220000       12.0110           0
     11474 MEMB     106      POPE     H2R      HAL2     0.900000E-01   1.00800           0
     11475 MEMB     106      POPE     H2S      HAL2     0.900000E-01   1.00800           0
     11476 MEMB     106      POPE     C3       CTL2     0.800000E-01   12.0110           0
     11477 MEMB     106      POPE     HX       HAL2     0.900000E-01   1.00800           0
     11478 MEMB     106      POPE     HY       HAL2     0.900000E-01   1.00800           0
     11479 MEMB     106      POPE     O31      OSL     -0.490000       15.9994           0
     11480 MEMB     106      POPE     C31      CL       0.900000       12.0110           0
     11481 MEMB     106      POPE     O32      OBL     -0.630000       15.9994           0
     11482 MEMB     106      POPE     C32      CTL2    -0.220000       12.0110           0
     11483 MEMB     106      POPE     H2X      HAL2     0.900000E-01   1.00800           0
     11484 MEMB     106      POPE     H2Y      HAL2     0.900000E-01   1.00800           0
     11485 MEMB     106      POPE     C23      CTL2    -0.180000       12.0110           0
     11486 MEMB     106      POPE     H3R      HAL2     0.900000E-01   1.00800           0
     11487 MEMB     106      POPE     H3S      HAL2     0.900000E-01   1.00800           0
     11488 MEMB     106      POPE     C24      CTL2    -0.180000       12.0110           0
     11489 MEMB     106      POPE     H4R      HAL2     0.900000E-01   1.00800           0
     11490 MEMB     106      POPE     H4S      HAL2     0.900000E-01   1.00800           0
     11491 MEMB     106      POPE     C25      CTL2    -0.180000       12.0110           0
     11492 MEMB     106      POPE     H5R      HAL2     0.900000E-01   1.00800           0
     11493 MEMB     106      POPE     H5S      HAL2     0.900000E-01   1.00800           0
     11494 MEMB     106      POPE     C26      CTL2    -0.180000       12.0110           0
     11495 MEMB     106      POPE     H6R      HAL2     0.900000E-01   1.00800           0
     11496 MEMB     106      POPE     H6S      HAL2     0.900000E-01   1.00800           0
     11497 MEMB     106      POPE     C27      CTL2    -0.180000       12.0110           0
     11498 MEMB     106      POPE     H7R      HAL2     0.900000E-01   1.00800           0
     11499 MEMB     106      POPE     H7S      HAL2     0.900000E-01   1.00800           0
     11500 MEMB     106      POPE     C28      CTL2    -0.180000       12.0110           0
     11501 MEMB     106      POPE     H8R      HAL2     0.900000E-01   1.00800           0
     11502 MEMB     106      POPE     H8S      HAL2     0.900000E-01   1.00800           0
     11503 MEMB     106      POPE     C29      CEL1    -0.150000       12.0110           0
     11504 MEMB     106      POPE     H91      HEL1     0.150000       1.00800           0
     11505 MEMB     106      POPE     C210     CEL1    -0.150000       12.0110           0
     11506 MEMB     106      POPE     H101     HEL1     0.150000       1.00800           0
     11507 MEMB     106      POPE     C211     CTL2    -0.180000       12.0110           0
     11508 MEMB     106      POPE     H11R     HAL2     0.900000E-01   1.00800           0
     11509 MEMB     106      POPE     H11S     HAL2     0.900000E-01   1.00800           0
     11510 MEMB     106      POPE     C212     CTL2    -0.180000       12.0110           0
     11511 MEMB     106      POPE     H12R     HAL2     0.900000E-01   1.00800           0
     11512 MEMB     106      POPE     H12S     HAL2     0.900000E-01   1.00800           0
     11513 MEMB     106      POPE     C213     CTL2    -0.180000       12.0110           0
     11514 MEMB     106      POPE     H13R     HAL2     0.900000E-01   1.00800           0
     11515 MEMB     106      POPE     H13S     HAL2     0.900000E-01   1.00800           0
     11516 MEMB     106      POPE     C214     CTL2    -0.180000       12.0110           0
     11517 MEMB     106      POPE     H14R     HAL2     0.900000E-01   1.00800           0
     11518 MEMB     106      POPE     H14S     HAL2     0.900000E-01   1.00800           0
     11519 MEMB     106      POPE     C215     CTL2    -0.180000       12.0110           0
     11520 MEMB     106      POPE     H15R     HAL2     0.900000E-01   1.00800           0
     11521 MEMB     106      POPE     H15S     HAL2     0.900000E-01   1.00800           0
     11522 MEMB     106      POPE     C216     CTL2    -0.180000       12.0110           0
     11523 MEMB     106      POPE     H16R     HAL2     0.900000E-01   1.00800           0
     11524 MEMB     106      POPE     H16S     HAL2     0.900000E-01   1.00800           0
     11525 MEMB     106      POPE     C217     CTL2    -0.180000       12.0110           0
     11526 MEMB     106      POPE     H17R     HAL2     0.900000E-01   1.00800           0
     11527 MEMB     106      POPE     H17S     HAL2     0.900000E-01   1.00800           0
     11528 MEMB     106      POPE     C218     CTL3    -0.270000       12.0110           0
     11529 MEMB     106      POPE     H18R     HAL3     0.900000E-01   1.00800           0
     11530 MEMB     106      POPE     H18S     HAL3     0.900000E-01   1.00800           0
     11531 MEMB     106      POPE     H18T     HAL3     0.900000E-01   1.00800           0
     11532 MEMB     106      POPE     C33      CTL2    -0.180000       12.0110           0
     11533 MEMB     106      POPE     H3X      HAL2     0.900000E-01   1.00800           0
     11534 MEMB     106      POPE     H3Y      HAL2     0.900000E-01   1.00800           0
     11535 MEMB     106      POPE     C34      CTL2    -0.180000       12.0110           0
     11536 MEMB     106      POPE     H4X      HAL2     0.900000E-01   1.00800           0
     11537 MEMB     106      POPE     H4Y      HAL2     0.900000E-01   1.00800           0
     11538 MEMB     106      POPE     C35      CTL2    -0.180000       12.0110           0
     11539 MEMB     106      POPE     H5X      HAL2     0.900000E-01   1.00800           0
     11540 MEMB     106      POPE     H5Y      HAL2     0.900000E-01   1.00800           0
     11541 MEMB     106      POPE     C36      CTL2    -0.180000       12.0110           0
     11542 MEMB     106      POPE     H6X      HAL2     0.900000E-01   1.00800           0
     11543 MEMB     106      POPE     H6Y      HAL2     0.900000E-01   1.00800           0
     11544 MEMB     106      POPE     C37      CTL2    -0.180000       12.0110           0
     11545 MEMB     106      POPE     H7X      HAL2     0.900000E-01   1.00800           0
     11546 MEMB     106      POPE     H7Y      HAL2     0.900000E-01   1.00800           0
     11547 MEMB     106      POPE     C38      CTL2    -0.180000       12.0110           0
     11548 MEMB     106      POPE     H8X      HAL2     0.900000E-01   1.00800           0
     11549 MEMB     106      POPE     H8Y      HAL2     0.900000E-01   1.00800           0
     11550 MEMB     106      POPE     C39      CTL2    -0.180000       12.0110           0
     11551 MEMB     106      POPE     H9X      HAL2     0.900000E-01   1.00800           0
     11552 MEMB     106      POPE     H9Y      HAL2     0.900000E-01   1.00800           0
     11553 MEMB     106      POPE     C310     CTL2    -0.180000       12.0110           0
     11554 MEMB     106      POPE     H10X     HAL2     0.900000E-01   1.00800           0
     11555 MEMB     106      POPE     H10Y     HAL2     0.900000E-01   1.00800           0
     11556 MEMB     106      POPE     C311     CTL2    -0.180000       12.0110           0
     11557 MEMB     106      POPE     H11X     HAL2     0.900000E-01   1.00800           0
     11558 MEMB     106      POPE     H11Y     HAL2     0.900000E-01   1.00800           0
     11559 MEMB     106      POPE     C312     CTL2    -0.180000       12.0110           0
     11560 MEMB     106      POPE     H12X     HAL2     0.900000E-01   1.00800           0
     11561 MEMB     106      POPE     H12Y     HAL2     0.900000E-01   1.00800           0
     11562 MEMB     106      POPE     C313     CTL2    -0.180000       12.0110           0
     11563 MEMB     106      POPE     H13X     HAL2     0.900000E-01   1.00800           0
     11564 MEMB     106      POPE     H13Y     HAL2     0.900000E-01   1.00800           0
     11565 MEMB     106      POPE     C314     CTL2    -0.180000       12.0110           0
     11566 MEMB     106      POPE     H14X     HAL2     0.900000E-01   1.00800           0
     11567 MEMB     106      POPE     H14Y     HAL2     0.900000E-01   1.00800           0
     11568 MEMB     106      POPE     C315     CTL2    -0.180000       12.0110           0
     11569 MEMB     106      POPE     H15X     HAL2     0.900000E-01   1.00800           0
     11570 MEMB     106      POPE     H15Y     HAL2     0.900000E-01   1.00800           0
     11571 MEMB     106      POPE     C316     CTL3    -0.270000       12.0110           0
     11572 MEMB     106      POPE     H16X     HAL3     0.900000E-01   1.00800           0
     11573 MEMB     106      POPE     H16Y     HAL3     0.900000E-01   1.00800           0
     11574 MEMB     106      POPE     H16Z     HAL3     0.900000E-01   1.00800           0
     11575 MEMB     107      PSM      N        NTL     -0.600000       14.0070           0
     11576 MEMB     107      PSM      C15      CTL5    -0.350000       12.0110           0
     11577 MEMB     107      PSM      H15A     HL       0.250000       1.00800           0
     11578 MEMB     107      PSM      H15B     HL       0.250000       1.00800           0
     11579 MEMB     107      PSM      H15C     HL       0.250000       1.00800           0
     11580 MEMB     107      PSM      C14      CTL5    -0.350000       12.0110           0
     11581 MEMB     107      PSM      H14A     HL       0.250000       1.00800           0
     11582 MEMB     107      PSM      H14B     HL       0.250000       1.00800           0
     11583 MEMB     107      PSM      H14C     HL       0.250000       1.00800           0
     11584 MEMB     107      PSM      C13      CTL5    -0.350000       12.0110           0
     11585 MEMB     107      PSM      H13A     HL       0.250000       1.00800           0
     11586 MEMB     107      PSM      H13B     HL       0.250000       1.00800           0
     11587 MEMB     107      PSM      H13C     HL       0.250000       1.00800           0
     11588 MEMB     107      PSM      C12      CTL2    -0.100000       12.0110           0
     11589 MEMB     107      PSM      H12A     HL       0.250000       1.00800           0
     11590 MEMB     107      PSM      H12B     HL       0.250000       1.00800           0
     11591 MEMB     107      PSM      C11      CTL2    -0.800000E-01   12.0110           0
     11592 MEMB     107      PSM      H11A     HAL2     0.900000E-01   1.00800           0
     11593 MEMB     107      PSM      H11B     HAL2     0.900000E-01   1.00800           0
     11594 MEMB     107      PSM      P        PL       1.500000       30.9740           0
     11595 MEMB     107      PSM      O13      O2L     -0.780000       15.9994           0
     11596 MEMB     107      PSM      O14      O2L     -0.780000       15.9994           0
     11597 MEMB     107      PSM      O11      OSLP    -0.570000       15.9994           0
     11598 MEMB     107      PSM      O12      OSLP    -0.570000       15.9994           0
     11599 MEMB     107      PSM      C1S      CTL2    -0.800000E-01   12.0110           0
     11600 MEMB     107      PSM      H1S      HAL2     0.900000E-01   1.00800           0
     11601 MEMB     107      PSM      H1T      HAL2     0.900000E-01   1.00800           0
     11602 MEMB     107      PSM      NF       NHL     -0.700000       14.0070           0
     11603 MEMB     107      PSM      HNF      H        0.350000       1.00800           0
     11604 MEMB     107      PSM      C2S      CTL1     0.300000       12.0110           0
     11605 MEMB     107      PSM      H2S      HAL1     0.500000E-01   1.00800           0
     11606 MEMB     107      PSM      C3S      CTO1     0.500000       12.0110           0
     11607 MEMB     107      PSM      H3S      HAL1    -0.110000       1.00800           0
     11608 MEMB     107      PSM      O3       OHL     -0.690000       15.9994           0
     11609 MEMB     107      PSM      HO3      HOL      0.300000       1.00800           0
     11610 MEMB     107      PSM      C4S      CEL3    -0.150000       12.0110           0
     11611 MEMB     107      PSM      H4S      HEL1     0.150000       1.00800           0
     11612 MEMB     107      PSM      C5S      CEL3    -0.150000       12.0110           0
     11613 MEMB     107      PSM      H5S      HEL1     0.150000       1.00800           0
     11614 MEMB     107      PSM      C6S      CTL2    -0.180000       12.0110           0
     11615 MEMB     107      PSM      H6S      HAL2     0.900000E-01   1.00800           0
     11616 MEMB     107      PSM      H6T      HAL2     0.900000E-01   1.00800           0
     11617 MEMB     107      PSM      C7S      CTL2    -0.180000       12.0110           0
     11618 MEMB     107      PSM      H7S      HAL2     0.900000E-01   1.00800           0
     11619 MEMB     107      PSM      H7T      HAL2     0.900000E-01   1.00800           0
     11620 MEMB     107      PSM      C8S      CTL2    -0.180000       12.0110           0
     11621 MEMB     107      PSM      H8S      HAL2     0.900000E-01   1.00800           0
     11622 MEMB     107      PSM      H8T      HAL2     0.900000E-01   1.00800           0
     11623 MEMB     107      PSM      C9S      CTL2    -0.180000       12.0110           0
     11624 MEMB     107      PSM      H9S      HAL2     0.900000E-01   1.00800           0
     11625 MEMB     107      PSM      H9T      HAL2     0.900000E-01   1.00800           0
     11626 MEMB     107      PSM      C10S     CTL2    -0.180000       12.0110           0
     11627 MEMB     107      PSM      H10S     HAL2     0.900000E-01   1.00800           0
     11628 MEMB     107      PSM      H10T     HAL2     0.900000E-01   1.00800           0
     11629 MEMB     107      PSM      C11S     CTL2    -0.180000       12.0110           0
     11630 MEMB     107      PSM      H11S     HAL2     0.900000E-01   1.00800           0
     11631 MEMB     107      PSM      H11T     HAL2     0.900000E-01   1.00800           0
     11632 MEMB     107      PSM      C12S     CTL2    -0.180000       12.0110           0
     11633 MEMB     107      PSM      H12S     HAL2     0.900000E-01   1.00800           0
     11634 MEMB     107      PSM      H12T     HAL2     0.900000E-01   1.00800           0
     11635 MEMB     107      PSM      C13S     CTL2    -0.180000       12.0110           0
     11636 MEMB     107      PSM      H13S     HAL2     0.900000E-01   1.00800           0
     11637 MEMB     107      PSM      H13T     HAL2     0.900000E-01   1.00800           0
     11638 MEMB     107      PSM      C14S     CTL2    -0.180000       12.0110           0
     11639 MEMB     107      PSM      H14S     HAL2     0.900000E-01   1.00800           0
     11640 MEMB     107      PSM      H14T     HAL2     0.900000E-01   1.00800           0
     11641 MEMB     107      PSM      C15S     CTL2    -0.180000       12.0110           0
     11642 MEMB     107      PSM      H15S     HAL2     0.900000E-01   1.00800           0
     11643 MEMB     107      PSM      H15T     HAL2     0.900000E-01   1.00800           0
     11644 MEMB     107      PSM      C16S     CTL2    -0.180000       12.0110           0
     11645 MEMB     107      PSM      H16S     HAL2     0.900000E-01   1.00800           0
     11646 MEMB     107      PSM      H16T     HAL2     0.900000E-01   1.00800           0
     11647 MEMB     107      PSM      C17S     CTL2    -0.180000       12.0110           0
     11648 MEMB     107      PSM      H17S     HAL2     0.900000E-01   1.00800           0
     11649 MEMB     107      PSM      H17T     HAL2     0.900000E-01   1.00800           0
     11650 MEMB     107      PSM      C18S     CTL3    -0.270000       12.0110           0
     11651 MEMB     107      PSM      H18S     HAL3     0.900000E-01   1.00800           0
     11652 MEMB     107      PSM      H18T     HAL3     0.900000E-01   1.00800           0
     11653 MEMB     107      PSM      H18U     HAL3     0.900000E-01   1.00800           0
     11654 MEMB     107      PSM      C1F      C        0.550000       12.0110           0
     11655 MEMB     107      PSM      OF       O       -0.600000       15.9994           0
     11656 MEMB     107      PSM      C2F      CTL2    -0.700000E-01   12.0110           0
     11657 MEMB     107      PSM      H2F      HAL2     0.600000E-01   1.00800           0
     11658 MEMB     107      PSM      H2G      HAL2     0.600000E-01   1.00800           0
     11659 MEMB     107      PSM      C3F      CTL2    -0.180000       12.0110           0
     11660 MEMB     107      PSM      H3F      HAL2     0.900000E-01   1.00800           0
     11661 MEMB     107      PSM      H3G      HAL2     0.900000E-01   1.00800           0
     11662 MEMB     107      PSM      C4F      CTL2    -0.180000       12.0110           0
     11663 MEMB     107      PSM      H4F      HAL2     0.900000E-01   1.00800           0
     11664 MEMB     107      PSM      H4G      HAL2     0.900000E-01   1.00800           0
     11665 MEMB     107      PSM      C5F      CTL2    -0.180000       12.0110           0
     11666 MEMB     107      PSM      H5F      HAL2     0.900000E-01   1.00800           0
     11667 MEMB     107      PSM      H5G      HAL2     0.900000E-01   1.00800           0
     11668 MEMB     107      PSM      C6F      CTL2    -0.180000       12.0110           0
     11669 MEMB     107      PSM      H6F      HAL2     0.900000E-01   1.00800           0
     11670 MEMB     107      PSM      H6G      HAL2     0.900000E-01   1.00800           0
     11671 MEMB     107      PSM      C7F      CTL2    -0.180000       12.0110           0
     11672 MEMB     107      PSM      H7F      HAL2     0.900000E-01   1.00800           0
     11673 MEMB     107      PSM      H7G      HAL2     0.900000E-01   1.00800           0
     11674 MEMB     107      PSM      C8F      CTL2    -0.180000       12.0110           0
     11675 MEMB     107      PSM      H8F      HAL2     0.900000E-01   1.00800           0
     11676 MEMB     107      PSM      H8G      HAL2     0.900000E-01   1.00800           0
     11677 MEMB     107      PSM      C9F      CTL2    -0.180000       12.0110           0
     11678 MEMB     107      PSM      H9F      HAL2     0.900000E-01   1.00800           0
     11679 MEMB     107      PSM      H9G      HAL2     0.900000E-01   1.00800           0
     11680 MEMB     107      PSM      C10F     CTL2    -0.180000       12.0110           0
     11681 MEMB     107      PSM      H10F     HAL2     0.900000E-01   1.00800           0
     11682 MEMB     107      PSM      H10G     HAL2     0.900000E-01   1.00800           0
     11683 MEMB     107      PSM      C11F     CTL2    -0.180000       12.0110           0
     11684 MEMB     107      PSM      H11F     HAL2     0.900000E-01   1.00800           0
     11685 MEMB     107      PSM      H11G     HAL2     0.900000E-01   1.00800           0
     11686 MEMB     107      PSM      C12F     CTL2    -0.180000       12.0110           0
     11687 MEMB     107      PSM      H12F     HAL2     0.900000E-01   1.00800           0
     11688 MEMB     107      PSM      H12G     HAL2     0.900000E-01   1.00800           0
     11689 MEMB     107      PSM      C13F     CTL2    -0.180000       12.0110           0
     11690 MEMB     107      PSM      H13F     HAL2     0.900000E-01   1.00800           0
     11691 MEMB     107      PSM      H13G     HAL2     0.900000E-01   1.00800           0
     11692 MEMB     107      PSM      C14F     CTL2    -0.180000       12.0110           0
     11693 MEMB     107      PSM      H14F     HAL2     0.900000E-01   1.00800           0
     11694 MEMB     107      PSM      H14G     HAL2     0.900000E-01   1.00800           0
     11695 MEMB     107      PSM      C15F     CTL2    -0.180000       12.0110           0
     11696 MEMB     107      PSM      H15F     HAL2     0.900000E-01   1.00800           0
     11697 MEMB     107      PSM      H15G     HAL2     0.900000E-01   1.00800           0
     11698 MEMB     107      PSM      C16F     CTL3    -0.270000       12.0110           0
     11699 MEMB     107      PSM      H16F     HAL3     0.900000E-01   1.00800           0
     11700 MEMB     107      PSM      H16G     HAL3     0.900000E-01   1.00800           0
     11701 MEMB     107      PSM      H16H     HAL3     0.900000E-01   1.00800           0
     11702 MEMB     108      POPC     N        NTL     -0.600000       14.0070           0
     11703 MEMB     108      POPC     C12      CTL2    -0.100000       12.0110           0
     11704 MEMB     108      POPC     H12A     HL       0.250000       1.00800           0
     11705 MEMB     108      POPC     H12B     HL       0.250000       1.00800           0
     11706 MEMB     108      POPC     C13      CTL5    -0.350000       12.0110           0
     11707 MEMB     108      POPC     H13A     HL       0.250000       1.00800           0
     11708 MEMB     108      POPC     H13B     HL       0.250000       1.00800           0
     11709 MEMB     108      POPC     H13C     HL       0.250000       1.00800           0
     11710 MEMB     108      POPC     C14      CTL5    -0.350000       12.0110           0
     11711 MEMB     108      POPC     H14A     HL       0.250000       1.00800           0
     11712 MEMB     108      POPC     H14B     HL       0.250000       1.00800           0
     11713 MEMB     108      POPC     H14C     HL       0.250000       1.00800           0
     11714 MEMB     108      POPC     C15      CTL5    -0.350000       12.0110           0
     11715 MEMB     108      POPC     H15A     HL       0.250000       1.00800           0
     11716 MEMB     108      POPC     H15B     HL       0.250000       1.00800           0
     11717 MEMB     108      POPC     H15C     HL       0.250000       1.00800           0
     11718 MEMB     108      POPC     C11      CTL2    -0.800000E-01   12.0110           0
     11719 MEMB     108      POPC     H11A     HAL2     0.900000E-01   1.00800           0
     11720 MEMB     108      POPC     H11B     HAL2     0.900000E-01   1.00800           0
     11721 MEMB     108      POPC     P        PL       1.500000       30.9740           0
     11722 MEMB     108      POPC     O13      O2L     -0.780000       15.9994           0
     11723 MEMB     108      POPC     O14      O2L     -0.780000       15.9994           0
     11724 MEMB     108      POPC     O12      OSLP    -0.570000       15.9994           0
     11725 MEMB     108      POPC     O11      OSLP    -0.570000       15.9994           0
     11726 MEMB     108      POPC     C1       CTL2    -0.800000E-01   12.0110           0
     11727 MEMB     108      POPC     HA       HAL2     0.900000E-01   1.00800           0
     11728 MEMB     108      POPC     HB       HAL2     0.900000E-01   1.00800           0
     11729 MEMB     108      POPC     C2       CTL1     0.170000       12.0110           0
     11730 MEMB     108      POPC     HS       HAL1     0.900000E-01   1.00800           0
     11731 MEMB     108      POPC     O21      OSL     -0.490000       15.9994           0
     11732 MEMB     108      POPC     C21      CL       0.900000       12.0110           0
     11733 MEMB     108      POPC     O22      OBL     -0.630000       15.9994           0
     11734 MEMB     108      POPC     C22      CTL2    -0.220000       12.0110           0
     11735 MEMB     108      POPC     H2R      HAL2     0.900000E-01   1.00800           0
     11736 MEMB     108      POPC     H2S      HAL2     0.900000E-01   1.00800           0
     11737 MEMB     108      POPC     C3       CTL2     0.800000E-01   12.0110           0
     11738 MEMB     108      POPC     HX       HAL2     0.900000E-01   1.00800           0
     11739 MEMB     108      POPC     HY       HAL2     0.900000E-01   1.00800           0
     11740 MEMB     108      POPC     O31      OSL     -0.490000       15.9994           0
     11741 MEMB     108      POPC     C31      CL       0.900000       12.0110           0
     11742 MEMB     108      POPC     O32      OBL     -0.630000       15.9994           0
     11743 MEMB     108      POPC     C32      CTL2    -0.220000       12.0110           0
     11744 MEMB     108      POPC     H2X      HAL2     0.900000E-01   1.00800           0
     11745 MEMB     108      POPC     H2Y      HAL2     0.900000E-01   1.00800           0
     11746 MEMB     108      POPC     C23      CTL2    -0.180000       12.0110           0
     11747 MEMB     108      POPC     H3R      HAL2     0.900000E-01   1.00800           0
     11748 MEMB     108      POPC     H3S      HAL2     0.900000E-01   1.00800           0
     11749 MEMB     108      POPC     C24      CTL2    -0.180000       12.0110           0
     11750 MEMB     108      POPC     H4R      HAL2     0.900000E-01   1.00800           0
     11751 MEMB     108      POPC     H4S      HAL2     0.900000E-01   1.00800           0
     11752 MEMB     108      POPC     C25      CTL2    -0.180000       12.0110           0
     11753 MEMB     108      POPC     H5R      HAL2     0.900000E-01   1.00800           0
     11754 MEMB     108      POPC     H5S      HAL2     0.900000E-01   1.00800           0
     11755 MEMB     108      POPC     C26      CTL2    -0.180000       12.0110           0
     11756 MEMB     108      POPC     H6R      HAL2     0.900000E-01   1.00800           0
     11757 MEMB     108      POPC     H6S      HAL2     0.900000E-01   1.00800           0
     11758 MEMB     108      POPC     C27      CTL2    -0.180000       12.0110           0
     11759 MEMB     108      POPC     H7R      HAL2     0.900000E-01   1.00800           0
     11760 MEMB     108      POPC     H7S      HAL2     0.900000E-01   1.00800           0
     11761 MEMB     108      POPC     C28      CTL2    -0.180000       12.0110           0
     11762 MEMB     108      POPC     H8R      HAL2     0.900000E-01   1.00800           0
     11763 MEMB     108      POPC     H8S      HAL2     0.900000E-01   1.00800           0
     11764 MEMB     108      POPC     C29      CEL1    -0.150000       12.0110           0
     11765 MEMB     108      POPC     H91      HEL1     0.150000       1.00800           0
     11766 MEMB     108      POPC     C210     CEL1    -0.150000       12.0110           0
     11767 MEMB     108      POPC     H101     HEL1     0.150000       1.00800           0
     11768 MEMB     108      POPC     C211     CTL2    -0.180000       12.0110           0
     11769 MEMB     108      POPC     H11R     HAL2     0.900000E-01   1.00800           0
     11770 MEMB     108      POPC     H11S     HAL2     0.900000E-01   1.00800           0
     11771 MEMB     108      POPC     C212     CTL2    -0.180000       12.0110           0
     11772 MEMB     108      POPC     H12R     HAL2     0.900000E-01   1.00800           0
     11773 MEMB     108      POPC     H12S     HAL2     0.900000E-01   1.00800           0
     11774 MEMB     108      POPC     C213     CTL2    -0.180000       12.0110           0
     11775 MEMB     108      POPC     H13R     HAL2     0.900000E-01   1.00800           0
     11776 MEMB     108      POPC     H13S     HAL2     0.900000E-01   1.00800           0
     11777 MEMB     108      POPC     C214     CTL2    -0.180000       12.0110           0
     11778 MEMB     108      POPC     H14R     HAL2     0.900000E-01   1.00800           0
     11779 MEMB     108      POPC     H14S     HAL2     0.900000E-01   1.00800           0
     11780 MEMB     108      POPC     C215     CTL2    -0.180000       12.0110           0
     11781 MEMB     108      POPC     H15R     HAL2     0.900000E-01   1.00800           0
     11782 MEMB     108      POPC     H15S     HAL2     0.900000E-01   1.00800           0
     11783 MEMB     108      POPC     C216     CTL2    -0.180000       12.0110           0
     11784 MEMB     108      POPC     H16R     HAL2     0.900000E-01   1.00800           0
     11785 MEMB     108      POPC     H16S     HAL2     0.900000E-01   1.00800           0
     11786 MEMB     108      POPC     C217     CTL2    -0.180000       12.0110           0
     11787 MEMB     108      POPC     H17R     HAL2     0.900000E-01   1.00800           0
     11788 MEMB     108      POPC     H17S     HAL2     0.900000E-01   1.00800           0
     11789 MEMB     108      POPC     C218     CTL3    -0.270000       12.0110           0
     11790 MEMB     108      POPC     H18R     HAL3     0.900000E-01   1.00800           0
     11791 MEMB     108      POPC     H18S     HAL3     0.900000E-01   1.00800           0
     11792 MEMB     108      POPC     H18T     HAL3     0.900000E-01   1.00800           0
     11793 MEMB     108      POPC     C33      CTL2    -0.180000       12.0110           0
     11794 MEMB     108      POPC     H3X      HAL2     0.900000E-01   1.00800           0
     11795 MEMB     108      POPC     H3Y      HAL2     0.900000E-01   1.00800           0
     11796 MEMB     108      POPC     C34      CTL2    -0.180000       12.0110           0
     11797 MEMB     108      POPC     H4X      HAL2     0.900000E-01   1.00800           0
     11798 MEMB     108      POPC     H4Y      HAL2     0.900000E-01   1.00800           0
     11799 MEMB     108      POPC     C35      CTL2    -0.180000       12.0110           0
     11800 MEMB     108      POPC     H5X      HAL2     0.900000E-01   1.00800           0
     11801 MEMB     108      POPC     H5Y      HAL2     0.900000E-01   1.00800           0
     11802 MEMB     108      POPC     C36      CTL2    -0.180000       12.0110           0
     11803 MEMB     108      POPC     H6X      HAL2     0.900000E-01   1.00800           0
     11804 MEMB     108      POPC     H6Y      HAL2     0.900000E-01   1.00800           0
     11805 MEMB     108      POPC     C37      CTL2    -0.180000       12.0110           0
     11806 MEMB     108      POPC     H7X      HAL2     0.900000E-01   1.00800           0
     11807 MEMB     108      POPC     H7Y      HAL2     0.900000E-01   1.00800           0
     11808 MEMB     108      POPC     C38      CTL2    -0.180000       12.0110           0
     11809 MEMB     108      POPC     H8X      HAL2     0.900000E-01   1.00800           0
     11810 MEMB     108      POPC     H8Y      HAL2     0.900000E-01   1.00800           0
     11811 MEMB     108      POPC     C39      CTL2    -0.180000       12.0110           0
     11812 MEMB     108      POPC     H9X      HAL2     0.900000E-01   1.00800           0
     11813 MEMB     108      POPC     H9Y      HAL2     0.900000E-01   1.00800           0
     11814 MEMB     108      POPC     C310     CTL2    -0.180000       12.0110           0
     11815 MEMB     108      POPC     H10X     HAL2     0.900000E-01   1.00800           0
     11816 MEMB     108      POPC     H10Y     HAL2     0.900000E-01   1.00800           0
     11817 MEMB     108      POPC     C311     CTL2    -0.180000       12.0110           0
     11818 MEMB     108      POPC     H11X     HAL2     0.900000E-01   1.00800           0
     11819 MEMB     108      POPC     H11Y     HAL2     0.900000E-01   1.00800           0
     11820 MEMB     108      POPC     C312     CTL2    -0.180000       12.0110           0
     11821 MEMB     108      POPC     H12X     HAL2     0.900000E-01   1.00800           0
     11822 MEMB     108      POPC     H12Y     HAL2     0.900000E-01   1.00800           0
     11823 MEMB     108      POPC     C313     CTL2    -0.180000       12.0110           0
     11824 MEMB     108      POPC     H13X     HAL2     0.900000E-01   1.00800           0
     11825 MEMB     108      POPC     H13Y     HAL2     0.900000E-01   1.00800           0
     11826 MEMB     108      POPC     C314     CTL2    -0.180000       12.0110           0
     11827 MEMB     108      POPC     H14X     HAL2     0.900000E-01   1.00800           0
     11828 MEMB     108      POPC     H14Y     HAL2     0.900000E-01   1.00800           0
     11829 MEMB     108      POPC     C315     CTL2    -0.180000       12.0110           0
     11830 MEMB     108      POPC     H15X     HAL2     0.900000E-01   1.00800           0
     11831 MEMB     108      POPC     H15Y     HAL2     0.900000E-01   1.00800           0
     11832 MEMB     108      POPC     C316     CTL3    -0.270000       12.0110           0
     11833 MEMB     108      POPC     H16X     HAL3     0.900000E-01   1.00800           0
     11834 MEMB     108      POPC     H16Y     HAL3     0.900000E-01   1.00800           0
     11835 MEMB     108      POPC     H16Z     HAL3     0.900000E-01   1.00800           0
     11836 MEMB     109      POPE     N        NH3L    -0.300000       14.0070           0
     11837 MEMB     109      POPE     HN1      HCL      0.330000       1.00800           0
     11838 MEMB     109      POPE     HN2      HCL      0.330000       1.00800           0
     11839 MEMB     109      POPE     HN3      HCL      0.330000       1.00800           0
     11840 MEMB     109      POPE     C12      CTL2     0.130000       12.0110           0
     11841 MEMB     109      POPE     H12A     HAL2     0.900000E-01   1.00800           0
     11842 MEMB     109      POPE     H12B     HAL2     0.900000E-01   1.00800           0
     11843 MEMB     109      POPE     C11      CTL2    -0.800000E-01   12.0110           0
     11844 MEMB     109      POPE     H11A     HAL2     0.900000E-01   1.00800           0
     11845 MEMB     109      POPE     H11B     HAL2     0.900000E-01   1.00800           0
     11846 MEMB     109      POPE     P        PL       1.500000       30.9740           0
     11847 MEMB     109      POPE     O13      O2L     -0.780000       15.9994           0
     11848 MEMB     109      POPE     O14      O2L     -0.780000       15.9994           0
     11849 MEMB     109      POPE     O11      OSLP    -0.570000       15.9994           0
     11850 MEMB     109      POPE     O12      OSLP    -0.570000       15.9994           0
     11851 MEMB     109      POPE     C1       CTL2    -0.800000E-01   12.0110           0
     11852 MEMB     109      POPE     HA       HAL2     0.900000E-01   1.00800           0
     11853 MEMB     109      POPE     HB       HAL2     0.900000E-01   1.00800           0
     11854 MEMB     109      POPE     C2       CTL1     0.170000       12.0110           0
     11855 MEMB     109      POPE     HS       HAL1     0.900000E-01   1.00800           0
     11856 MEMB     109      POPE     O21      OSL     -0.490000       15.9994           0
     11857 MEMB     109      POPE     C21      CL       0.900000       12.0110           0
     11858 MEMB     109      POPE     O22      OBL     -0.630000       15.9994           0
     11859 MEMB     109      POPE     C22      CTL2    -0.220000       12.0110           0
     11860 MEMB     109      POPE     H2R      HAL2     0.900000E-01   1.00800           0
     11861 MEMB     109      POPE     H2S      HAL2     0.900000E-01   1.00800           0
     11862 MEMB     109      POPE     C3       CTL2     0.800000E-01   12.0110           0
     11863 MEMB     109      POPE     HX       HAL2     0.900000E-01   1.00800           0
     11864 MEMB     109      POPE     HY       HAL2     0.900000E-01   1.00800           0
     11865 MEMB     109      POPE     O31      OSL     -0.490000       15.9994           0
     11866 MEMB     109      POPE     C31      CL       0.900000       12.0110           0
     11867 MEMB     109      POPE     O32      OBL     -0.630000       15.9994           0
     11868 MEMB     109      POPE     C32      CTL2    -0.220000       12.0110           0
     11869 MEMB     109      POPE     H2X      HAL2     0.900000E-01   1.00800           0
     11870 MEMB     109      POPE     H2Y      HAL2     0.900000E-01   1.00800           0
     11871 MEMB     109      POPE     C23      CTL2    -0.180000       12.0110           0
     11872 MEMB     109      POPE     H3R      HAL2     0.900000E-01   1.00800           0
     11873 MEMB     109      POPE     H3S      HAL2     0.900000E-01   1.00800           0
     11874 MEMB     109      POPE     C24      CTL2    -0.180000       12.0110           0
     11875 MEMB     109      POPE     H4R      HAL2     0.900000E-01   1.00800           0
     11876 MEMB     109      POPE     H4S      HAL2     0.900000E-01   1.00800           0
     11877 MEMB     109      POPE     C25      CTL2    -0.180000       12.0110           0
     11878 MEMB     109      POPE     H5R      HAL2     0.900000E-01   1.00800           0
     11879 MEMB     109      POPE     H5S      HAL2     0.900000E-01   1.00800           0
     11880 MEMB     109      POPE     C26      CTL2    -0.180000       12.0110           0
     11881 MEMB     109      POPE     H6R      HAL2     0.900000E-01   1.00800           0
     11882 MEMB     109      POPE     H6S      HAL2     0.900000E-01   1.00800           0
     11883 MEMB     109      POPE     C27      CTL2    -0.180000       12.0110           0
     11884 MEMB     109      POPE     H7R      HAL2     0.900000E-01   1.00800           0
     11885 MEMB     109      POPE     H7S      HAL2     0.900000E-01   1.00800           0
     11886 MEMB     109      POPE     C28      CTL2    -0.180000       12.0110           0
     11887 MEMB     109      POPE     H8R      HAL2     0.900000E-01   1.00800           0
     11888 MEMB     109      POPE     H8S      HAL2     0.900000E-01   1.00800           0
     11889 MEMB     109      POPE     C29      CEL1    -0.150000       12.0110           0
     11890 MEMB     109      POPE     H91      HEL1     0.150000       1.00800           0
     11891 MEMB     109      POPE     C210     CEL1    -0.150000       12.0110           0
     11892 MEMB     109      POPE     H101     HEL1     0.150000       1.00800           0
     11893 MEMB     109      POPE     C211     CTL2    -0.180000       12.0110           0
     11894 MEMB     109      POPE     H11R     HAL2     0.900000E-01   1.00800           0
     11895 MEMB     109      POPE     H11S     HAL2     0.900000E-01   1.00800           0
     11896 MEMB     109      POPE     C212     CTL2    -0.180000       12.0110           0
     11897 MEMB     109      POPE     H12R     HAL2     0.900000E-01   1.00800           0
     11898 MEMB     109      POPE     H12S     HAL2     0.900000E-01   1.00800           0
     11899 MEMB     109      POPE     C213     CTL2    -0.180000       12.0110           0
     11900 MEMB     109      POPE     H13R     HAL2     0.900000E-01   1.00800           0
     11901 MEMB     109      POPE     H13S     HAL2     0.900000E-01   1.00800           0
     11902 MEMB     109      POPE     C214     CTL2    -0.180000       12.0110           0
     11903 MEMB     109      POPE     H14R     HAL2     0.900000E-01   1.00800           0
     11904 MEMB     109      POPE     H14S     HAL2     0.900000E-01   1.00800           0
     11905 MEMB     109      POPE     C215     CTL2    -0.180000       12.0110           0
     11906 MEMB     109      POPE     H15R     HAL2     0.900000E-01   1.00800           0
     11907 MEMB     109      POPE     H15S     HAL2     0.900000E-01   1.00800           0
     11908 MEMB     109      POPE     C216     CTL2    -0.180000       12.0110           0
     11909 MEMB     109      POPE     H16R     HAL2     0.900000E-01   1.00800           0
     11910 MEMB     109      POPE     H16S     HAL2     0.900000E-01   1.00800           0
     11911 MEMB     109      POPE     C217     CTL2    -0.180000       12.0110           0
     11912 MEMB     109      POPE     H17R     HAL2     0.900000E-01   1.00800           0
     11913 MEMB     109      POPE     H17S     HAL2     0.900000E-01   1.00800           0
     11914 MEMB     109      POPE     C218     CTL3    -0.270000       12.0110           0
     11915 MEMB     109      POPE     H18R     HAL3     0.900000E-01   1.00800           0
     11916 MEMB     109      POPE     H18S     HAL3     0.900000E-01   1.00800           0
     11917 MEMB     109      POPE     H18T     HAL3     0.900000E-01   1.00800           0
     11918 MEMB     109      POPE     C33      CTL2    -0.180000       12.0110           0
     11919 MEMB     109      POPE     H3X      HAL2     0.900000E-01   1.00800           0
     11920 MEMB     109      POPE     H3Y      HAL2     0.900000E-01   1.00800           0
     11921 MEMB     109      POPE     C34      CTL2    -0.180000       12.0110           0
     11922 MEMB     109      POPE     H4X      HAL2     0.900000E-01   1.00800           0
     11923 MEMB     109      POPE     H4Y      HAL2     0.900000E-01   1.00800           0
     11924 MEMB     109      POPE     C35      CTL2    -0.180000       12.0110           0
     11925 MEMB     109      POPE     H5X      HAL2     0.900000E-01   1.00800           0
     11926 MEMB     109      POPE     H5Y      HAL2     0.900000E-01   1.00800           0
     11927 MEMB     109      POPE     C36      CTL2    -0.180000       12.0110           0
     11928 MEMB     109      POPE     H6X      HAL2     0.900000E-01   1.00800           0
     11929 MEMB     109      POPE     H6Y      HAL2     0.900000E-01   1.00800           0
     11930 MEMB     109      POPE     C37      CTL2    -0.180000       12.0110           0
     11931 MEMB     109      POPE     H7X      HAL2     0.900000E-01   1.00800           0
     11932 MEMB     109      POPE     H7Y      HAL2     0.900000E-01   1.00800           0
     11933 MEMB     109      POPE     C38      CTL2    -0.180000       12.0110           0
     11934 MEMB     109      POPE     H8X      HAL2     0.900000E-01   1.00800           0
     11935 MEMB     109      POPE     H8Y      HAL2     0.900000E-01   1.00800           0
     11936 MEMB     109      POPE     C39      CTL2    -0.180000       12.0110           0
     11937 MEMB     109      POPE     H9X      HAL2     0.900000E-01   1.00800           0
     11938 MEMB     109      POPE     H9Y      HAL2     0.900000E-01   1.00800           0
     11939 MEMB     109      POPE     C310     CTL2    -0.180000       12.0110           0
     11940 MEMB     109      POPE     H10X     HAL2     0.900000E-01   1.00800           0
     11941 MEMB     109      POPE     H10Y     HAL2     0.900000E-01   1.00800           0
     11942 MEMB     109      POPE     C311     CTL2    -0.180000       12.0110           0
     11943 MEMB     109      POPE     H11X     HAL2     0.900000E-01   1.00800           0
     11944 MEMB     109      POPE     H11Y     HAL2     0.900000E-01   1.00800           0
     11945 MEMB     109      POPE     C312     CTL2    -0.180000       12.0110           0
     11946 MEMB     109      POPE     H12X     HAL2     0.900000E-01   1.00800           0
     11947 MEMB     109      POPE     H12Y     HAL2     0.900000E-01   1.00800           0
     11948 MEMB     109      POPE     C313     CTL2    -0.180000       12.0110           0
     11949 MEMB     109      POPE     H13X     HAL2     0.900000E-01   1.00800           0
     11950 MEMB     109      POPE     H13Y     HAL2     0.900000E-01   1.00800           0
     11951 MEMB     109      POPE     C314     CTL2    -0.180000       12.0110           0
     11952 MEMB     109      POPE     H14X     HAL2     0.900000E-01   1.00800           0
     11953 MEMB     109      POPE     H14Y     HAL2     0.900000E-01   1.00800           0
     11954 MEMB     109      POPE     C315     CTL2    -0.180000       12.0110           0
     11955 MEMB     109      POPE     H15X     HAL2     0.900000E-01   1.00800           0
     11956 MEMB     109      POPE     H15Y     HAL2     0.900000E-01   1.00800           0
     11957 MEMB     109      POPE     C316     CTL3    -0.270000       12.0110           0
     11958 MEMB     109      POPE     H16X     HAL3     0.900000E-01   1.00800           0
     11959 MEMB     109      POPE     H16Y     HAL3     0.900000E-01   1.00800           0
     11960 MEMB     109      POPE     H16Z     HAL3     0.900000E-01   1.00800           0
     11961 MEMB     110      POPC     N        NTL     -0.600000       14.0070           0
     11962 MEMB     110      POPC     C12      CTL2    -0.100000       12.0110           0
     11963 MEMB     110      POPC     H12A     HL       0.250000       1.00800           0
     11964 MEMB     110      POPC     H12B     HL       0.250000       1.00800           0
     11965 MEMB     110      POPC     C13      CTL5    -0.350000       12.0110           0
     11966 MEMB     110      POPC     H13A     HL       0.250000       1.00800           0
     11967 MEMB     110      POPC     H13B     HL       0.250000       1.00800           0
     11968 MEMB     110      POPC     H13C     HL       0.250000       1.00800           0
     11969 MEMB     110      POPC     C14      CTL5    -0.350000       12.0110           0
     11970 MEMB     110      POPC     H14A     HL       0.250000       1.00800           0
     11971 MEMB     110      POPC     H14B     HL       0.250000       1.00800           0
     11972 MEMB     110      POPC     H14C     HL       0.250000       1.00800           0
     11973 MEMB     110      POPC     C15      CTL5    -0.350000       12.0110           0
     11974 MEMB     110      POPC     H15A     HL       0.250000       1.00800           0
     11975 MEMB     110      POPC     H15B     HL       0.250000       1.00800           0
     11976 MEMB     110      POPC     H15C     HL       0.250000       1.00800           0
     11977 MEMB     110      POPC     C11      CTL2    -0.800000E-01   12.0110           0
     11978 MEMB     110      POPC     H11A     HAL2     0.900000E-01   1.00800           0
     11979 MEMB     110      POPC     H11B     HAL2     0.900000E-01   1.00800           0
     11980 MEMB     110      POPC     P        PL       1.500000       30.9740           0
     11981 MEMB     110      POPC     O13      O2L     -0.780000       15.9994           0
     11982 MEMB     110      POPC     O14      O2L     -0.780000       15.9994           0
     11983 MEMB     110      POPC     O12      OSLP    -0.570000       15.9994           0
     11984 MEMB     110      POPC     O11      OSLP    -0.570000       15.9994           0
     11985 MEMB     110      POPC     C1       CTL2    -0.800000E-01   12.0110           0
     11986 MEMB     110      POPC     HA       HAL2     0.900000E-01   1.00800           0
     11987 MEMB     110      POPC     HB       HAL2     0.900000E-01   1.00800           0
     11988 MEMB     110      POPC     C2       CTL1     0.170000       12.0110           0
     11989 MEMB     110      POPC     HS       HAL1     0.900000E-01   1.00800           0
     11990 MEMB     110      POPC     O21      OSL     -0.490000       15.9994           0
     11991 MEMB     110      POPC     C21      CL       0.900000       12.0110           0
     11992 MEMB     110      POPC     O22      OBL     -0.630000       15.9994           0
     11993 MEMB     110      POPC     C22      CTL2    -0.220000       12.0110           0
     11994 MEMB     110      POPC     H2R      HAL2     0.900000E-01   1.00800           0
     11995 MEMB     110      POPC     H2S      HAL2     0.900000E-01   1.00800           0
     11996 MEMB     110      POPC     C3       CTL2     0.800000E-01   12.0110           0
     11997 MEMB     110      POPC     HX       HAL2     0.900000E-01   1.00800           0
     11998 MEMB     110      POPC     HY       HAL2     0.900000E-01   1.00800           0
     11999 MEMB     110      POPC     O31      OSL     -0.490000       15.9994           0
     12000 MEMB     110      POPC     C31      CL       0.900000       12.0110           0
     12001 MEMB     110      POPC     O32      OBL     -0.630000       15.9994           0
     12002 MEMB     110      POPC     C32      CTL2    -0.220000       12.0110           0
     12003 MEMB     110      POPC     H2X      HAL2     0.900000E-01   1.00800           0
     12004 MEMB     110      POPC     H2Y      HAL2     0.900000E-01   1.00800           0
     12005 MEMB     110      POPC     C23      CTL2    -0.180000       12.0110           0
     12006 MEMB     110      POPC     H3R      HAL2     0.900000E-01   1.00800           0
     12007 MEMB     110      POPC     H3S      HAL2     0.900000E-01   1.00800           0
     12008 MEMB     110      POPC     C24      CTL2    -0.180000       12.0110           0
     12009 MEMB     110      POPC     H4R      HAL2     0.900000E-01   1.00800           0
     12010 MEMB     110      POPC     H4S      HAL2     0.900000E-01   1.00800           0
     12011 MEMB     110      POPC     C25      CTL2    -0.180000       12.0110           0
     12012 MEMB     110      POPC     H5R      HAL2     0.900000E-01   1.00800           0
     12013 MEMB     110      POPC     H5S      HAL2     0.900000E-01   1.00800           0
     12014 MEMB     110      POPC     C26      CTL2    -0.180000       12.0110           0
     12015 MEMB     110      POPC     H6R      HAL2     0.900000E-01   1.00800           0
     12016 MEMB     110      POPC     H6S      HAL2     0.900000E-01   1.00800           0
     12017 MEMB     110      POPC     C27      CTL2    -0.180000       12.0110           0
     12018 MEMB     110      POPC     H7R      HAL2     0.900000E-01   1.00800           0
     12019 MEMB     110      POPC     H7S      HAL2     0.900000E-01   1.00800           0
     12020 MEMB     110      POPC     C28      CTL2    -0.180000       12.0110           0
     12021 MEMB     110      POPC     H8R      HAL2     0.900000E-01   1.00800           0
     12022 MEMB     110      POPC     H8S      HAL2     0.900000E-01   1.00800           0
     12023 MEMB     110      POPC     C29      CEL1    -0.150000       12.0110           0
     12024 MEMB     110      POPC     H91      HEL1     0.150000       1.00800           0
     12025 MEMB     110      POPC     C210     CEL1    -0.150000       12.0110           0
     12026 MEMB     110      POPC     H101     HEL1     0.150000       1.00800           0
     12027 MEMB     110      POPC     C211     CTL2    -0.180000       12.0110           0
     12028 MEMB     110      POPC     H11R     HAL2     0.900000E-01   1.00800           0
     12029 MEMB     110      POPC     H11S     HAL2     0.900000E-01   1.00800           0
     12030 MEMB     110      POPC     C212     CTL2    -0.180000       12.0110           0
     12031 MEMB     110      POPC     H12R     HAL2     0.900000E-01   1.00800           0
     12032 MEMB     110      POPC     H12S     HAL2     0.900000E-01   1.00800           0
     12033 MEMB     110      POPC     C213     CTL2    -0.180000       12.0110           0
     12034 MEMB     110      POPC     H13R     HAL2     0.900000E-01   1.00800           0
     12035 MEMB     110      POPC     H13S     HAL2     0.900000E-01   1.00800           0
     12036 MEMB     110      POPC     C214     CTL2    -0.180000       12.0110           0
     12037 MEMB     110      POPC     H14R     HAL2     0.900000E-01   1.00800           0
     12038 MEMB     110      POPC     H14S     HAL2     0.900000E-01   1.00800           0
     12039 MEMB     110      POPC     C215     CTL2    -0.180000       12.0110           0
     12040 MEMB     110      POPC     H15R     HAL2     0.900000E-01   1.00800           0
     12041 MEMB     110      POPC     H15S     HAL2     0.900000E-01   1.00800           0
     12042 MEMB     110      POPC     C216     CTL2    -0.180000       12.0110           0
     12043 MEMB     110      POPC     H16R     HAL2     0.900000E-01   1.00800           0
     12044 MEMB     110      POPC     H16S     HAL2     0.900000E-01   1.00800           0
     12045 MEMB     110      POPC     C217     CTL2    -0.180000       12.0110           0
     12046 MEMB     110      POPC     H17R     HAL2     0.900000E-01   1.00800           0
     12047 MEMB     110      POPC     H17S     HAL2     0.900000E-01   1.00800           0
     12048 MEMB     110      POPC     C218     CTL3    -0.270000       12.0110           0
     12049 MEMB     110      POPC     H18R     HAL3     0.900000E-01   1.00800           0
     12050 MEMB     110      POPC     H18S     HAL3     0.900000E-01   1.00800           0
     12051 MEMB     110      POPC     H18T     HAL3     0.900000E-01   1.00800           0
     12052 MEMB     110      POPC     C33      CTL2    -0.180000       12.0110           0
     12053 MEMB     110      POPC     H3X      HAL2     0.900000E-01   1.00800           0
     12054 MEMB     110      POPC     H3Y      HAL2     0.900000E-01   1.00800           0
     12055 MEMB     110      POPC     C34      CTL2    -0.180000       12.0110           0
     12056 MEMB     110      POPC     H4X      HAL2     0.900000E-01   1.00800           0
     12057 MEMB     110      POPC     H4Y      HAL2     0.900000E-01   1.00800           0
     12058 MEMB     110      POPC     C35      CTL2    -0.180000       12.0110           0
     12059 MEMB     110      POPC     H5X      HAL2     0.900000E-01   1.00800           0
     12060 MEMB     110      POPC     H5Y      HAL2     0.900000E-01   1.00800           0
     12061 MEMB     110      POPC     C36      CTL2    -0.180000       12.0110           0
     12062 MEMB     110      POPC     H6X      HAL2     0.900000E-01   1.00800           0
     12063 MEMB     110      POPC     H6Y      HAL2     0.900000E-01   1.00800           0
     12064 MEMB     110      POPC     C37      CTL2    -0.180000       12.0110           0
     12065 MEMB     110      POPC     H7X      HAL2     0.900000E-01   1.00800           0
     12066 MEMB     110      POPC     H7Y      HAL2     0.900000E-01   1.00800           0
     12067 MEMB     110      POPC     C38      CTL2    -0.180000       12.0110           0
     12068 MEMB     110      POPC     H8X      HAL2     0.900000E-01   1.00800           0
     12069 MEMB     110      POPC     H8Y      HAL2     0.900000E-01   1.00800           0
     12070 MEMB     110      POPC     C39      CTL2    -0.180000       12.0110           0
     12071 MEMB     110      POPC     H9X      HAL2     0.900000E-01   1.00800           0
     12072 MEMB     110      POPC     H9Y      HAL2     0.900000E-01   1.00800           0
     12073 MEMB     110      POPC     C310     CTL2    -0.180000       12.0110           0
     12074 MEMB     110      POPC     H10X     HAL2     0.900000E-01   1.00800           0
     12075 MEMB     110      POPC     H10Y     HAL2     0.900000E-01   1.00800           0
     12076 MEMB     110      POPC     C311     CTL2    -0.180000       12.0110           0
     12077 MEMB     110      POPC     H11X     HAL2     0.900000E-01   1.00800           0
     12078 MEMB     110      POPC     H11Y     HAL2     0.900000E-01   1.00800           0
     12079 MEMB     110      POPC     C312     CTL2    -0.180000       12.0110           0
     12080 MEMB     110      POPC     H12X     HAL2     0.900000E-01   1.00800           0
     12081 MEMB     110      POPC     H12Y     HAL2     0.900000E-01   1.00800           0
     12082 MEMB     110      POPC     C313     CTL2    -0.180000       12.0110           0
     12083 MEMB     110      POPC     H13X     HAL2     0.900000E-01   1.00800           0
     12084 MEMB     110      POPC     H13Y     HAL2     0.900000E-01   1.00800           0
     12085 MEMB     110      POPC     C314     CTL2    -0.180000       12.0110           0
     12086 MEMB     110      POPC     H14X     HAL2     0.900000E-01   1.00800           0
     12087 MEMB     110      POPC     H14Y     HAL2     0.900000E-01   1.00800           0
     12088 MEMB     110      POPC     C315     CTL2    -0.180000       12.0110           0
     12089 MEMB     110      POPC     H15X     HAL2     0.900000E-01   1.00800           0
     12090 MEMB     110      POPC     H15Y     HAL2     0.900000E-01   1.00800           0
     12091 MEMB     110      POPC     C316     CTL3    -0.270000       12.0110           0
     12092 MEMB     110      POPC     H16X     HAL3     0.900000E-01   1.00800           0
     12093 MEMB     110      POPC     H16Y     HAL3     0.900000E-01   1.00800           0
     12094 MEMB     110      POPC     H16Z     HAL3     0.900000E-01   1.00800           0
     12095 MEMB     111      PSM      N        NTL     -0.600000       14.0070           0
     12096 MEMB     111      PSM      C15      CTL5    -0.350000       12.0110           0
     12097 MEMB     111      PSM      H15A     HL       0.250000       1.00800           0
     12098 MEMB     111      PSM      H15B     HL       0.250000       1.00800           0
     12099 MEMB     111      PSM      H15C     HL       0.250000       1.00800           0
     12100 MEMB     111      PSM      C14      CTL5    -0.350000       12.0110           0
     12101 MEMB     111      PSM      H14A     HL       0.250000       1.00800           0
     12102 MEMB     111      PSM      H14B     HL       0.250000       1.00800           0
     12103 MEMB     111      PSM      H14C     HL       0.250000       1.00800           0
     12104 MEMB     111      PSM      C13      CTL5    -0.350000       12.0110           0
     12105 MEMB     111      PSM      H13A     HL       0.250000       1.00800           0
     12106 MEMB     111      PSM      H13B     HL       0.250000       1.00800           0
     12107 MEMB     111      PSM      H13C     HL       0.250000       1.00800           0
     12108 MEMB     111      PSM      C12      CTL2    -0.100000       12.0110           0
     12109 MEMB     111      PSM      H12A     HL       0.250000       1.00800           0
     12110 MEMB     111      PSM      H12B     HL       0.250000       1.00800           0
     12111 MEMB     111      PSM      C11      CTL2    -0.800000E-01   12.0110           0
     12112 MEMB     111      PSM      H11A     HAL2     0.900000E-01   1.00800           0
     12113 MEMB     111      PSM      H11B     HAL2     0.900000E-01   1.00800           0
     12114 MEMB     111      PSM      P        PL       1.500000       30.9740           0
     12115 MEMB     111      PSM      O13      O2L     -0.780000       15.9994           0
     12116 MEMB     111      PSM      O14      O2L     -0.780000       15.9994           0
     12117 MEMB     111      PSM      O11      OSLP    -0.570000       15.9994           0
     12118 MEMB     111      PSM      O12      OSLP    -0.570000       15.9994           0
     12119 MEMB     111      PSM      C1S      CTL2    -0.800000E-01   12.0110           0
     12120 MEMB     111      PSM      H1S      HAL2     0.900000E-01   1.00800           0
     12121 MEMB     111      PSM      H1T      HAL2     0.900000E-01   1.00800           0
     12122 MEMB     111      PSM      NF       NHL     -0.700000       14.0070           0
     12123 MEMB     111      PSM      HNF      H        0.350000       1.00800           0
     12124 MEMB     111      PSM      C2S      CTL1     0.300000       12.0110           0
     12125 MEMB     111      PSM      H2S      HAL1     0.500000E-01   1.00800           0
     12126 MEMB     111      PSM      C3S      CTO1     0.500000       12.0110           0
     12127 MEMB     111      PSM      H3S      HAL1    -0.110000       1.00800           0
     12128 MEMB     111      PSM      O3       OHL     -0.690000       15.9994           0
     12129 MEMB     111      PSM      HO3      HOL      0.300000       1.00800           0
     12130 MEMB     111      PSM      C4S      CEL3    -0.150000       12.0110           0
     12131 MEMB     111      PSM      H4S      HEL1     0.150000       1.00800           0
     12132 MEMB     111      PSM      C5S      CEL3    -0.150000       12.0110           0
     12133 MEMB     111      PSM      H5S      HEL1     0.150000       1.00800           0
     12134 MEMB     111      PSM      C6S      CTL2    -0.180000       12.0110           0
     12135 MEMB     111      PSM      H6S      HAL2     0.900000E-01   1.00800           0
     12136 MEMB     111      PSM      H6T      HAL2     0.900000E-01   1.00800           0
     12137 MEMB     111      PSM      C7S      CTL2    -0.180000       12.0110           0
     12138 MEMB     111      PSM      H7S      HAL2     0.900000E-01   1.00800           0
     12139 MEMB     111      PSM      H7T      HAL2     0.900000E-01   1.00800           0
     12140 MEMB     111      PSM      C8S      CTL2    -0.180000       12.0110           0
     12141 MEMB     111      PSM      H8S      HAL2     0.900000E-01   1.00800           0
     12142 MEMB     111      PSM      H8T      HAL2     0.900000E-01   1.00800           0
     12143 MEMB     111      PSM      C9S      CTL2    -0.180000       12.0110           0
     12144 MEMB     111      PSM      H9S      HAL2     0.900000E-01   1.00800           0
     12145 MEMB     111      PSM      H9T      HAL2     0.900000E-01   1.00800           0
     12146 MEMB     111      PSM      C10S     CTL2    -0.180000       12.0110           0
     12147 MEMB     111      PSM      H10S     HAL2     0.900000E-01   1.00800           0
     12148 MEMB     111      PSM      H10T     HAL2     0.900000E-01   1.00800           0
     12149 MEMB     111      PSM      C11S     CTL2    -0.180000       12.0110           0
     12150 MEMB     111      PSM      H11S     HAL2     0.900000E-01   1.00800           0
     12151 MEMB     111      PSM      H11T     HAL2     0.900000E-01   1.00800           0
     12152 MEMB     111      PSM      C12S     CTL2    -0.180000       12.0110           0
     12153 MEMB     111      PSM      H12S     HAL2     0.900000E-01   1.00800           0
     12154 MEMB     111      PSM      H12T     HAL2     0.900000E-01   1.00800           0
     12155 MEMB     111      PSM      C13S     CTL2    -0.180000       12.0110           0
     12156 MEMB     111      PSM      H13S     HAL2     0.900000E-01   1.00800           0
     12157 MEMB     111      PSM      H13T     HAL2     0.900000E-01   1.00800           0
     12158 MEMB     111      PSM      C14S     CTL2    -0.180000       12.0110           0
     12159 MEMB     111      PSM      H14S     HAL2     0.900000E-01   1.00800           0
     12160 MEMB     111      PSM      H14T     HAL2     0.900000E-01   1.00800           0
     12161 MEMB     111      PSM      C15S     CTL2    -0.180000       12.0110           0
     12162 MEMB     111      PSM      H15S     HAL2     0.900000E-01   1.00800           0
     12163 MEMB     111      PSM      H15T     HAL2     0.900000E-01   1.00800           0
     12164 MEMB     111      PSM      C16S     CTL2    -0.180000       12.0110           0
     12165 MEMB     111      PSM      H16S     HAL2     0.900000E-01   1.00800           0
     12166 MEMB     111      PSM      H16T     HAL2     0.900000E-01   1.00800           0
     12167 MEMB     111      PSM      C17S     CTL2    -0.180000       12.0110           0
     12168 MEMB     111      PSM      H17S     HAL2     0.900000E-01   1.00800           0
     12169 MEMB     111      PSM      H17T     HAL2     0.900000E-01   1.00800           0
     12170 MEMB     111      PSM      C18S     CTL3    -0.270000       12.0110           0
     12171 MEMB     111      PSM      H18S     HAL3     0.900000E-01   1.00800           0
     12172 MEMB     111      PSM      H18T     HAL3     0.900000E-01   1.00800           0
     12173 MEMB     111      PSM      H18U     HAL3     0.900000E-01   1.00800           0
     12174 MEMB     111      PSM      C1F      C        0.550000       12.0110           0
     12175 MEMB     111      PSM      OF       O       -0.600000       15.9994           0
     12176 MEMB     111      PSM      C2F      CTL2    -0.700000E-01   12.0110           0
     12177 MEMB     111      PSM      H2F      HAL2     0.600000E-01   1.00800           0
     12178 MEMB     111      PSM      H2G      HAL2     0.600000E-01   1.00800           0
     12179 MEMB     111      PSM      C3F      CTL2    -0.180000       12.0110           0
     12180 MEMB     111      PSM      H3F      HAL2     0.900000E-01   1.00800           0
     12181 MEMB     111      PSM      H3G      HAL2     0.900000E-01   1.00800           0
     12182 MEMB     111      PSM      C4F      CTL2    -0.180000       12.0110           0
     12183 MEMB     111      PSM      H4F      HAL2     0.900000E-01   1.00800           0
     12184 MEMB     111      PSM      H4G      HAL2     0.900000E-01   1.00800           0
     12185 MEMB     111      PSM      C5F      CTL2    -0.180000       12.0110           0
     12186 MEMB     111      PSM      H5F      HAL2     0.900000E-01   1.00800           0
     12187 MEMB     111      PSM      H5G      HAL2     0.900000E-01   1.00800           0
     12188 MEMB     111      PSM      C6F      CTL2    -0.180000       12.0110           0
     12189 MEMB     111      PSM      H6F      HAL2     0.900000E-01   1.00800           0
     12190 MEMB     111      PSM      H6G      HAL2     0.900000E-01   1.00800           0
     12191 MEMB     111      PSM      C7F      CTL2    -0.180000       12.0110           0
     12192 MEMB     111      PSM      H7F      HAL2     0.900000E-01   1.00800           0
     12193 MEMB     111      PSM      H7G      HAL2     0.900000E-01   1.00800           0
     12194 MEMB     111      PSM      C8F      CTL2    -0.180000       12.0110           0
     12195 MEMB     111      PSM      H8F      HAL2     0.900000E-01   1.00800           0
     12196 MEMB     111      PSM      H8G      HAL2     0.900000E-01   1.00800           0
     12197 MEMB     111      PSM      C9F      CTL2    -0.180000       12.0110           0
     12198 MEMB     111      PSM      H9F      HAL2     0.900000E-01   1.00800           0
     12199 MEMB     111      PSM      H9G      HAL2     0.900000E-01   1.00800           0
     12200 MEMB     111      PSM      C10F     CTL2    -0.180000       12.0110           0
     12201 MEMB     111      PSM      H10F     HAL2     0.900000E-01   1.00800           0
     12202 MEMB     111      PSM      H10G     HAL2     0.900000E-01   1.00800           0
     12203 MEMB     111      PSM      C11F     CTL2    -0.180000       12.0110           0
     12204 MEMB     111      PSM      H11F     HAL2     0.900000E-01   1.00800           0
     12205 MEMB     111      PSM      H11G     HAL2     0.900000E-01   1.00800           0
     12206 MEMB     111      PSM      C12F     CTL2    -0.180000       12.0110           0
     12207 MEMB     111      PSM      H12F     HAL2     0.900000E-01   1.00800           0
     12208 MEMB     111      PSM      H12G     HAL2     0.900000E-01   1.00800           0
     12209 MEMB     111      PSM      C13F     CTL2    -0.180000       12.0110           0
     12210 MEMB     111      PSM      H13F     HAL2     0.900000E-01   1.00800           0
     12211 MEMB     111      PSM      H13G     HAL2     0.900000E-01   1.00800           0
     12212 MEMB     111      PSM      C14F     CTL2    -0.180000       12.0110           0
     12213 MEMB     111      PSM      H14F     HAL2     0.900000E-01   1.00800           0
     12214 MEMB     111      PSM      H14G     HAL2     0.900000E-01   1.00800           0
     12215 MEMB     111      PSM      C15F     CTL2    -0.180000       12.0110           0
     12216 MEMB     111      PSM      H15F     HAL2     0.900000E-01   1.00800           0
     12217 MEMB     111      PSM      H15G     HAL2     0.900000E-01   1.00800           0
     12218 MEMB     111      PSM      C16F     CTL3    -0.270000       12.0110           0
     12219 MEMB     111      PSM      H16F     HAL3     0.900000E-01   1.00800           0
     12220 MEMB     111      PSM      H16G     HAL3     0.900000E-01   1.00800           0
     12221 MEMB     111      PSM      H16H     HAL3     0.900000E-01   1.00800           0
     12222 MEMB     112      POPC     N        NTL     -0.600000       14.0070           0
     12223 MEMB     112      POPC     C12      CTL2    -0.100000       12.0110           0
     12224 MEMB     112      POPC     H12A     HL       0.250000       1.00800           0
     12225 MEMB     112      POPC     H12B     HL       0.250000       1.00800           0
     12226 MEMB     112      POPC     C13      CTL5    -0.350000       12.0110           0
     12227 MEMB     112      POPC     H13A     HL       0.250000       1.00800           0
     12228 MEMB     112      POPC     H13B     HL       0.250000       1.00800           0
     12229 MEMB     112      POPC     H13C     HL       0.250000       1.00800           0
     12230 MEMB     112      POPC     C14      CTL5    -0.350000       12.0110           0
     12231 MEMB     112      POPC     H14A     HL       0.250000       1.00800           0
     12232 MEMB     112      POPC     H14B     HL       0.250000       1.00800           0
     12233 MEMB     112      POPC     H14C     HL       0.250000       1.00800           0
     12234 MEMB     112      POPC     C15      CTL5    -0.350000       12.0110           0
     12235 MEMB     112      POPC     H15A     HL       0.250000       1.00800           0
     12236 MEMB     112      POPC     H15B     HL       0.250000       1.00800           0
     12237 MEMB     112      POPC     H15C     HL       0.250000       1.00800           0
     12238 MEMB     112      POPC     C11      CTL2    -0.800000E-01   12.0110           0
     12239 MEMB     112      POPC     H11A     HAL2     0.900000E-01   1.00800           0
     12240 MEMB     112      POPC     H11B     HAL2     0.900000E-01   1.00800           0
     12241 MEMB     112      POPC     P        PL       1.500000       30.9740           0
     12242 MEMB     112      POPC     O13      O2L     -0.780000       15.9994           0
     12243 MEMB     112      POPC     O14      O2L     -0.780000       15.9994           0
     12244 MEMB     112      POPC     O12      OSLP    -0.570000       15.9994           0
     12245 MEMB     112      POPC     O11      OSLP    -0.570000       15.9994           0
     12246 MEMB     112      POPC     C1       CTL2    -0.800000E-01   12.0110           0
     12247 MEMB     112      POPC     HA       HAL2     0.900000E-01   1.00800           0
     12248 MEMB     112      POPC     HB       HAL2     0.900000E-01   1.00800           0
     12249 MEMB     112      POPC     C2       CTL1     0.170000       12.0110           0
     12250 MEMB     112      POPC     HS       HAL1     0.900000E-01   1.00800           0
     12251 MEMB     112      POPC     O21      OSL     -0.490000       15.9994           0
     12252 MEMB     112      POPC     C21      CL       0.900000       12.0110           0
     12253 MEMB     112      POPC     O22      OBL     -0.630000       15.9994           0
     12254 MEMB     112      POPC     C22      CTL2    -0.220000       12.0110           0
     12255 MEMB     112      POPC     H2R      HAL2     0.900000E-01   1.00800           0
     12256 MEMB     112      POPC     H2S      HAL2     0.900000E-01   1.00800           0
     12257 MEMB     112      POPC     C3       CTL2     0.800000E-01   12.0110           0
     12258 MEMB     112      POPC     HX       HAL2     0.900000E-01   1.00800           0
     12259 MEMB     112      POPC     HY       HAL2     0.900000E-01   1.00800           0
     12260 MEMB     112      POPC     O31      OSL     -0.490000       15.9994           0
     12261 MEMB     112      POPC     C31      CL       0.900000       12.0110           0
     12262 MEMB     112      POPC     O32      OBL     -0.630000       15.9994           0
     12263 MEMB     112      POPC     C32      CTL2    -0.220000       12.0110           0
     12264 MEMB     112      POPC     H2X      HAL2     0.900000E-01   1.00800           0
     12265 MEMB     112      POPC     H2Y      HAL2     0.900000E-01   1.00800           0
     12266 MEMB     112      POPC     C23      CTL2    -0.180000       12.0110           0
     12267 MEMB     112      POPC     H3R      HAL2     0.900000E-01   1.00800           0
     12268 MEMB     112      POPC     H3S      HAL2     0.900000E-01   1.00800           0
     12269 MEMB     112      POPC     C24      CTL2    -0.180000       12.0110           0
     12270 MEMB     112      POPC     H4R      HAL2     0.900000E-01   1.00800           0
     12271 MEMB     112      POPC     H4S      HAL2     0.900000E-01   1.00800           0
     12272 MEMB     112      POPC     C25      CTL2    -0.180000       12.0110           0
     12273 MEMB     112      POPC     H5R      HAL2     0.900000E-01   1.00800           0
     12274 MEMB     112      POPC     H5S      HAL2     0.900000E-01   1.00800           0
     12275 MEMB     112      POPC     C26      CTL2    -0.180000       12.0110           0
     12276 MEMB     112      POPC     H6R      HAL2     0.900000E-01   1.00800           0
     12277 MEMB     112      POPC     H6S      HAL2     0.900000E-01   1.00800           0
     12278 MEMB     112      POPC     C27      CTL2    -0.180000       12.0110           0
     12279 MEMB     112      POPC     H7R      HAL2     0.900000E-01   1.00800           0
     12280 MEMB     112      POPC     H7S      HAL2     0.900000E-01   1.00800           0
     12281 MEMB     112      POPC     C28      CTL2    -0.180000       12.0110           0
     12282 MEMB     112      POPC     H8R      HAL2     0.900000E-01   1.00800           0
     12283 MEMB     112      POPC     H8S      HAL2     0.900000E-01   1.00800           0
     12284 MEMB     112      POPC     C29      CEL1    -0.150000       12.0110           0
     12285 MEMB     112      POPC     H91      HEL1     0.150000       1.00800           0
     12286 MEMB     112      POPC     C210     CEL1    -0.150000       12.0110           0
     12287 MEMB     112      POPC     H101     HEL1     0.150000       1.00800           0
     12288 MEMB     112      POPC     C211     CTL2    -0.180000       12.0110           0
     12289 MEMB     112      POPC     H11R     HAL2     0.900000E-01   1.00800           0
     12290 MEMB     112      POPC     H11S     HAL2     0.900000E-01   1.00800           0
     12291 MEMB     112      POPC     C212     CTL2    -0.180000       12.0110           0
     12292 MEMB     112      POPC     H12R     HAL2     0.900000E-01   1.00800           0
     12293 MEMB     112      POPC     H12S     HAL2     0.900000E-01   1.00800           0
     12294 MEMB     112      POPC     C213     CTL2    -0.180000       12.0110           0
     12295 MEMB     112      POPC     H13R     HAL2     0.900000E-01   1.00800           0
     12296 MEMB     112      POPC     H13S     HAL2     0.900000E-01   1.00800           0
     12297 MEMB     112      POPC     C214     CTL2    -0.180000       12.0110           0
     12298 MEMB     112      POPC     H14R     HAL2     0.900000E-01   1.00800           0
     12299 MEMB     112      POPC     H14S     HAL2     0.900000E-01   1.00800           0
     12300 MEMB     112      POPC     C215     CTL2    -0.180000       12.0110           0
     12301 MEMB     112      POPC     H15R     HAL2     0.900000E-01   1.00800           0
     12302 MEMB     112      POPC     H15S     HAL2     0.900000E-01   1.00800           0
     12303 MEMB     112      POPC     C216     CTL2    -0.180000       12.0110           0
     12304 MEMB     112      POPC     H16R     HAL2     0.900000E-01   1.00800           0
     12305 MEMB     112      POPC     H16S     HAL2     0.900000E-01   1.00800           0
     12306 MEMB     112      POPC     C217     CTL2    -0.180000       12.0110           0
     12307 MEMB     112      POPC     H17R     HAL2     0.900000E-01   1.00800           0
     12308 MEMB     112      POPC     H17S     HAL2     0.900000E-01   1.00800           0
     12309 MEMB     112      POPC     C218     CTL3    -0.270000       12.0110           0
     12310 MEMB     112      POPC     H18R     HAL3     0.900000E-01   1.00800           0
     12311 MEMB     112      POPC     H18S     HAL3     0.900000E-01   1.00800           0
     12312 MEMB     112      POPC     H18T     HAL3     0.900000E-01   1.00800           0
     12313 MEMB     112      POPC     C33      CTL2    -0.180000       12.0110           0
     12314 MEMB     112      POPC     H3X      HAL2     0.900000E-01   1.00800           0
     12315 MEMB     112      POPC     H3Y      HAL2     0.900000E-01   1.00800           0
     12316 MEMB     112      POPC     C34      CTL2    -0.180000       12.0110           0
     12317 MEMB     112      POPC     H4X      HAL2     0.900000E-01   1.00800           0
     12318 MEMB     112      POPC     H4Y      HAL2     0.900000E-01   1.00800           0
     12319 MEMB     112      POPC     C35      CTL2    -0.180000       12.0110           0
     12320 MEMB     112      POPC     H5X      HAL2     0.900000E-01   1.00800           0
     12321 MEMB     112      POPC     H5Y      HAL2     0.900000E-01   1.00800           0
     12322 MEMB     112      POPC     C36      CTL2    -0.180000       12.0110           0
     12323 MEMB     112      POPC     H6X      HAL2     0.900000E-01   1.00800           0
     12324 MEMB     112      POPC     H6Y      HAL2     0.900000E-01   1.00800           0
     12325 MEMB     112      POPC     C37      CTL2    -0.180000       12.0110           0
     12326 MEMB     112      POPC     H7X      HAL2     0.900000E-01   1.00800           0
     12327 MEMB     112      POPC     H7Y      HAL2     0.900000E-01   1.00800           0
     12328 MEMB     112      POPC     C38      CTL2    -0.180000       12.0110           0
     12329 MEMB     112      POPC     H8X      HAL2     0.900000E-01   1.00800           0
     12330 MEMB     112      POPC     H8Y      HAL2     0.900000E-01   1.00800           0
     12331 MEMB     112      POPC     C39      CTL2    -0.180000       12.0110           0
     12332 MEMB     112      POPC     H9X      HAL2     0.900000E-01   1.00800           0
     12333 MEMB     112      POPC     H9Y      HAL2     0.900000E-01   1.00800           0
     12334 MEMB     112      POPC     C310     CTL2    -0.180000       12.0110           0
     12335 MEMB     112      POPC     H10X     HAL2     0.900000E-01   1.00800           0
     12336 MEMB     112      POPC     H10Y     HAL2     0.900000E-01   1.00800           0
     12337 MEMB     112      POPC     C311     CTL2    -0.180000       12.0110           0
     12338 MEMB     112      POPC     H11X     HAL2     0.900000E-01   1.00800           0
     12339 MEMB     112      POPC     H11Y     HAL2     0.900000E-01   1.00800           0
     12340 MEMB     112      POPC     C312     CTL2    -0.180000       12.0110           0
     12341 MEMB     112      POPC     H12X     HAL2     0.900000E-01   1.00800           0
     12342 MEMB     112      POPC     H12Y     HAL2     0.900000E-01   1.00800           0
     12343 MEMB     112      POPC     C313     CTL2    -0.180000       12.0110           0
     12344 MEMB     112      POPC     H13X     HAL2     0.900000E-01   1.00800           0
     12345 MEMB     112      POPC     H13Y     HAL2     0.900000E-01   1.00800           0
     12346 MEMB     112      POPC     C314     CTL2    -0.180000       12.0110           0
     12347 MEMB     112      POPC     H14X     HAL2     0.900000E-01   1.00800           0
     12348 MEMB     112      POPC     H14Y     HAL2     0.900000E-01   1.00800           0
     12349 MEMB     112      POPC     C315     CTL2    -0.180000       12.0110           0
     12350 MEMB     112      POPC     H15X     HAL2     0.900000E-01   1.00800           0
     12351 MEMB     112      POPC     H15Y     HAL2     0.900000E-01   1.00800           0
     12352 MEMB     112      POPC     C316     CTL3    -0.270000       12.0110           0
     12353 MEMB     112      POPC     H16X     HAL3     0.900000E-01   1.00800           0
     12354 MEMB     112      POPC     H16Y     HAL3     0.900000E-01   1.00800           0
     12355 MEMB     112      POPC     H16Z     HAL3     0.900000E-01   1.00800           0
     12356 MEMB     113      POPS     N        NH3L    -0.300000       14.0070           0
     12357 MEMB     113      POPS     HN1      HCL      0.330000       1.00800           0
     12358 MEMB     113      POPS     HN2      HCL      0.330000       1.00800           0
     12359 MEMB     113      POPS     HN3      HCL      0.330000       1.00800           0
     12360 MEMB     113      POPS     C12      CTL1     0.210000       12.0110           0
     12361 MEMB     113      POPS     H12A     HBL      0.100000       1.00800           0
     12362 MEMB     113      POPS     C13      CCL      0.340000       12.0110           0
     12363 MEMB     113      POPS     O13A     OCL     -0.670000       15.9994           0
     12364 MEMB     113      POPS     O13B     OCL     -0.670000       15.9994           0
     12365 MEMB     113      POPS     C11      CTL2    -0.800000E-01   12.0110           0
     12366 MEMB     113      POPS     H11A     HAL2     0.900000E-01   1.00800           0
     12367 MEMB     113      POPS     H11B     HAL2     0.900000E-01   1.00800           0
     12368 MEMB     113      POPS     P        PL       1.500000       30.9740           0
     12369 MEMB     113      POPS     O13      O2L     -0.780000       15.9994           0
     12370 MEMB     113      POPS     O14      O2L     -0.780000       15.9994           0
     12371 MEMB     113      POPS     O12      OSLP    -0.570000       15.9994           0
     12372 MEMB     113      POPS     O11      OSLP    -0.570000       15.9994           0
     12373 MEMB     113      POPS     C1       CTL2    -0.800000E-01   12.0110           0
     12374 MEMB     113      POPS     HA       HAL2     0.900000E-01   1.00800           0
     12375 MEMB     113      POPS     HB       HAL2     0.900000E-01   1.00800           0
     12376 MEMB     113      POPS     C2       CTL1     0.170000       12.0110           0
     12377 MEMB     113      POPS     HS       HAL1     0.900000E-01   1.00800           0
     12378 MEMB     113      POPS     O21      OSL     -0.490000       15.9994           0
     12379 MEMB     113      POPS     C21      CL       0.900000       12.0110           0
     12380 MEMB     113      POPS     O22      OBL     -0.630000       15.9994           0
     12381 MEMB     113      POPS     C22      CTL2    -0.220000       12.0110           0
     12382 MEMB     113      POPS     H2R      HAL2     0.900000E-01   1.00800           0
     12383 MEMB     113      POPS     H2S      HAL2     0.900000E-01   1.00800           0
     12384 MEMB     113      POPS     C3       CTL2     0.800000E-01   12.0110           0
     12385 MEMB     113      POPS     HX       HAL2     0.900000E-01   1.00800           0
     12386 MEMB     113      POPS     HY       HAL2     0.900000E-01   1.00800           0
     12387 MEMB     113      POPS     O31      OSL     -0.490000       15.9994           0
     12388 MEMB     113      POPS     C31      CL       0.900000       12.0110           0
     12389 MEMB     113      POPS     O32      OBL     -0.630000       15.9994           0
     12390 MEMB     113      POPS     C32      CTL2    -0.220000       12.0110           0
     12391 MEMB     113      POPS     H2X      HAL2     0.900000E-01   1.00800           0
     12392 MEMB     113      POPS     H2Y      HAL2     0.900000E-01   1.00800           0
     12393 MEMB     113      POPS     C23      CTL2    -0.180000       12.0110           0
     12394 MEMB     113      POPS     H3R      HAL2     0.900000E-01   1.00800           0
     12395 MEMB     113      POPS     H3S      HAL2     0.900000E-01   1.00800           0
     12396 MEMB     113      POPS     C24      CTL2    -0.180000       12.0110           0
     12397 MEMB     113      POPS     H4R      HAL2     0.900000E-01   1.00800           0
     12398 MEMB     113      POPS     H4S      HAL2     0.900000E-01   1.00800           0
     12399 MEMB     113      POPS     C25      CTL2    -0.180000       12.0110           0
     12400 MEMB     113      POPS     H5R      HAL2     0.900000E-01   1.00800           0
     12401 MEMB     113      POPS     H5S      HAL2     0.900000E-01   1.00800           0
     12402 MEMB     113      POPS     C26      CTL2    -0.180000       12.0110           0
     12403 MEMB     113      POPS     H6R      HAL2     0.900000E-01   1.00800           0
     12404 MEMB     113      POPS     H6S      HAL2     0.900000E-01   1.00800           0
     12405 MEMB     113      POPS     C27      CTL2    -0.180000       12.0110           0
     12406 MEMB     113      POPS     H7R      HAL2     0.900000E-01   1.00800           0
     12407 MEMB     113      POPS     H7S      HAL2     0.900000E-01   1.00800           0
     12408 MEMB     113      POPS     C28      CTL2    -0.180000       12.0110           0
     12409 MEMB     113      POPS     H8R      HAL2     0.900000E-01   1.00800           0
     12410 MEMB     113      POPS     H8S      HAL2     0.900000E-01   1.00800           0
     12411 MEMB     113      POPS     C29      CEL1    -0.150000       12.0110           0
     12412 MEMB     113      POPS     H91      HEL1     0.150000       1.00800           0
     12413 MEMB     113      POPS     C210     CEL1    -0.150000       12.0110           0
     12414 MEMB     113      POPS     H101     HEL1     0.150000       1.00800           0
     12415 MEMB     113      POPS     C211     CTL2    -0.180000       12.0110           0
     12416 MEMB     113      POPS     H11R     HAL2     0.900000E-01   1.00800           0
     12417 MEMB     113      POPS     H11S     HAL2     0.900000E-01   1.00800           0
     12418 MEMB     113      POPS     C212     CTL2    -0.180000       12.0110           0
     12419 MEMB     113      POPS     H12R     HAL2     0.900000E-01   1.00800           0
     12420 MEMB     113      POPS     H12S     HAL2     0.900000E-01   1.00800           0
     12421 MEMB     113      POPS     C213     CTL2    -0.180000       12.0110           0
     12422 MEMB     113      POPS     H13R     HAL2     0.900000E-01   1.00800           0
     12423 MEMB     113      POPS     H13S     HAL2     0.900000E-01   1.00800           0
     12424 MEMB     113      POPS     C214     CTL2    -0.180000       12.0110           0
     12425 MEMB     113      POPS     H14R     HAL2     0.900000E-01   1.00800           0
     12426 MEMB     113      POPS     H14S     HAL2     0.900000E-01   1.00800           0
     12427 MEMB     113      POPS     C215     CTL2    -0.180000       12.0110           0
     12428 MEMB     113      POPS     H15R     HAL2     0.900000E-01   1.00800           0
     12429 MEMB     113      POPS     H15S     HAL2     0.900000E-01   1.00800           0
     12430 MEMB     113      POPS     C216     CTL2    -0.180000       12.0110           0
     12431 MEMB     113      POPS     H16R     HAL2     0.900000E-01   1.00800           0
     12432 MEMB     113      POPS     H16S     HAL2     0.900000E-01   1.00800           0
     12433 MEMB     113      POPS     C217     CTL2    -0.180000       12.0110           0
     12434 MEMB     113      POPS     H17R     HAL2     0.900000E-01   1.00800           0
     12435 MEMB     113      POPS     H17S     HAL2     0.900000E-01   1.00800           0
     12436 MEMB     113      POPS     C218     CTL3    -0.270000       12.0110           0
     12437 MEMB     113      POPS     H18R     HAL3     0.900000E-01   1.00800           0
     12438 MEMB     113      POPS     H18S     HAL3     0.900000E-01   1.00800           0
     12439 MEMB     113      POPS     H18T     HAL3     0.900000E-01   1.00800           0
     12440 MEMB     113      POPS     C33      CTL2    -0.180000       12.0110           0
     12441 MEMB     113      POPS     H3X      HAL2     0.900000E-01   1.00800           0
     12442 MEMB     113      POPS     H3Y      HAL2     0.900000E-01   1.00800           0
     12443 MEMB     113      POPS     C34      CTL2    -0.180000       12.0110           0
     12444 MEMB     113      POPS     H4X      HAL2     0.900000E-01   1.00800           0
     12445 MEMB     113      POPS     H4Y      HAL2     0.900000E-01   1.00800           0
     12446 MEMB     113      POPS     C35      CTL2    -0.180000       12.0110           0
     12447 MEMB     113      POPS     H5X      HAL2     0.900000E-01   1.00800           0
     12448 MEMB     113      POPS     H5Y      HAL2     0.900000E-01   1.00800           0
     12449 MEMB     113      POPS     C36      CTL2    -0.180000       12.0110           0
     12450 MEMB     113      POPS     H6X      HAL2     0.900000E-01   1.00800           0
     12451 MEMB     113      POPS     H6Y      HAL2     0.900000E-01   1.00800           0
     12452 MEMB     113      POPS     C37      CTL2    -0.180000       12.0110           0
     12453 MEMB     113      POPS     H7X      HAL2     0.900000E-01   1.00800           0
     12454 MEMB     113      POPS     H7Y      HAL2     0.900000E-01   1.00800           0
     12455 MEMB     113      POPS     C38      CTL2    -0.180000       12.0110           0
     12456 MEMB     113      POPS     H8X      HAL2     0.900000E-01   1.00800           0
     12457 MEMB     113      POPS     H8Y      HAL2     0.900000E-01   1.00800           0
     12458 MEMB     113      POPS     C39      CTL2    -0.180000       12.0110           0
     12459 MEMB     113      POPS     H9X      HAL2     0.900000E-01   1.00800           0
     12460 MEMB     113      POPS     H9Y      HAL2     0.900000E-01   1.00800           0
     12461 MEMB     113      POPS     C310     CTL2    -0.180000       12.0110           0
     12462 MEMB     113      POPS     H10X     HAL2     0.900000E-01   1.00800           0
     12463 MEMB     113      POPS     H10Y     HAL2     0.900000E-01   1.00800           0
     12464 MEMB     113      POPS     C311     CTL2    -0.180000       12.0110           0
     12465 MEMB     113      POPS     H11X     HAL2     0.900000E-01   1.00800           0
     12466 MEMB     113      POPS     H11Y     HAL2     0.900000E-01   1.00800           0
     12467 MEMB     113      POPS     C312     CTL2    -0.180000       12.0110           0
     12468 MEMB     113      POPS     H12X     HAL2     0.900000E-01   1.00800           0
     12469 MEMB     113      POPS     H12Y     HAL2     0.900000E-01   1.00800           0
     12470 MEMB     113      POPS     C313     CTL2    -0.180000       12.0110           0
     12471 MEMB     113      POPS     H13X     HAL2     0.900000E-01   1.00800           0
     12472 MEMB     113      POPS     H13Y     HAL2     0.900000E-01   1.00800           0
     12473 MEMB     113      POPS     C314     CTL2    -0.180000       12.0110           0
     12474 MEMB     113      POPS     H14X     HAL2     0.900000E-01   1.00800           0
     12475 MEMB     113      POPS     H14Y     HAL2     0.900000E-01   1.00800           0
     12476 MEMB     113      POPS     C315     CTL2    -0.180000       12.0110           0
     12477 MEMB     113      POPS     H15X     HAL2     0.900000E-01   1.00800           0
     12478 MEMB     113      POPS     H15Y     HAL2     0.900000E-01   1.00800           0
     12479 MEMB     113      POPS     C316     CTL3    -0.270000       12.0110           0
     12480 MEMB     113      POPS     H16X     HAL3     0.900000E-01   1.00800           0
     12481 MEMB     113      POPS     H16Y     HAL3     0.900000E-01   1.00800           0
     12482 MEMB     113      POPS     H16Z     HAL3     0.900000E-01   1.00800           0
     12483 TIP3     1        TIP3     OH2      OT      -0.834000       15.9994           0
     12484 TIP3     1        TIP3     H1       HT       0.417000       1.00800           0
     12485 TIP3     1        TIP3     H2       HT       0.417000       1.00800           0
     12486 TIP3     2        TIP3     OH2      OT      -0.834000       15.9994           0
     12487 TIP3     2        TIP3     H1       HT       0.417000       1.00800           0
     12488 TIP3     2        TIP3     H2       HT       0.417000       1.00800           0
     12489 TIP3     3        TIP3     OH2      OT      -0.834000       15.9994           0
     12490 TIP3     3        TIP3     H1       HT       0.417000       1.00800           0
     12491 TIP3     3        TIP3     H2       HT       0.417000       1.00800           0
     12492 TIP3     4        TIP3     OH2      OT      -0.834000       15.9994           0
     12493 TIP3     4        TIP3     H1       HT       0.417000       1.00800           0
     12494 TIP3     4        TIP3     H2       HT       0.417000       1.00800           0
     12495 TIP3     5        TIP3     OH2      OT      -0.834000       15.9994           0
     12496 TIP3     5        TIP3     H1       HT       0.417000       1.00800           0
     12497 TIP3     5        TIP3     H2       HT       0.417000       1.00800           0
     12498 TIP3     6        TIP3     OH2      OT      -0.834000       15.9994           0
     12499 TIP3     6        TIP3     H1       HT       0.417000       1.00800           0
     12500 TIP3     6        TIP3     H2       HT       0.417000       1.00800           0
     12501 TIP3     7        TIP3     OH2      OT      -0.834000       15.9994           0
     12502 TIP3     7        TIP3     H1       HT       0.417000       1.00800           0
     12503 TIP3     7        TIP3     H2       HT       0.417000       1.00800           0
     12504 TIP3     8        TIP3     OH2      OT      -0.834000       15.9994           0
     12505 TIP3     8        TIP3     H1       HT       0.417000       1.00800           0
     12506 TIP3     8        TIP3     H2       HT       0.417000       1.00800           0
     12507 TIP3     9        TIP3     OH2      OT      -0.834000       15.9994           0
     12508 TIP3     9        TIP3     H1       HT       0.417000       1.00800           0
     12509 TIP3     9        TIP3     H2       HT       0.417000       1.00800           0
     12510 TIP3     10       TIP3     OH2      OT      -0.834000       15.9994           0
     12511 TIP3     10       TIP3     H1       HT       0.417000       1.00800           0
     12512 TIP3     10       TIP3     H2       HT       0.417000       1.00800           0
     12513 TIP3     11       TIP3     OH2      OT      -0.834000       15.9994           0
     12514 TIP3     11       TIP3     H1       HT       0.417000       1.00800           0
     12515 TIP3     11       TIP3     H2       HT       0.417000       1.00800           0
     12516 TIP3     12       TIP3     OH2      OT      -0.834000       15.9994           0
     12517 TIP3     12       TIP3     H1       HT       0.417000       1.00800           0
     12518 TIP3     12       TIP3     H2       HT       0.417000       1.00800           0
     12519 TIP3     13       TIP3     OH2      OT      -0.834000       15.9994           0
     12520 TIP3     13       TIP3     H1       HT       0.417000       1.00800           0
     12521 TIP3     13       TIP3     H2       HT       0.417000       1.00800           0
     12522 TIP3     14       TIP3     OH2      OT      -0.834000       15.9994           0
     12523 TIP3     14       TIP3     H1       HT       0.417000       1.00800           0
     12524 TIP3     14       TIP3     H2       HT       0.417000       1.00800           0
     12525 TIP3     15       TIP3     OH2      OT      -0.834000       15.9994           0
     12526 TIP3     15       TIP3     H1       HT       0.417000       1.00800           0
     12527 TIP3     15       TIP3     H2       HT       0.417000       1.00800           0
     12528 TIP3     16       TIP3     OH2      OT      -0.834000       15.9994           0
     12529 TIP3     16       TIP3     H1       HT       0.417000       1.00800           0
     12530 TIP3     16       TIP3     H2       HT       0.417000       1.00800           0
     12531 TIP3     17       TIP3     OH2      OT      -0.834000       15.9994           0
     12532 TIP3     17       TIP3     H1       HT       0.417000       1.00800           0
     12533 TIP3     17       TIP3     H2       HT       0.417000       1.00800           0
     12534 TIP3     18       TIP3     OH2      OT      -0.834000       15.9994           0
     12535 TIP3     18       TIP3     H1       HT       0.417000       1.00800           0
     12536 TIP3     18       TIP3     H2       HT       0.417000       1.00800           0
     12537 TIP3     19       TIP3     OH2      OT      -0.834000       15.9994           0
     12538 TIP3     19       TIP3     H1       HT       0.417000       1.00800           0
     12539 TIP3     19       TIP3     H2       HT       0.417000       1.00800           0
     12540 TIP3     20       TIP3     OH2      OT      -0.834000       15.9994           0
     12541 TIP3     20       TIP3     H1       HT       0.417000       1.00800           0
     12542 TIP3     20       TIP3     H2       HT       0.417000       1.00800           0
     12543 TIP3     21       TIP3     OH2      OT      -0.834000       15.9994           0
     12544 TIP3     21       TIP3     H1       HT       0.417000       1.00800           0
     12545 TIP3     21       TIP3     H2       HT       0.417000       1.00800           0
     12546 TIP3     22       TIP3     OH2      OT      -0.834000       15.9994           0
     12547 TIP3     22       TIP3     H1       HT       0.417000       1.00800           0
     12548 TIP3     22       TIP3     H2       HT       0.417000       1.00800           0
     12549 TIP3     23       TIP3     OH2      OT      -0.834000       15.9994           0
     12550 TIP3     23       TIP3     H1       HT       0.417000       1.00800           0
     12551 TIP3     23       TIP3     H2       HT       0.417000       1.00800           0
     12552 TIP3     24       TIP3     OH2      OT      -0.834000       15.9994           0
     12553 TIP3     24       TIP3     H1       HT       0.417000       1.00800           0
     12554 TIP3     24       TIP3     H2       HT       0.417000       1.00800           0
     12555 TIP3     25       TIP3     OH2      OT      -0.834000       15.9994           0
     12556 TIP3     25       TIP3     H1       HT       0.417000       1.00800           0
     12557 TIP3     25       TIP3     H2       HT       0.417000       1.00800           0
     12558 TIP3     26       TIP3     OH2      OT      -0.834000       15.9994           0
     12559 TIP3     26       TIP3     H1       HT       0.417000       1.00800           0
     12560 TIP3     26       TIP3     H2       HT       0.417000       1.00800           0
     12561 TIP3     27       TIP3     OH2      OT      -0.834000       15.9994           0
     12562 TIP3     27       TIP3     H1       HT       0.417000       1.00800           0
     12563 TIP3     27       TIP3     H2       HT       0.417000       1.00800           0
     12564 TIP3     28       TIP3     OH2      OT      -0.834000       15.9994           0
     12565 TIP3     28       TIP3     H1       HT       0.417000       1.00800           0
     12566 TIP3     28       TIP3     H2       HT       0.417000       1.00800           0
     12567 TIP3     29       TIP3     OH2      OT      -0.834000       15.9994           0
     12568 TIP3     29       TIP3     H1       HT       0.417000       1.00800           0
     12569 TIP3     29       TIP3     H2       HT       0.417000       1.00800           0
     12570 TIP3     30       TIP3     OH2      OT      -0.834000       15.9994           0
     12571 TIP3     30       TIP3     H1       HT       0.417000       1.00800           0
     12572 TIP3     30       TIP3     H2       HT       0.417000       1.00800           0
     12573 TIP3     31       TIP3     OH2      OT      -0.834000       15.9994           0
     12574 TIP3     31       TIP3     H1       HT       0.417000       1.00800           0
     12575 TIP3     31       TIP3     H2       HT       0.417000       1.00800           0
     12576 TIP3     32       TIP3     OH2      OT      -0.834000       15.9994           0
     12577 TIP3     32       TIP3     H1       HT       0.417000       1.00800           0
     12578 TIP3     32       TIP3     H2       HT       0.417000       1.00800           0
     12579 TIP3     33       TIP3     OH2      OT      -0.834000       15.9994           0
     12580 TIP3     33       TIP3     H1       HT       0.417000       1.00800           0
     12581 TIP3     33       TIP3     H2       HT       0.417000       1.00800           0
     12582 TIP3     34       TIP3     OH2      OT      -0.834000       15.9994           0
     12583 TIP3     34       TIP3     H1       HT       0.417000       1.00800           0
     12584 TIP3     34       TIP3     H2       HT       0.417000       1.00800           0
     12585 TIP3     35       TIP3     OH2      OT      -0.834000       15.9994           0
     12586 TIP3     35       TIP3     H1       HT       0.417000       1.00800           0
     12587 TIP3     35       TIP3     H2       HT       0.417000       1.00800           0
     12588 TIP3     36       TIP3     OH2      OT      -0.834000       15.9994           0
     12589 TIP3     36       TIP3     H1       HT       0.417000       1.00800           0
     12590 TIP3     36       TIP3     H2       HT       0.417000       1.00800           0
     12591 TIP3     37       TIP3     OH2      OT      -0.834000       15.9994           0
     12592 TIP3     37       TIP3     H1       HT       0.417000       1.00800           0
     12593 TIP3     37       TIP3     H2       HT       0.417000       1.00800           0
     12594 TIP3     38       TIP3     OH2      OT      -0.834000       15.9994           0
     12595 TIP3     38       TIP3     H1       HT       0.417000       1.00800           0
     12596 TIP3     38       TIP3     H2       HT       0.417000       1.00800           0
     12597 TIP3     39       TIP3     OH2      OT      -0.834000       15.9994           0
     12598 TIP3     39       TIP3     H1       HT       0.417000       1.00800           0
     12599 TIP3     39       TIP3     H2       HT       0.417000       1.00800           0
     12600 TIP3     40       TIP3     OH2      OT      -0.834000       15.9994           0
     12601 TIP3     40       TIP3     H1       HT       0.417000       1.00800           0
     12602 TIP3     40       TIP3     H2       HT       0.417000       1.00800           0
     12603 TIP3     41       TIP3     OH2      OT      -0.834000       15.9994           0
     12604 TIP3     41       TIP3     H1       HT       0.417000       1.00800           0
     12605 TIP3     41       TIP3     H2       HT       0.417000       1.00800           0
     12606 TIP3     42       TIP3     OH2      OT      -0.834000       15.9994           0
     12607 TIP3     42       TIP3     H1       HT       0.417000       1.00800           0
     12608 TIP3     42       TIP3     H2       HT       0.417000       1.00800           0
     12609 TIP3     43       TIP3     OH2      OT      -0.834000       15.9994           0
     12610 TIP3     43       TIP3     H1       HT       0.417000       1.00800           0
     12611 TIP3     43       TIP3     H2       HT       0.417000       1.00800           0
     12612 TIP3     44       TIP3     OH2      OT      -0.834000       15.9994           0
     12613 TIP3     44       TIP3     H1       HT       0.417000       1.00800           0
     12614 TIP3     44       TIP3     H2       HT       0.417000       1.00800           0
     12615 TIP3     45       TIP3     OH2      OT      -0.834000       15.9994           0
     12616 TIP3     45       TIP3     H1       HT       0.417000       1.00800           0
     12617 TIP3     45       TIP3     H2       HT       0.417000       1.00800           0
     12618 TIP3     46       TIP3     OH2      OT      -0.834000       15.9994           0
     12619 TIP3     46       TIP3     H1       HT       0.417000       1.00800           0
     12620 TIP3     46       TIP3     H2       HT       0.417000       1.00800           0
     12621 TIP3     47       TIP3     OH2      OT      -0.834000       15.9994           0
     12622 TIP3     47       TIP3     H1       HT       0.417000       1.00800           0
     12623 TIP3     47       TIP3     H2       HT       0.417000       1.00800           0
     12624 TIP3     48       TIP3     OH2      OT      -0.834000       15.9994           0
     12625 TIP3     48       TIP3     H1       HT       0.417000       1.00800           0
     12626 TIP3     48       TIP3     H2       HT       0.417000       1.00800           0
     12627 TIP3     49       TIP3     OH2      OT      -0.834000       15.9994           0
     12628 TIP3     49       TIP3     H1       HT       0.417000       1.00800           0
     12629 TIP3     49       TIP3     H2       HT       0.417000       1.00800           0
     12630 TIP3     50       TIP3     OH2      OT      -0.834000       15.9994           0
     12631 TIP3     50       TIP3     H1       HT       0.417000       1.00800           0
     12632 TIP3     50       TIP3     H2       HT       0.417000       1.00800           0
     12633 TIP3     51       TIP3     OH2      OT      -0.834000       15.9994           0
     12634 TIP3     51       TIP3     H1       HT       0.417000       1.00800           0
     12635 TIP3     51       TIP3     H2       HT       0.417000       1.00800           0
     12636 TIP3     52       TIP3     OH2      OT      -0.834000       15.9994           0
     12637 TIP3     52       TIP3     H1       HT       0.417000       1.00800           0
     12638 TIP3     52       TIP3     H2       HT       0.417000       1.00800           0
     12639 TIP3     53       TIP3     OH2      OT      -0.834000       15.9994           0
     12640 TIP3     53       TIP3     H1       HT       0.417000       1.00800           0
     12641 TIP3     53       TIP3     H2       HT       0.417000       1.00800           0
     12642 TIP3     54       TIP3     OH2      OT      -0.834000       15.9994           0
     12643 TIP3     54       TIP3     H1       HT       0.417000       1.00800           0
     12644 TIP3     54       TIP3     H2       HT       0.417000       1.00800           0
     12645 TIP3     55       TIP3     OH2      OT      -0.834000       15.9994           0
     12646 TIP3     55       TIP3     H1       HT       0.417000       1.00800           0
     12647 TIP3     55       TIP3     H2       HT       0.417000       1.00800           0
     12648 TIP3     56       TIP3     OH2      OT      -0.834000       15.9994           0
     12649 TIP3     56       TIP3     H1       HT       0.417000       1.00800           0
     12650 TIP3     56       TIP3     H2       HT       0.417000       1.00800           0
     12651 TIP3     57       TIP3     OH2      OT      -0.834000       15.9994           0
     12652 TIP3     57       TIP3     H1       HT       0.417000       1.00800           0
     12653 TIP3     57       TIP3     H2       HT       0.417000       1.00800           0
     12654 TIP3     58       TIP3     OH2      OT      -0.834000       15.9994           0
     12655 TIP3     58       TIP3     H1       HT       0.417000       1.00800           0
     12656 TIP3     58       TIP3     H2       HT       0.417000       1.00800           0
     12657 TIP3     59       TIP3     OH2      OT      -0.834000       15.9994           0
     12658 TIP3     59       TIP3     H1       HT       0.417000       1.00800           0
     12659 TIP3     59       TIP3     H2       HT       0.417000       1.00800           0
     12660 TIP3     60       TIP3     OH2      OT      -0.834000       15.9994           0
     12661 TIP3     60       TIP3     H1       HT       0.417000       1.00800           0
     12662 TIP3     60       TIP3     H2       HT       0.417000       1.00800           0
     12663 TIP3     61       TIP3     OH2      OT      -0.834000       15.9994           0
     12664 TIP3     61       TIP3     H1       HT       0.417000       1.00800           0
     12665 TIP3     61       TIP3     H2       HT       0.417000       1.00800           0
     12666 TIP3     62       TIP3     OH2      OT      -0.834000       15.9994           0
     12667 TIP3     62       TIP3     H1       HT       0.417000       1.00800           0
     12668 TIP3     62       TIP3     H2       HT       0.417000       1.00800           0
     12669 TIP3     63       TIP3     OH2      OT      -0.834000       15.9994           0
     12670 TIP3     63       TIP3     H1       HT       0.417000       1.00800           0
     12671 TIP3     63       TIP3     H2       HT       0.417000       1.00800           0
     12672 TIP3     64       TIP3     OH2      OT      -0.834000       15.9994           0
     12673 TIP3     64       TIP3     H1       HT       0.417000       1.00800           0
     12674 TIP3     64       TIP3     H2       HT       0.417000       1.00800           0
     12675 TIP3     65       TIP3     OH2      OT      -0.834000       15.9994           0
     12676 TIP3     65       TIP3     H1       HT       0.417000       1.00800           0
     12677 TIP3     65       TIP3     H2       HT       0.417000       1.00800           0
     12678 TIP3     66       TIP3     OH2      OT      -0.834000       15.9994           0
     12679 TIP3     66       TIP3     H1       HT       0.417000       1.00800           0
     12680 TIP3     66       TIP3     H2       HT       0.417000       1.00800           0
     12681 TIP3     67       TIP3     OH2      OT      -0.834000       15.9994           0
     12682 TIP3     67       TIP3     H1       HT       0.417000       1.00800           0
     12683 TIP3     67       TIP3     H2       HT       0.417000       1.00800           0
     12684 TIP3     68       TIP3     OH2      OT      -0.834000       15.9994           0
     12685 TIP3     68       TIP3     H1       HT       0.417000       1.00800           0
     12686 TIP3     68       TIP3     H2       HT       0.417000       1.00800           0
     12687 TIP3     69       TIP3     OH2      OT      -0.834000       15.9994           0
     12688 TIP3     69       TIP3     H1       HT       0.417000       1.00800           0
     12689 TIP3     69       TIP3     H2       HT       0.417000       1.00800           0
     12690 TIP3     70       TIP3     OH2      OT      -0.834000       15.9994           0
     12691 TIP3     70       TIP3     H1       HT       0.417000       1.00800           0
     12692 TIP3     70       TIP3     H2       HT       0.417000       1.00800           0
     12693 TIP3     71       TIP3     OH2      OT      -0.834000       15.9994           0
     12694 TIP3     71       TIP3     H1       HT       0.417000       1.00800           0
     12695 TIP3     71       TIP3     H2       HT       0.417000       1.00800           0
     12696 TIP3     72       TIP3     OH2      OT      -0.834000       15.9994           0
     12697 TIP3     72       TIP3     H1       HT       0.417000       1.00800           0
     12698 TIP3     72       TIP3     H2       HT       0.417000       1.00800           0
     12699 TIP3     73       TIP3     OH2      OT      -0.834000       15.9994           0
     12700 TIP3     73       TIP3     H1       HT       0.417000       1.00800           0
     12701 TIP3     73       TIP3     H2       HT       0.417000       1.00800           0
     12702 TIP3     74       TIP3     OH2      OT      -0.834000       15.9994           0
     12703 TIP3     74       TIP3     H1       HT       0.417000       1.00800           0
     12704 TIP3     74       TIP3     H2       HT       0.417000       1.00800           0
     12705 TIP3     75       TIP3     OH2      OT      -0.834000       15.9994           0
     12706 TIP3     75       TIP3     H1       HT       0.417000       1.00800           0
     12707 TIP3     75       TIP3     H2       HT       0.417000       1.00800           0
     12708 TIP3     76       TIP3     OH2      OT      -0.834000       15.9994           0
     12709 TIP3     76       TIP3     H1       HT       0.417000       1.00800           0
     12710 TIP3     76       TIP3     H2       HT       0.417000       1.00800           0
     12711 TIP3     77       TIP3     OH2      OT      -0.834000       15.9994           0
     12712 TIP3     77       TIP3     H1       HT       0.417000       1.00800           0
     12713 TIP3     77       TIP3     H2       HT       0.417000       1.00800           0
     12714 TIP3     78       TIP3     OH2      OT      -0.834000       15.9994           0
     12715 TIP3     78       TIP3     H1       HT       0.417000       1.00800           0
     12716 TIP3     78       TIP3     H2       HT       0.417000       1.00800           0
     12717 TIP3     79       TIP3     OH2      OT      -0.834000       15.9994           0
     12718 TIP3     79       TIP3     H1       HT       0.417000       1.00800           0
     12719 TIP3     79       TIP3     H2       HT       0.417000       1.00800           0
     12720 TIP3     80       TIP3     OH2      OT      -0.834000       15.9994           0
     12721 TIP3     80       TIP3     H1       HT       0.417000       1.00800           0
     12722 TIP3     80       TIP3     H2       HT       0.417000       1.00800           0
     12723 TIP3     81       TIP3     OH2      OT      -0.834000       15.9994           0
     12724 TIP3     81       TIP3     H1       HT       0.417000       1.00800           0
     12725 TIP3     81       TIP3     H2       HT       0.417000       1.00800           0
     12726 TIP3     82       TIP3     OH2      OT      -0.834000       15.9994           0
     12727 TIP3     82       TIP3     H1       HT       0.417000       1.00800           0
     12728 TIP3     82       TIP3     H2       HT       0.417000       1.00800           0
     12729 TIP3     83       TIP3     OH2      OT      -0.834000       15.9994           0
     12730 TIP3     83       TIP3     H1       HT       0.417000       1.00800           0
     12731 TIP3     83       TIP3     H2       HT       0.417000       1.00800           0
     12732 TIP3     84       TIP3     OH2      OT      -0.834000       15.9994           0
     12733 TIP3     84       TIP3     H1       HT       0.417000       1.00800           0
     12734 TIP3     84       TIP3     H2       HT       0.417000       1.00800           0
     12735 TIP3     85       TIP3     OH2      OT      -0.834000       15.9994           0
     12736 TIP3     85       TIP3     H1       HT       0.417000       1.00800           0
     12737 TIP3     85       TIP3     H2       HT       0.417000       1.00800           0
     12738 TIP3     86       TIP3     OH2      OT      -0.834000       15.9994           0
     12739 TIP3     86       TIP3     H1       HT       0.417000       1.00800           0
     12740 TIP3     86       TIP3     H2       HT       0.417000       1.00800           0
     12741 TIP3     87       TIP3     OH2      OT      -0.834000       15.9994           0
     12742 TIP3     87       TIP3     H1       HT       0.417000       1.00800           0
     12743 TIP3     87       TIP3     H2       HT       0.417000       1.00800           0
     12744 TIP3     88       TIP3     OH2      OT      -0.834000       15.9994           0
     12745 TIP3     88       TIP3     H1       HT       0.417000       1.00800           0
     12746 TIP3     88       TIP3     H2       HT       0.417000       1.00800           0
     12747 TIP3     89       TIP3     OH2      OT      -0.834000       15.9994           0
     12748 TIP3     89       TIP3     H1       HT       0.417000       1.00800           0
     12749 TIP3     89       TIP3     H2       HT       0.417000       1.00800           0
     12750 TIP3     90       TIP3     OH2      OT      -0.834000       15.9994           0
     12751 TIP3     90       TIP3     H1       HT       0.417000       1.00800           0
     12752 TIP3     90       TIP3     H2       HT       0.417000       1.00800           0
     12753 TIP3     91       TIP3     OH2      OT      -0.834000       15.9994           0
     12754 TIP3     91       TIP3     H1       HT       0.417000       1.00800           0
     12755 TIP3     91       TIP3     H2       HT       0.417000       1.00800           0
     12756 TIP3     92       TIP3     OH2      OT      -0.834000       15.9994           0
     12757 TIP3     92       TIP3     H1       HT       0.417000       1.00800           0
     12758 TIP3     92       TIP3     H2       HT       0.417000       1.00800           0
     12759 TIP3     93       TIP3     OH2      OT      -0.834000       15.9994           0
     12760 TIP3     93       TIP3     H1       HT       0.417000       1.00800           0
     12761 TIP3     93       TIP3     H2       HT       0.417000       1.00800           0
     12762 TIP3     94       TIP3     OH2      OT      -0.834000       15.9994           0
     12763 TIP3     94       TIP3     H1       HT       0.417000       1.00800           0
     12764 TIP3     94       TIP3     H2       HT       0.417000       1.00800           0
     12765 TIP3     95       TIP3     OH2      OT      -0.834000       15.9994           0
     12766 TIP3     95       TIP3     H1       HT       0.417000       1.00800           0
     12767 TIP3     95       TIP3     H2       HT       0.417000       1.00800           0
     12768 TIP3     96       TIP3     OH2      OT      -0.834000       15.9994           0
     12769 TIP3     96       TIP3     H1       HT       0.417000       1.00800           0
     12770 TIP3     96       TIP3     H2       HT       0.417000       1.00800           0
     12771 TIP3     97       TIP3     OH2      OT      -0.834000       15.9994           0
     12772 TIP3     97       TIP3     H1       HT       0.417000       1.00800           0
     12773 TIP3     97       TIP3     H2       HT       0.417000       1.00800           0
     12774 TIP3     98       TIP3     OH2      OT      -0.834000       15.9994           0
     12775 TIP3     98       TIP3     H1       HT       0.417000       1.00800           0
     12776 TIP3     98       TIP3     H2       HT       0.417000       1.00800           0
     12777 TIP3     99       TIP3     OH2      OT      -0.834000       15.9994           0
     12778 TIP3     99       TIP3     H1       HT       0.417000       1.00800           0
     12779 TIP3     99       TIP3     H2       HT       0.417000       1.00800           0
     12780 TIP3     100      TIP3     OH2      OT      -0.834000       15.9994           0
     12781 TIP3     100      TIP3     H1       HT       0.417000       1.00800           0
     12782 TIP3     100      TIP3     H2       HT       0.417000       1.00800           0
     12783 TIP3     101      TIP3     OH2      OT      -0.834000       15.9994           0
     12784 TIP3     101      TIP3     H1       HT       0.417000       1.00800           0
     12785 TIP3     101      TIP3     H2       HT       0.417000       1.00800           0
     12786 TIP3     102      TIP3     OH2      OT      -0.834000       15.9994           0
     12787 TIP3     102      TIP3     H1       HT       0.417000       1.00800           0
     12788 TIP3     102      TIP3     H2       HT       0.417000       1.00800           0
     12789 TIP3     103      TIP3     OH2      OT      -0.834000       15.9994           0
     12790 TIP3     103      TIP3     H1       HT       0.417000       1.00800           0
     12791 TIP3     103      TIP3     H2       HT       0.417000       1.00800           0
     12792 TIP3     104      TIP3     OH2      OT      -0.834000       15.9994           0
     12793 TIP3     104      TIP3     H1       HT       0.417000       1.00800           0
     12794 TIP3     104      TIP3     H2       HT       0.417000       1.00800           0
     12795 TIP3     105      TIP3     OH2      OT      -0.834000       15.9994           0
     12796 TIP3     105      TIP3     H1       HT       0.417000       1.00800           0
     12797 TIP3     105      TIP3     H2       HT       0.417000       1.00800           0
     12798 TIP3     106      TIP3     OH2      OT      -0.834000       15.9994           0
     12799 TIP3     106      TIP3     H1       HT       0.417000       1.00800           0
     12800 TIP3     106      TIP3     H2       HT       0.417000       1.00800           0
     12801 TIP3     107      TIP3     OH2      OT      -0.834000       15.9994           0
     12802 TIP3     107      TIP3     H1       HT       0.417000       1.00800           0
     12803 TIP3     107      TIP3     H2       HT       0.417000       1.00800           0
     12804 TIP3     108      TIP3     OH2      OT      -0.834000       15.9994           0
     12805 TIP3     108      TIP3     H1       HT       0.417000       1.00800           0
     12806 TIP3     108      TIP3     H2       HT       0.417000       1.00800           0
     12807 TIP3     109      TIP3     OH2      OT      -0.834000       15.9994           0
     12808 TIP3     109      TIP3     H1       HT       0.417000       1.00800           0
     12809 TIP3     109      TIP3     H2       HT       0.417000       1.00800           0
     12810 TIP3     110      TIP3     OH2      OT      -0.834000       15.9994           0
     12811 TIP3     110      TIP3     H1       HT       0.417000       1.00800           0
     12812 TIP3     110      TIP3     H2       HT       0.417000       1.00800           0
     12813 TIP3     111      TIP3     OH2      OT      -0.834000       15.9994           0
     12814 TIP3     111      TIP3     H1       HT       0.417000       1.00800           0
     12815 TIP3     111      TIP3     H2       HT       0.417000       1.00800           0
     12816 TIP3     112      TIP3     OH2      OT      -0.834000       15.9994           0
     12817 TIP3     112      TIP3     H1       HT       0.417000       1.00800           0
     12818 TIP3     112      TIP3     H2       HT       0.417000       1.00800           0
     12819 TIP3     113      TIP3     OH2      OT      -0.834000       15.9994           0
     12820 TIP3     113      TIP3     H1       HT       0.417000       1.00800           0
     12821 TIP3     113      TIP3     H2       HT       0.417000       1.00800           0
     12822 TIP3     114      TIP3     OH2      OT      -0.834000       15.9994           0
     12823 TIP3     114      TIP3     H1       HT       0.417000       1.00800           0
     12824 TIP3     114      TIP3     H2       HT       0.417000       1.00800           0
     12825 TIP3     115      TIP3     OH2      OT      -0.834000       15.9994           0
     12826 TIP3     115      TIP3     H1       HT       0.417000       1.00800           0
     12827 TIP3     115      TIP3     H2       HT       0.417000       1.00800           0
     12828 TIP3     116      TIP3     OH2      OT      -0.834000       15.9994           0
     12829 TIP3     116      TIP3     H1       HT       0.417000       1.00800           0
     12830 TIP3     116      TIP3     H2       HT       0.417000       1.00800           0
     12831 TIP3     117      TIP3     OH2      OT      -0.834000       15.9994           0
     12832 TIP3     117      TIP3     H1       HT       0.417000       1.00800           0
     12833 TIP3     117      TIP3     H2       HT       0.417000       1.00800           0
     12834 TIP3     118      TIP3     OH2      OT      -0.834000       15.9994           0
     12835 TIP3     118      TIP3     H1       HT       0.417000       1.00800           0
     12836 TIP3     118      TIP3     H2       HT       0.417000       1.00800           0
     12837 TIP3     119      TIP3     OH2      OT      -0.834000       15.9994           0
     12838 TIP3     119      TIP3     H1       HT       0.417000       1.00800           0
     12839 TIP3     119      TIP3     H2       HT       0.417000       1.00800           0
     12840 TIP3     120      TIP3     OH2      OT      -0.834000       15.9994           0
     12841 TIP3     120      TIP3     H1       HT       0.417000       1.00800           0
     12842 TIP3     120      TIP3     H2       HT       0.417000       1.00800           0
     12843 TIP3     121      TIP3     OH2      OT      -0.834000       15.9994           0
     12844 TIP3     121      TIP3     H1       HT       0.417000       1.00800           0
     12845 TIP3     121      TIP3     H2       HT       0.417000       1.00800           0
     12846 TIP3     122      TIP3     OH2      OT      -0.834000       15.9994           0
     12847 TIP3     122      TIP3     H1       HT       0.417000       1.00800           0
     12848 TIP3     122      TIP3     H2       HT       0.417000       1.00800           0
     12849 TIP3     123      TIP3     OH2      OT      -0.834000       15.9994           0
     12850 TIP3     123      TIP3     H1       HT       0.417000       1.00800           0
     12851 TIP3     123      TIP3     H2       HT       0.417000       1.00800           0
     12852 TIP3     124      TIP3     OH2      OT      -0.834000       15.9994           0
     12853 TIP3     124      TIP3     H1       HT       0.417000       1.00800           0
     12854 TIP3     124      TIP3     H2       HT       0.417000       1.00800           0
     12855 TIP3     125      TIP3     OH2      OT      -0.834000       15.9994           0
     12856 TIP3     125      TIP3     H1       HT       0.417000       1.00800           0
     12857 TIP3     125      TIP3     H2       HT       0.417000       1.00800           0
     12858 TIP3     126      TIP3     OH2      OT      -0.834000       15.9994           0
     12859 TIP3     126      TIP3     H1       HT       0.417000       1.00800           0
     12860 TIP3     126      TIP3     H2       HT       0.417000       1.00800           0
     12861 TIP3     127      TIP3     OH2      OT      -0.834000       15.9994           0
     12862 TIP3     127      TIP3     H1       HT       0.417000       1.00800           0
     12863 TIP3     127      TIP3     H2       HT       0.417000       1.00800           0
     12864 TIP3     128      TIP3     OH2      OT      -0.834000       15.9994           0
     12865 TIP3     128      TIP3     H1       HT       0.417000       1.00800           0
     12866 TIP3     128      TIP3     H2       HT       0.417000       1.00800           0
     12867 TIP3     129      TIP3     OH2      OT      -0.834000       15.9994           0
     12868 TIP3     129      TIP3     H1       HT       0.417000       1.00800           0
     12869 TIP3     129      TIP3     H2       HT       0.417000       1.00800           0
     12870 TIP3     130      TIP3     OH2      OT      -0.834000       15.9994           0
     12871 TIP3     130      TIP3     H1       HT       0.417000       1.00800           0
     12872 TIP3     130      TIP3     H2       HT       0.417000       1.00800           0
     12873 TIP3     131      TIP3     OH2      OT      -0.834000       15.9994           0
     12874 TIP3     131      TIP3     H1       HT       0.417000       1.00800           0
     12875 TIP3     131      TIP3     H2       HT       0.417000       1.00800           0
     12876 TIP3     132      TIP3     OH2      OT      -0.834000       15.9994           0
     12877 TIP3     132      TIP3     H1       HT       0.417000       1.00800           0
     12878 TIP3     132      TIP3     H2       HT       0.417000       1.00800           0
     12879 TIP3     133      TIP3     OH2      OT      -0.834000       15.9994           0
     12880 TIP3     133      TIP3     H1       HT       0.417000       1.00800           0
     12881 TIP3     133      TIP3     H2       HT       0.417000       1.00800           0
     12882 TIP3     134      TIP3     OH2      OT      -0.834000       15.9994           0
     12883 TIP3     134      TIP3     H1       HT       0.417000       1.00800           0
     12884 TIP3     134      TIP3     H2       HT       0.417000       1.00800           0
     12885 TIP3     135      TIP3     OH2      OT      -0.834000       15.9994           0
     12886 TIP3     135      TIP3     H1       HT       0.417000       1.00800           0
     12887 TIP3     135      TIP3     H2       HT       0.417000       1.00800           0
     12888 TIP3     136      TIP3     OH2      OT      -0.834000       15.9994           0
     12889 TIP3     136      TIP3     H1       HT       0.417000       1.00800           0
     12890 TIP3     136      TIP3     H2       HT       0.417000       1.00800           0
     12891 TIP3     137      TIP3     OH2      OT      -0.834000       15.9994           0
     12892 TIP3     137      TIP3     H1       HT       0.417000       1.00800           0
     12893 TIP3     137      TIP3     H2       HT       0.417000       1.00800           0
     12894 TIP3     138      TIP3     OH2      OT      -0.834000       15.9994           0
     12895 TIP3     138      TIP3     H1       HT       0.417000       1.00800           0
     12896 TIP3     138      TIP3     H2       HT       0.417000       1.00800           0
     12897 TIP3     139      TIP3     OH2      OT      -0.834000       15.9994           0
     12898 TIP3     139      TIP3     H1       HT       0.417000       1.00800           0
     12899 TIP3     139      TIP3     H2       HT       0.417000       1.00800           0
     12900 TIP3     140      TIP3     OH2      OT      -0.834000       15.9994           0
     12901 TIP3     140      TIP3     H1       HT       0.417000       1.00800           0
     12902 TIP3     140      TIP3     H2       HT       0.417000       1.00800           0
     12903 TIP3     141      TIP3     OH2      OT      -0.834000       15.9994           0
     12904 TIP3     141      TIP3     H1       HT       0.417000       1.00800           0
     12905 TIP3     141      TIP3     H2       HT       0.417000       1.00800           0
     12906 TIP3     142      TIP3     OH2      OT      -0.834000       15.9994           0
     12907 TIP3     142      TIP3     H1       HT       0.417000       1.00800           0
     12908 TIP3     142      TIP3     H2       HT       0.417000       1.00800           0
     12909 TIP3     143      TIP3     OH2      OT      -0.834000       15.9994           0
     12910 TIP3     143      TIP3     H1       HT       0.417000       1.00800           0
     12911 TIP3     143      TIP3     H2       HT       0.417000       1.00800           0
     12912 TIP3     144      TIP3     OH2      OT      -0.834000       15.9994           0
     12913 TIP3     144      TIP3     H1       HT       0.417000       1.00800           0
     12914 TIP3     144      TIP3     H2       HT       0.417000       1.00800           0
     12915 TIP3     145      TIP3     OH2      OT      -0.834000       15.9994           0
     12916 TIP3     145      TIP3     H1       HT       0.417000       1.00800           0
     12917 TIP3     145      TIP3     H2       HT       0.417000       1.00800           0
     12918 TIP3     146      TIP3     OH2      OT      -0.834000       15.9994           0
     12919 TIP3     146      TIP3     H1       HT       0.417000       1.00800           0
     12920 TIP3     146      TIP3     H2       HT       0.417000       1.00800           0
     12921 TIP3     147      TIP3     OH2      OT      -0.834000       15.9994           0
     12922 TIP3     147      TIP3     H1       HT       0.417000       1.00800           0
     12923 TIP3     147      TIP3     H2       HT       0.417000       1.00800           0
     12924 TIP3     148      TIP3     OH2      OT      -0.834000       15.9994           0
     12925 TIP3     148      TIP3     H1       HT       0.417000       1.00800           0
     12926 TIP3     148      TIP3     H2       HT       0.417000       1.00800           0
     12927 TIP3     149      TIP3     OH2      OT      -0.834000       15.9994           0
     12928 TIP3     149      TIP3     H1       HT       0.417000       1.00800           0
     12929 TIP3     149      TIP3     H2       HT       0.417000       1.00800           0
     12930 TIP3     150      TIP3     OH2      OT      -0.834000       15.9994           0
     12931 TIP3     150      TIP3     H1       HT       0.417000       1.00800           0
     12932 TIP3     150      TIP3     H2       HT       0.417000       1.00800           0
     12933 TIP3     151      TIP3     OH2      OT      -0.834000       15.9994           0
     12934 TIP3     151      TIP3     H1       HT       0.417000       1.00800           0
     12935 TIP3     151      TIP3     H2       HT       0.417000       1.00800           0
     12936 TIP3     152      TIP3     OH2      OT      -0.834000       15.9994           0
     12937 TIP3     152      TIP3     H1       HT       0.417000       1.00800           0
     12938 TIP3     152      TIP3     H2       HT       0.417000       1.00800           0
     12939 TIP3     153      TIP3     OH2      OT      -0.834000       15.9994           0
     12940 TIP3     153      TIP3     H1       HT       0.417000       1.00800           0
     12941 TIP3     153      TIP3     H2       HT       0.417000       1.00800           0
     12942 TIP3     154      TIP3     OH2      OT      -0.834000       15.9994           0
     12943 TIP3     154      TIP3     H1       HT       0.417000       1.00800           0
     12944 TIP3     154      TIP3     H2       HT       0.417000       1.00800           0
     12945 TIP3     155      TIP3     OH2      OT      -0.834000       15.9994           0
     12946 TIP3     155      TIP3     H1       HT       0.417000       1.00800           0
     12947 TIP3     155      TIP3     H2       HT       0.417000       1.00800           0
     12948 TIP3     156      TIP3     OH2      OT      -0.834000       15.9994           0
     12949 TIP3     156      TIP3     H1       HT       0.417000       1.00800           0
     12950 TIP3     156      TIP3     H2       HT       0.417000       1.00800           0
     12951 TIP3     157      TIP3     OH2      OT      -0.834000       15.9994           0
     12952 TIP3     157      TIP3     H1       HT       0.417000       1.00800           0
     12953 TIP3     157      TIP3     H2       HT       0.417000       1.00800           0
     12954 TIP3     158      TIP3     OH2      OT      -0.834000       15.9994           0
     12955 TIP3     158      TIP3     H1       HT       0.417000       1.00800           0
     12956 TIP3     158      TIP3     H2       HT       0.417000       1.00800           0
     12957 TIP3     159      TIP3     OH2      OT      -0.834000       15.9994           0
     12958 TIP3     159      TIP3     H1       HT       0.417000       1.00800           0
     12959 TIP3     159      TIP3     H2       HT       0.417000       1.00800           0
     12960 TIP3     160      TIP3     OH2      OT      -0.834000       15.9994           0
     12961 TIP3     160      TIP3     H1       HT       0.417000       1.00800           0
     12962 TIP3     160      TIP3     H2       HT       0.417000       1.00800           0
     12963 TIP3     161      TIP3     OH2      OT      -0.834000       15.9994           0
     12964 TIP3     161      TIP3     H1       HT       0.417000       1.00800           0
     12965 TIP3     161      TIP3     H2       HT       0.417000       1.00800           0
     12966 TIP3     162      TIP3     OH2      OT      -0.834000       15.9994           0
     12967 TIP3     162      TIP3     H1       HT       0.417000       1.00800           0
     12968 TIP3     162      TIP3     H2       HT       0.417000       1.00800           0
     12969 TIP3     163      TIP3     OH2      OT      -0.834000       15.9994           0
     12970 TIP3     163      TIP3     H1       HT       0.417000       1.00800           0
     12971 TIP3     163      TIP3     H2       HT       0.417000       1.00800           0
     12972 TIP3     164      TIP3     OH2      OT      -0.834000       15.9994           0
     12973 TIP3     164      TIP3     H1       HT       0.417000       1.00800           0
     12974 TIP3     164      TIP3     H2       HT       0.417000       1.00800           0
     12975 TIP3     165      TIP3     OH2      OT      -0.834000       15.9994           0
     12976 TIP3     165      TIP3     H1       HT       0.417000       1.00800           0
     12977 TIP3     165      TIP3     H2       HT       0.417000       1.00800           0
     12978 TIP3     166      TIP3     OH2      OT      -0.834000       15.9994           0
     12979 TIP3     166      TIP3     H1       HT       0.417000       1.00800           0
     12980 TIP3     166      TIP3     H2       HT       0.417000       1.00800           0
     12981 TIP3     167      TIP3     OH2      OT      -0.834000       15.9994           0
     12982 TIP3     167      TIP3     H1       HT       0.417000       1.00800           0
     12983 TIP3     167      TIP3     H2       HT       0.417000       1.00800           0
     12984 TIP3     168      TIP3     OH2      OT      -0.834000       15.9994           0
     12985 TIP3     168      TIP3     H1       HT       0.417000       1.00800           0
     12986 TIP3     168      TIP3     H2       HT       0.417000       1.00800           0
     12987 TIP3     169      TIP3     OH2      OT      -0.834000       15.9994           0
     12988 TIP3     169      TIP3     H1       HT       0.417000       1.00800           0
     12989 TIP3     169      TIP3     H2       HT       0.417000       1.00800           0
     12990 TIP3     170      TIP3     OH2      OT      -0.834000       15.9994           0
     12991 TIP3     170      TIP3     H1       HT       0.417000       1.00800           0
     12992 TIP3     170      TIP3     H2       HT       0.417000       1.00800           0
     12993 TIP3     171      TIP3     OH2      OT      -0.834000       15.9994           0
     12994 TIP3     171      TIP3     H1       HT       0.417000       1.00800           0
     12995 TIP3     171      TIP3     H2       HT       0.417000       1.00800           0
     12996 TIP3     172      TIP3     OH2      OT      -0.834000       15.9994           0
     12997 TIP3     172      TIP3     H1       HT       0.417000       1.00800           0
     12998 TIP3     172      TIP3     H2       HT       0.417000       1.00800           0
     12999 TIP3     173      TIP3     OH2      OT      -0.834000       15.9994           0
     13000 TIP3     173      TIP3     H1       HT       0.417000       1.00800           0
     13001 TIP3     173      TIP3     H2       HT       0.417000       1.00800           0
     13002 TIP3     174      TIP3     OH2      OT      -0.834000       15.9994           0
     13003 TIP3     174      TIP3     H1       HT       0.417000       1.00800           0
     13004 TIP3     174      TIP3     H2       HT       0.417000       1.00800           0
     13005 TIP3     175      TIP3     OH2      OT      -0.834000       15.9994           0
     13006 TIP3     175      TIP3     H1       HT       0.417000       1.00800           0
     13007 TIP3     175      TIP3     H2       HT       0.417000       1.00800           0
     13008 TIP3     176      TIP3     OH2      OT      -0.834000       15.9994           0
     13009 TIP3     176      TIP3     H1       HT       0.417000       1.00800           0
     13010 TIP3     176      TIP3     H2       HT       0.417000       1.00800           0
     13011 TIP3     177      TIP3     OH2      OT      -0.834000       15.9994           0
     13012 TIP3     177      TIP3     H1       HT       0.417000       1.00800           0
     13013 TIP3     177      TIP3     H2       HT       0.417000       1.00800           0
     13014 TIP3     178      TIP3     OH2      OT      -0.834000       15.9994           0
     13015 TIP3     178      TIP3     H1       HT       0.417000       1.00800           0
     13016 TIP3     178      TIP3     H2       HT       0.417000       1.00800           0
     13017 TIP3     179      TIP3     OH2      OT      -0.834000       15.9994           0
     13018 TIP3     179      TIP3     H1       HT       0.417000       1.00800           0
     13019 TIP3     179      TIP3     H2       HT       0.417000       1.00800           0
     13020 TIP3     180      TIP3     OH2      OT      -0.834000       15.9994           0
     13021 TIP3     180      TIP3     H1       HT       0.417000       1.00800           0
     13022 TIP3     180      TIP3     H2       HT       0.417000       1.00800           0
     13023 TIP3     181      TIP3     OH2      OT      -0.834000       15.9994           0
     13024 TIP3     181      TIP3     H1       HT       0.417000       1.00800           0
     13025 TIP3     181      TIP3     H2       HT       0.417000       1.00800           0
     13026 TIP3     182      TIP3     OH2      OT      -0.834000       15.9994           0
     13027 TIP3     182      TIP3     H1       HT       0.417000       1.00800           0
     13028 TIP3     182      TIP3     H2       HT       0.417000       1.00800           0
     13029 TIP3     183      TIP3     OH2      OT      -0.834000       15.9994           0
     13030 TIP3     183      TIP3     H1       HT       0.417000       1.00800           0
     13031 TIP3     183      TIP3     H2       HT       0.417000       1.00800           0
     13032 TIP3     184      TIP3     OH2      OT      -0.834000       15.9994           0
     13033 TIP3     184      TIP3     H1       HT       0.417000       1.00800           0
     13034 TIP3     184      TIP3     H2       HT       0.417000       1.00800           0
     13035 TIP3     185      TIP3     OH2      OT      -0.834000       15.9994           0
     13036 TIP3     185      TIP3     H1       HT       0.417000       1.00800           0
     13037 TIP3     185      TIP3     H2       HT       0.417000       1.00800           0
     13038 TIP3     186      TIP3     OH2      OT      -0.834000       15.9994           0
     13039 TIP3     186      TIP3     H1       HT       0.417000       1.00800           0
     13040 TIP3     186      TIP3     H2       HT       0.417000       1.00800           0
     13041 TIP3     187      TIP3     OH2      OT      -0.834000       15.9994           0
     13042 TIP3     187      TIP3     H1       HT       0.417000       1.00800           0
     13043 TIP3     187      TIP3     H2       HT       0.417000       1.00800           0
     13044 TIP3     188      TIP3     OH2      OT      -0.834000       15.9994           0
     13045 TIP3     188      TIP3     H1       HT       0.417000       1.00800           0
     13046 TIP3     188      TIP3     H2       HT       0.417000       1.00800           0
     13047 TIP3     189      TIP3     OH2      OT      -0.834000       15.9994           0
     13048 TIP3     189      TIP3     H1       HT       0.417000       1.00800           0
     13049 TIP3     189      TIP3     H2       HT       0.417000       1.00800           0
     13050 TIP3     190      TIP3     OH2      OT      -0.834000       15.9994           0
     13051 TIP3     190      TIP3     H1       HT       0.417000       1.00800           0
     13052 TIP3     190      TIP3     H2       HT       0.417000       1.00800           0
     13053 TIP3     191      TIP3     OH2      OT      -0.834000       15.9994           0
     13054 TIP3     191      TIP3     H1       HT       0.417000       1.00800           0
     13055 TIP3     191      TIP3     H2       HT       0.417000       1.00800           0
     13056 TIP3     192      TIP3     OH2      OT      -0.834000       15.9994           0
     13057 TIP3     192      TIP3     H1       HT       0.417000       1.00800           0
     13058 TIP3     192      TIP3     H2       HT       0.417000       1.00800           0
     13059 TIP3     193      TIP3     OH2      OT      -0.834000       15.9994           0
     13060 TIP3     193      TIP3     H1       HT       0.417000       1.00800           0
     13061 TIP3     193      TIP3     H2       HT       0.417000       1.00800           0
     13062 TIP3     194      TIP3     OH2      OT      -0.834000       15.9994           0
     13063 TIP3     194      TIP3     H1       HT       0.417000       1.00800           0
     13064 TIP3     194      TIP3     H2       HT       0.417000       1.00800           0
     13065 TIP3     195      TIP3     OH2      OT      -0.834000       15.9994           0
     13066 TIP3     195      TIP3     H1       HT       0.417000       1.00800           0
     13067 TIP3     195      TIP3     H2       HT       0.417000       1.00800           0
     13068 TIP3     196      TIP3     OH2      OT      -0.834000       15.9994           0
     13069 TIP3     196      TIP3     H1       HT       0.417000       1.00800           0
     13070 TIP3     196      TIP3     H2       HT       0.417000       1.00800           0
     13071 TIP3     197      TIP3     OH2      OT      -0.834000       15.9994           0
     13072 TIP3     197      TIP3     H1       HT       0.417000       1.00800           0
     13073 TIP3     197      TIP3     H2       HT       0.417000       1.00800           0
     13074 TIP3     198      TIP3     OH2      OT      -0.834000       15.9994           0
     13075 TIP3     198      TIP3     H1       HT       0.417000       1.00800           0
     13076 TIP3     198      TIP3     H2       HT       0.417000       1.00800           0
     13077 TIP3     199      TIP3     OH2      OT      -0.834000       15.9994           0
     13078 TIP3     199      TIP3     H1       HT       0.417000       1.00800           0
     13079 TIP3     199      TIP3     H2       HT       0.417000       1.00800           0
     13080 TIP3     200      TIP3     OH2      OT      -0.834000       15.9994           0
     13081 TIP3     200      TIP3     H1       HT       0.417000       1.00800           0
     13082 TIP3     200      TIP3     H2       HT       0.417000       1.00800           0
     13083 TIP3     201      TIP3     OH2      OT      -0.834000       15.9994           0
     13084 TIP3     201      TIP3     H1       HT       0.417000       1.00800           0
     13085 TIP3     201      TIP3     H2       HT       0.417000       1.00800           0
     13086 TIP3     202      TIP3     OH2      OT      -0.834000       15.9994           0
     13087 TIP3     202      TIP3     H1       HT       0.417000       1.00800           0
     13088 TIP3     202      TIP3     H2       HT       0.417000       1.00800           0
     13089 TIP3     203      TIP3     OH2      OT      -0.834000       15.9994           0
     13090 TIP3     203      TIP3     H1       HT       0.417000       1.00800           0
     13091 TIP3     203      TIP3     H2       HT       0.417000       1.00800           0
     13092 TIP3     204      TIP3     OH2      OT      -0.834000       15.9994           0
     13093 TIP3     204      TIP3     H1       HT       0.417000       1.00800           0
     13094 TIP3     204      TIP3     H2       HT       0.417000       1.00800           0
     13095 TIP3     205      TIP3     OH2      OT      -0.834000       15.9994           0
     13096 TIP3     205      TIP3     H1       HT       0.417000       1.00800           0
     13097 TIP3     205      TIP3     H2       HT       0.417000       1.00800           0
     13098 TIP3     206      TIP3     OH2      OT      -0.834000       15.9994           0
     13099 TIP3     206      TIP3     H1       HT       0.417000       1.00800           0
     13100 TIP3     206      TIP3     H2       HT       0.417000       1.00800           0
     13101 TIP3     207      TIP3     OH2      OT      -0.834000       15.9994           0
     13102 TIP3     207      TIP3     H1       HT       0.417000       1.00800           0
     13103 TIP3     207      TIP3     H2       HT       0.417000       1.00800           0
     13104 TIP3     208      TIP3     OH2      OT      -0.834000       15.9994           0
     13105 TIP3     208      TIP3     H1       HT       0.417000       1.00800           0
     13106 TIP3     208      TIP3     H2       HT       0.417000       1.00800           0
     13107 TIP3     209      TIP3     OH2      OT      -0.834000       15.9994           0
     13108 TIP3     209      TIP3     H1       HT       0.417000       1.00800           0
     13109 TIP3     209      TIP3     H2       HT       0.417000       1.00800           0
     13110 TIP3     210      TIP3     OH2      OT      -0.834000       15.9994           0
     13111 TIP3     210      TIP3     H1       HT       0.417000       1.00800           0
     13112 TIP3     210      TIP3     H2       HT       0.417000       1.00800           0
     13113 TIP3     211      TIP3     OH2      OT      -0.834000       15.9994           0
     13114 TIP3     211      TIP3     H1       HT       0.417000       1.00800           0
     13115 TIP3     211      TIP3     H2       HT       0.417000       1.00800           0
     13116 TIP3     212      TIP3     OH2      OT      -0.834000       15.9994           0
     13117 TIP3     212      TIP3     H1       HT       0.417000       1.00800           0
     13118 TIP3     212      TIP3     H2       HT       0.417000       1.00800           0
     13119 TIP3     213      TIP3     OH2      OT      -0.834000       15.9994           0
     13120 TIP3     213      TIP3     H1       HT       0.417000       1.00800           0
     13121 TIP3     213      TIP3     H2       HT       0.417000       1.00800           0
     13122 TIP3     214      TIP3     OH2      OT      -0.834000       15.9994           0
     13123 TIP3     214      TIP3     H1       HT       0.417000       1.00800           0
     13124 TIP3     214      TIP3     H2       HT       0.417000       1.00800           0
     13125 TIP3     215      TIP3     OH2      OT      -0.834000       15.9994           0
     13126 TIP3     215      TIP3     H1       HT       0.417000       1.00800           0
     13127 TIP3     215      TIP3     H2       HT       0.417000       1.00800           0
     13128 TIP3     216      TIP3     OH2      OT      -0.834000       15.9994           0
     13129 TIP3     216      TIP3     H1       HT       0.417000       1.00800           0
     13130 TIP3     216      TIP3     H2       HT       0.417000       1.00800           0
     13131 TIP3     217      TIP3     OH2      OT      -0.834000       15.9994           0
     13132 TIP3     217      TIP3     H1       HT       0.417000       1.00800           0
     13133 TIP3     217      TIP3     H2       HT       0.417000       1.00800           0
     13134 TIP3     218      TIP3     OH2      OT      -0.834000       15.9994           0
     13135 TIP3     218      TIP3     H1       HT       0.417000       1.00800           0
     13136 TIP3     218      TIP3     H2       HT       0.417000       1.00800           0
     13137 TIP3     219      TIP3     OH2      OT      -0.834000       15.9994           0
     13138 TIP3     219      TIP3     H1       HT       0.417000       1.00800           0
     13139 TIP3     219      TIP3     H2       HT       0.417000       1.00800           0
     13140 TIP3     220      TIP3     OH2      OT      -0.834000       15.9994           0
     13141 TIP3     220      TIP3     H1       HT       0.417000       1.00800           0
     13142 TIP3     220      TIP3     H2       HT       0.417000       1.00800           0
     13143 TIP3     221      TIP3     OH2      OT      -0.834000       15.9994           0
     13144 TIP3     221      TIP3     H1       HT       0.417000       1.00800           0
     13145 TIP3     221      TIP3     H2       HT       0.417000       1.00800           0
     13146 TIP3     222      TIP3     OH2      OT      -0.834000       15.9994           0
     13147 TIP3     222      TIP3     H1       HT       0.417000       1.00800           0
     13148 TIP3     222      TIP3     H2       HT       0.417000       1.00800           0
     13149 TIP3     223      TIP3     OH2      OT      -0.834000       15.9994           0
     13150 TIP3     223      TIP3     H1       HT       0.417000       1.00800           0
     13151 TIP3     223      TIP3     H2       HT       0.417000       1.00800           0
     13152 TIP3     224      TIP3     OH2      OT      -0.834000       15.9994           0
     13153 TIP3     224      TIP3     H1       HT       0.417000       1.00800           0
     13154 TIP3     224      TIP3     H2       HT       0.417000       1.00800           0
     13155 TIP3     225      TIP3     OH2      OT      -0.834000       15.9994           0
     13156 TIP3     225      TIP3     H1       HT       0.417000       1.00800           0
     13157 TIP3     225      TIP3     H2       HT       0.417000       1.00800           0
     13158 TIP3     226      TIP3     OH2      OT      -0.834000       15.9994           0
     13159 TIP3     226      TIP3     H1       HT       0.417000       1.00800           0
     13160 TIP3     226      TIP3     H2       HT       0.417000       1.00800           0
     13161 TIP3     227      TIP3     OH2      OT      -0.834000       15.9994           0
     13162 TIP3     227      TIP3     H1       HT       0.417000       1.00800           0
     13163 TIP3     227      TIP3     H2       HT       0.417000       1.00800           0
     13164 TIP3     228      TIP3     OH2      OT      -0.834000       15.9994           0
     13165 TIP3     228      TIP3     H1       HT       0.417000       1.00800           0
     13166 TIP3     228      TIP3     H2       HT       0.417000       1.00800           0
     13167 TIP3     229      TIP3     OH2      OT      -0.834000       15.9994           0
     13168 TIP3     229      TIP3     H1       HT       0.417000       1.00800           0
     13169 TIP3     229      TIP3     H2       HT       0.417000       1.00800           0
     13170 TIP3     230      TIP3     OH2      OT      -0.834000       15.9994           0
     13171 TIP3     230      TIP3     H1       HT       0.417000       1.00800           0
     13172 TIP3     230      TIP3     H2       HT       0.417000       1.00800           0
     13173 TIP3     231      TIP3     OH2      OT      -0.834000       15.9994           0
     13174 TIP3     231      TIP3     H1       HT       0.417000       1.00800           0
     13175 TIP3     231      TIP3     H2       HT       0.417000       1.00800           0
     13176 TIP3     232      TIP3     OH2      OT      -0.834000       15.9994           0
     13177 TIP3     232      TIP3     H1       HT       0.417000       1.00800           0
     13178 TIP3     232      TIP3     H2       HT       0.417000       1.00800           0
     13179 TIP3     233      TIP3     OH2      OT      -0.834000       15.9994           0
     13180 TIP3     233      TIP3     H1       HT       0.417000       1.00800           0
     13181 TIP3     233      TIP3     H2       HT       0.417000       1.00800           0
     13182 TIP3     234      TIP3     OH2      OT      -0.834000       15.9994           0
     13183 TIP3     234      TIP3     H1       HT       0.417000       1.00800           0
     13184 TIP3     234      TIP3     H2       HT       0.417000       1.00800           0
     13185 TIP3     235      TIP3     OH2      OT      -0.834000       15.9994           0
     13186 TIP3     235      TIP3     H1       HT       0.417000       1.00800           0
     13187 TIP3     235      TIP3     H2       HT       0.417000       1.00800           0
     13188 TIP3     236      TIP3     OH2      OT      -0.834000       15.9994           0
     13189 TIP3     236      TIP3     H1       HT       0.417000       1.00800           0
     13190 TIP3     236      TIP3     H2       HT       0.417000       1.00800           0
     13191 TIP3     237      TIP3     OH2      OT      -0.834000       15.9994           0
     13192 TIP3     237      TIP3     H1       HT       0.417000       1.00800           0
     13193 TIP3     237      TIP3     H2       HT       0.417000       1.00800           0
     13194 TIP3     238      TIP3     OH2      OT      -0.834000       15.9994           0
     13195 TIP3     238      TIP3     H1       HT       0.417000       1.00800           0
     13196 TIP3     238      TIP3     H2       HT       0.417000       1.00800           0
     13197 TIP3     239      TIP3     OH2      OT      -0.834000       15.9994           0
     13198 TIP3     239      TIP3     H1       HT       0.417000       1.00800           0
     13199 TIP3     239      TIP3     H2       HT       0.417000       1.00800           0
     13200 TIP3     240      TIP3     OH2      OT      -0.834000       15.9994           0
     13201 TIP3     240      TIP3     H1       HT       0.417000       1.00800           0
     13202 TIP3     240      TIP3     H2       HT       0.417000       1.00800           0
     13203 TIP3     241      TIP3     OH2      OT      -0.834000       15.9994           0
     13204 TIP3     241      TIP3     H1       HT       0.417000       1.00800           0
     13205 TIP3     241      TIP3     H2       HT       0.417000       1.00800           0
     13206 TIP3     242      TIP3     OH2      OT      -0.834000       15.9994           0
     13207 TIP3     242      TIP3     H1       HT       0.417000       1.00800           0
     13208 TIP3     242      TIP3     H2       HT       0.417000       1.00800           0
     13209 TIP3     243      TIP3     OH2      OT      -0.834000       15.9994           0
     13210 TIP3     243      TIP3     H1       HT       0.417000       1.00800           0
     13211 TIP3     243      TIP3     H2       HT       0.417000       1.00800           0
     13212 TIP3     244      TIP3     OH2      OT      -0.834000       15.9994           0
     13213 TIP3     244      TIP3     H1       HT       0.417000       1.00800           0
     13214 TIP3     244      TIP3     H2       HT       0.417000       1.00800           0
     13215 TIP3     245      TIP3     OH2      OT      -0.834000       15.9994           0
     13216 TIP3     245      TIP3     H1       HT       0.417000       1.00800           0
     13217 TIP3     245      TIP3     H2       HT       0.417000       1.00800           0
     13218 TIP3     246      TIP3     OH2      OT      -0.834000       15.9994           0
     13219 TIP3     246      TIP3     H1       HT       0.417000       1.00800           0
     13220 TIP3     246      TIP3     H2       HT       0.417000       1.00800           0
     13221 TIP3     247      TIP3     OH2      OT      -0.834000       15.9994           0
     13222 TIP3     247      TIP3     H1       HT       0.417000       1.00800           0
     13223 TIP3     247      TIP3     H2       HT       0.417000       1.00800           0
     13224 TIP3     248      TIP3     OH2      OT      -0.834000       15.9994           0
     13225 TIP3     248      TIP3     H1       HT       0.417000       1.00800           0
     13226 TIP3     248      TIP3     H2       HT       0.417000       1.00800           0
     13227 TIP3     249      TIP3     OH2      OT      -0.834000       15.9994           0
     13228 TIP3     249      TIP3     H1       HT       0.417000       1.00800           0
     13229 TIP3     249      TIP3     H2       HT       0.417000       1.00800           0
     13230 TIP3     250      TIP3     OH2      OT      -0.834000       15.9994           0
     13231 TIP3     250      TIP3     H1       HT       0.417000       1.00800           0
     13232 TIP3     250      TIP3     H2       HT       0.417000       1.00800           0
     13233 TIP3     251      TIP3     OH2      OT      -0.834000       15.9994           0
     13234 TIP3     251      TIP3     H1       HT       0.417000       1.00800           0
     13235 TIP3     251      TIP3     H2       HT       0.417000       1.00800           0
     13236 TIP3     252      TIP3     OH2      OT      -0.834000       15.9994           0
     13237 TIP3     252      TIP3     H1       HT       0.417000       1.00800           0
     13238 TIP3     252      TIP3     H2       HT       0.417000       1.00800           0
     13239 TIP3     253      TIP3     OH2      OT      -0.834000       15.9994           0
     13240 TIP3     253      TIP3     H1       HT       0.417000       1.00800           0
     13241 TIP3     253      TIP3     H2       HT       0.417000       1.00800           0
     13242 TIP3     254      TIP3     OH2      OT      -0.834000       15.9994           0
     13243 TIP3     254      TIP3     H1       HT       0.417000       1.00800           0
     13244 TIP3     254      TIP3     H2       HT       0.417000       1.00800           0
     13245 TIP3     255      TIP3     OH2      OT      -0.834000       15.9994           0
     13246 TIP3     255      TIP3     H1       HT       0.417000       1.00800           0
     13247 TIP3     255      TIP3     H2       HT       0.417000       1.00800           0
     13248 TIP3     256      TIP3     OH2      OT      -0.834000       15.9994           0
     13249 TIP3     256      TIP3     H1       HT       0.417000       1.00800           0
     13250 TIP3     256      TIP3     H2       HT       0.417000       1.00800           0
     13251 TIP3     257      TIP3     OH2      OT      -0.834000       15.9994           0
     13252 TIP3     257      TIP3     H1       HT       0.417000       1.00800           0
     13253 TIP3     257      TIP3     H2       HT       0.417000       1.00800           0
     13254 TIP3     258      TIP3     OH2      OT      -0.834000       15.9994           0
     13255 TIP3     258      TIP3     H1       HT       0.417000       1.00800           0
     13256 TIP3     258      TIP3     H2       HT       0.417000       1.00800           0
     13257 TIP3     259      TIP3     OH2      OT      -0.834000       15.9994           0
     13258 TIP3     259      TIP3     H1       HT       0.417000       1.00800           0
     13259 TIP3     259      TIP3     H2       HT       0.417000       1.00800           0
     13260 TIP3     260      TIP3     OH2      OT      -0.834000       15.9994           0
     13261 TIP3     260      TIP3     H1       HT       0.417000       1.00800           0
     13262 TIP3     260      TIP3     H2       HT       0.417000       1.00800           0
     13263 TIP3     261      TIP3     OH2      OT      -0.834000       15.9994           0
     13264 TIP3     261      TIP3     H1       HT       0.417000       1.00800           0
     13265 TIP3     261      TIP3     H2       HT       0.417000       1.00800           0
     13266 TIP3     262      TIP3     OH2      OT      -0.834000       15.9994           0
     13267 TIP3     262      TIP3     H1       HT       0.417000       1.00800           0
     13268 TIP3     262      TIP3     H2       HT       0.417000       1.00800           0
     13269 TIP3     263      TIP3     OH2      OT      -0.834000       15.9994           0
     13270 TIP3     263      TIP3     H1       HT       0.417000       1.00800           0
     13271 TIP3     263      TIP3     H2       HT       0.417000       1.00800           0
     13272 TIP3     264      TIP3     OH2      OT      -0.834000       15.9994           0
     13273 TIP3     264      TIP3     H1       HT       0.417000       1.00800           0
     13274 TIP3     264      TIP3     H2       HT       0.417000       1.00800           0
     13275 TIP3     265      TIP3     OH2      OT      -0.834000       15.9994           0
     13276 TIP3     265      TIP3     H1       HT       0.417000       1.00800           0
     13277 TIP3     265      TIP3     H2       HT       0.417000       1.00800           0
     13278 TIP3     266      TIP3     OH2      OT      -0.834000       15.9994           0
     13279 TIP3     266      TIP3     H1       HT       0.417000       1.00800           0
     13280 TIP3     266      TIP3     H2       HT       0.417000       1.00800           0
     13281 TIP3     267      TIP3     OH2      OT      -0.834000       15.9994           0
     13282 TIP3     267      TIP3     H1       HT       0.417000       1.00800           0
     13283 TIP3     267      TIP3     H2       HT       0.417000       1.00800           0
     13284 TIP3     268      TIP3     OH2      OT      -0.834000       15.9994           0
     13285 TIP3     268      TIP3     H1       HT       0.417000       1.00800           0
     13286 TIP3     268      TIP3     H2       HT       0.417000       1.00800           0
     13287 TIP3     269      TIP3     OH2      OT      -0.834000       15.9994           0
     13288 TIP3     269      TIP3     H1       HT       0.417000       1.00800           0
     13289 TIP3     269      TIP3     H2       HT       0.417000       1.00800           0
     13290 TIP3     270      TIP3     OH2      OT      -0.834000       15.9994           0
     13291 TIP3     270      TIP3     H1       HT       0.417000       1.00800           0
     13292 TIP3     270      TIP3     H2       HT       0.417000       1.00800           0
     13293 TIP3     271      TIP3     OH2      OT      -0.834000       15.9994           0
     13294 TIP3     271      TIP3     H1       HT       0.417000       1.00800           0
     13295 TIP3     271      TIP3     H2       HT       0.417000       1.00800           0
     13296 TIP3     272      TIP3     OH2      OT      -0.834000       15.9994           0
     13297 TIP3     272      TIP3     H1       HT       0.417000       1.00800           0
     13298 TIP3     272      TIP3     H2       HT       0.417000       1.00800           0
     13299 TIP3     273      TIP3     OH2      OT      -0.834000       15.9994           0
     13300 TIP3     273      TIP3     H1       HT       0.417000       1.00800           0
     13301 TIP3     273      TIP3     H2       HT       0.417000       1.00800           0
     13302 TIP3     274      TIP3     OH2      OT      -0.834000       15.9994           0
     13303 TIP3     274      TIP3     H1       HT       0.417000       1.00800           0
     13304 TIP3     274      TIP3     H2       HT       0.417000       1.00800           0
     13305 TIP3     275      TIP3     OH2      OT      -0.834000       15.9994           0
     13306 TIP3     275      TIP3     H1       HT       0.417000       1.00800           0
     13307 TIP3     275      TIP3     H2       HT       0.417000       1.00800           0
     13308 TIP3     276      TIP3     OH2      OT      -0.834000       15.9994           0
     13309 TIP3     276      TIP3     H1       HT       0.417000       1.00800           0
     13310 TIP3     276      TIP3     H2       HT       0.417000       1.00800           0
     13311 TIP3     277      TIP3     OH2      OT      -0.834000       15.9994           0
     13312 TIP3     277      TIP3     H1       HT       0.417000       1.00800           0
     13313 TIP3     277      TIP3     H2       HT       0.417000       1.00800           0
     13314 TIP3     278      TIP3     OH2      OT      -0.834000       15.9994           0
     13315 TIP3     278      TIP3     H1       HT       0.417000       1.00800           0
     13316 TIP3     278      TIP3     H2       HT       0.417000       1.00800           0
     13317 TIP3     279      TIP3     OH2      OT      -0.834000       15.9994           0
     13318 TIP3     279      TIP3     H1       HT       0.417000       1.00800           0
     13319 TIP3     279      TIP3     H2       HT       0.417000       1.00800           0
     13320 TIP3     280      TIP3     OH2      OT      -0.834000       15.9994           0
     13321 TIP3     280      TIP3     H1       HT       0.417000       1.00800           0
     13322 TIP3     280      TIP3     H2       HT       0.417000       1.00800           0
     13323 TIP3     281      TIP3     OH2      OT      -0.834000       15.9994           0
     13324 TIP3     281      TIP3     H1       HT       0.417000       1.00800           0
     13325 TIP3     281      TIP3     H2       HT       0.417000       1.00800           0
     13326 TIP3     282      TIP3     OH2      OT      -0.834000       15.9994           0
     13327 TIP3     282      TIP3     H1       HT       0.417000       1.00800           0
     13328 TIP3     282      TIP3     H2       HT       0.417000       1.00800           0
     13329 TIP3     283      TIP3     OH2      OT      -0.834000       15.9994           0
     13330 TIP3     283      TIP3     H1       HT       0.417000       1.00800           0
     13331 TIP3     283      TIP3     H2       HT       0.417000       1.00800           0
     13332 TIP3     284      TIP3     OH2      OT      -0.834000       15.9994           0
     13333 TIP3     284      TIP3     H1       HT       0.417000       1.00800           0
     13334 TIP3     284      TIP3     H2       HT       0.417000       1.00800           0
     13335 TIP3     285      TIP3     OH2      OT      -0.834000       15.9994           0
     13336 TIP3     285      TIP3     H1       HT       0.417000       1.00800           0
     13337 TIP3     285      TIP3     H2       HT       0.417000       1.00800           0
     13338 TIP3     286      TIP3     OH2      OT      -0.834000       15.9994           0
     13339 TIP3     286      TIP3     H1       HT       0.417000       1.00800           0
     13340 TIP3     286      TIP3     H2       HT       0.417000       1.00800           0
     13341 TIP3     287      TIP3     OH2      OT      -0.834000       15.9994           0
     13342 TIP3     287      TIP3     H1       HT       0.417000       1.00800           0
     13343 TIP3     287      TIP3     H2       HT       0.417000       1.00800           0
     13344 TIP3     288      TIP3     OH2      OT      -0.834000       15.9994           0
     13345 TIP3     288      TIP3     H1       HT       0.417000       1.00800           0
     13346 TIP3     288      TIP3     H2       HT       0.417000       1.00800           0
     13347 TIP3     289      TIP3     OH2      OT      -0.834000       15.9994           0
     13348 TIP3     289      TIP3     H1       HT       0.417000       1.00800           0
     13349 TIP3     289      TIP3     H2       HT       0.417000       1.00800           0
     13350 TIP3     290      TIP3     OH2      OT      -0.834000       15.9994           0
     13351 TIP3     290      TIP3     H1       HT       0.417000       1.00800           0
     13352 TIP3     290      TIP3     H2       HT       0.417000       1.00800           0
     13353 TIP3     291      TIP3     OH2      OT      -0.834000       15.9994           0
     13354 TIP3     291      TIP3     H1       HT       0.417000       1.00800           0
     13355 TIP3     291      TIP3     H2       HT       0.417000       1.00800           0
     13356 TIP3     292      TIP3     OH2      OT      -0.834000       15.9994           0
     13357 TIP3     292      TIP3     H1       HT       0.417000       1.00800           0
     13358 TIP3     292      TIP3     H2       HT       0.417000       1.00800           0
     13359 TIP3     293      TIP3     OH2      OT      -0.834000       15.9994           0
     13360 TIP3     293      TIP3     H1       HT       0.417000       1.00800           0
     13361 TIP3     293      TIP3     H2       HT       0.417000       1.00800           0
     13362 TIP3     294      TIP3     OH2      OT      -0.834000       15.9994           0
     13363 TIP3     294      TIP3     H1       HT       0.417000       1.00800           0
     13364 TIP3     294      TIP3     H2       HT       0.417000       1.00800           0
     13365 TIP3     295      TIP3     OH2      OT      -0.834000       15.9994           0
     13366 TIP3     295      TIP3     H1       HT       0.417000       1.00800           0
     13367 TIP3     295      TIP3     H2       HT       0.417000       1.00800           0
     13368 TIP3     296      TIP3     OH2      OT      -0.834000       15.9994           0
     13369 TIP3     296      TIP3     H1       HT       0.417000       1.00800           0
     13370 TIP3     296      TIP3     H2       HT       0.417000       1.00800           0
     13371 TIP3     297      TIP3     OH2      OT      -0.834000       15.9994           0
     13372 TIP3     297      TIP3     H1       HT       0.417000       1.00800           0
     13373 TIP3     297      TIP3     H2       HT       0.417000       1.00800           0
     13374 TIP3     298      TIP3     OH2      OT      -0.834000       15.9994           0
     13375 TIP3     298      TIP3     H1       HT       0.417000       1.00800           0
     13376 TIP3     298      TIP3     H2       HT       0.417000       1.00800           0
     13377 TIP3     299      TIP3     OH2      OT      -0.834000       15.9994           0
     13378 TIP3     299      TIP3     H1       HT       0.417000       1.00800           0
     13379 TIP3     299      TIP3     H2       HT       0.417000       1.00800           0
     13380 TIP3     300      TIP3     OH2      OT      -0.834000       15.9994           0
     13381 TIP3     300      TIP3     H1       HT       0.417000       1.00800           0
     13382 TIP3     300      TIP3     H2       HT       0.417000       1.00800           0
     13383 TIP3     301      TIP3     OH2      OT      -0.834000       15.9994           0
     13384 TIP3     301      TIP3     H1       HT       0.417000       1.00800           0
     13385 TIP3     301      TIP3     H2       HT       0.417000       1.00800           0
     13386 TIP3     302      TIP3     OH2      OT      -0.834000       15.9994           0
     13387 TIP3     302      TIP3     H1       HT       0.417000       1.00800           0
     13388 TIP3     302      TIP3     H2       HT       0.417000       1.00800           0
     13389 TIP3     303      TIP3     OH2      OT      -0.834000       15.9994           0
     13390 TIP3     303      TIP3     H1       HT       0.417000       1.00800           0
     13391 TIP3     303      TIP3     H2       HT       0.417000       1.00800           0
     13392 TIP3     304      TIP3     OH2      OT      -0.834000       15.9994           0
     13393 TIP3     304      TIP3     H1       HT       0.417000       1.00800           0
     13394 TIP3     304      TIP3     H2       HT       0.417000       1.00800           0
     13395 TIP3     305      TIP3     OH2      OT      -0.834000       15.9994           0
     13396 TIP3     305      TIP3     H1       HT       0.417000       1.00800           0
     13397 TIP3     305      TIP3     H2       HT       0.417000       1.00800           0
     13398 TIP3     306      TIP3     OH2      OT      -0.834000       15.9994           0
     13399 TIP3     306      TIP3     H1       HT       0.417000       1.00800           0
     13400 TIP3     306      TIP3     H2       HT       0.417000       1.00800           0
     13401 TIP3     307      TIP3     OH2      OT      -0.834000       15.9994           0
     13402 TIP3     307      TIP3     H1       HT       0.417000       1.00800           0
     13403 TIP3     307      TIP3     H2       HT       0.417000       1.00800           0
     13404 TIP3     308      TIP3     OH2      OT      -0.834000       15.9994           0
     13405 TIP3     308      TIP3     H1       HT       0.417000       1.00800           0
     13406 TIP3     308      TIP3     H2       HT       0.417000       1.00800           0
     13407 TIP3     309      TIP3     OH2      OT      -0.834000       15.9994           0
     13408 TIP3     309      TIP3     H1       HT       0.417000       1.00800           0
     13409 TIP3     309      TIP3     H2       HT       0.417000       1.00800           0
     13410 TIP3     310      TIP3     OH2      OT      -0.834000       15.9994           0
     13411 TIP3     310      TIP3     H1       HT       0.417000       1.00800           0
     13412 TIP3     310      TIP3     H2       HT       0.417000       1.00800           0
     13413 TIP3     311      TIP3     OH2      OT      -0.834000       15.9994           0
     13414 TIP3     311      TIP3     H1       HT       0.417000       1.00800           0
     13415 TIP3     311      TIP3     H2       HT       0.417000       1.00800           0
     13416 TIP3     312      TIP3     OH2      OT      -0.834000       15.9994           0
     13417 TIP3     312      TIP3     H1       HT       0.417000       1.00800           0
     13418 TIP3     312      TIP3     H2       HT       0.417000       1.00800           0
     13419 TIP3     313      TIP3     OH2      OT      -0.834000       15.9994           0
     13420 TIP3     313      TIP3     H1       HT       0.417000       1.00800           0
     13421 TIP3     313      TIP3     H2       HT       0.417000       1.00800           0
     13422 TIP3     314      TIP3     OH2      OT      -0.834000       15.9994           0
     13423 TIP3     314      TIP3     H1       HT       0.417000       1.00800           0
     13424 TIP3     314      TIP3     H2       HT       0.417000       1.00800           0
     13425 TIP3     315      TIP3     OH2      OT      -0.834000       15.9994           0
     13426 TIP3     315      TIP3     H1       HT       0.417000       1.00800           0
     13427 TIP3     315      TIP3     H2       HT       0.417000       1.00800           0
     13428 TIP3     316      TIP3     OH2      OT      -0.834000       15.9994           0
     13429 TIP3     316      TIP3     H1       HT       0.417000       1.00800           0
     13430 TIP3     316      TIP3     H2       HT       0.417000       1.00800           0
     13431 TIP3     317      TIP3     OH2      OT      -0.834000       15.9994           0
     13432 TIP3     317      TIP3     H1       HT       0.417000       1.00800           0
     13433 TIP3     317      TIP3     H2       HT       0.417000       1.00800           0
     13434 TIP3     318      TIP3     OH2      OT      -0.834000       15.9994           0
     13435 TIP3     318      TIP3     H1       HT       0.417000       1.00800           0
     13436 TIP3     318      TIP3     H2       HT       0.417000       1.00800           0
     13437 TIP3     319      TIP3     OH2      OT      -0.834000       15.9994           0
     13438 TIP3     319      TIP3     H1       HT       0.417000       1.00800           0
     13439 TIP3     319      TIP3     H2       HT       0.417000       1.00800           0
     13440 TIP3     320      TIP3     OH2      OT      -0.834000       15.9994           0
     13441 TIP3     320      TIP3     H1       HT       0.417000       1.00800           0
     13442 TIP3     320      TIP3     H2       HT       0.417000       1.00800           0
     13443 TIP3     321      TIP3     OH2      OT      -0.834000       15.9994           0
     13444 TIP3     321      TIP3     H1       HT       0.417000       1.00800           0
     13445 TIP3     321      TIP3     H2       HT       0.417000       1.00800           0
     13446 TIP3     322      TIP3     OH2      OT      -0.834000       15.9994           0
     13447 TIP3     322      TIP3     H1       HT       0.417000       1.00800           0
     13448 TIP3     322      TIP3     H2       HT       0.417000       1.00800           0
     13449 TIP3     323      TIP3     OH2      OT      -0.834000       15.9994           0
     13450 TIP3     323      TIP3     H1       HT       0.417000       1.00800           0
     13451 TIP3     323      TIP3     H2       HT       0.417000       1.00800           0
     13452 TIP3     324      TIP3     OH2      OT      -0.834000       15.9994           0
     13453 TIP3     324      TIP3     H1       HT       0.417000       1.00800           0
     13454 TIP3     324      TIP3     H2       HT       0.417000       1.00800           0
     13455 TIP3     325      TIP3     OH2      OT      -0.834000       15.9994           0
     13456 TIP3     325      TIP3     H1       HT       0.417000       1.00800           0
     13457 TIP3     325      TIP3     H2       HT       0.417000       1.00800           0
     13458 TIP3     326      TIP3     OH2      OT      -0.834000       15.9994           0
     13459 TIP3     326      TIP3     H1       HT       0.417000       1.00800           0
     13460 TIP3     326      TIP3     H2       HT       0.417000       1.00800           0
     13461 TIP3     327      TIP3     OH2      OT      -0.834000       15.9994           0
     13462 TIP3     327      TIP3     H1       HT       0.417000       1.00800           0
     13463 TIP3     327      TIP3     H2       HT       0.417000       1.00800           0
     13464 TIP3     328      TIP3     OH2      OT      -0.834000       15.9994           0
     13465 TIP3     328      TIP3     H1       HT       0.417000       1.00800           0
     13466 TIP3     328      TIP3     H2       HT       0.417000       1.00800           0
     13467 TIP3     329      TIP3     OH2      OT      -0.834000       15.9994           0
     13468 TIP3     329      TIP3     H1       HT       0.417000       1.00800           0
     13469 TIP3     329      TIP3     H2       HT       0.417000       1.00800           0
     13470 TIP3     330      TIP3     OH2      OT      -0.834000       15.9994           0
     13471 TIP3     330      TIP3     H1       HT       0.417000       1.00800           0
     13472 TIP3     330      TIP3     H2       HT       0.417000       1.00800           0
     13473 TIP3     331      TIP3     OH2      OT      -0.834000       15.9994           0
     13474 TIP3     331      TIP3     H1       HT       0.417000       1.00800           0
     13475 TIP3     331      TIP3     H2       HT       0.417000       1.00800           0
     13476 TIP3     332      TIP3     OH2      OT      -0.834000       15.9994           0
     13477 TIP3     332      TIP3     H1       HT       0.417000       1.00800           0
     13478 TIP3     332      TIP3     H2       HT       0.417000       1.00800           0
     13479 TIP3     333      TIP3     OH2      OT      -0.834000       15.9994           0
     13480 TIP3     333      TIP3     H1       HT       0.417000       1.00800           0
     13481 TIP3     333      TIP3     H2       HT       0.417000       1.00800           0
     13482 TIP3     334      TIP3     OH2      OT      -0.834000       15.9994           0
     13483 TIP3     334      TIP3     H1       HT       0.417000       1.00800           0
     13484 TIP3     334      TIP3     H2       HT       0.417000       1.00800           0
     13485 TIP3     335      TIP3     OH2      OT      -0.834000       15.9994           0
     13486 TIP3     335      TIP3     H1       HT       0.417000       1.00800           0
     13487 TIP3     335      TIP3     H2       HT       0.417000       1.00800           0
     13488 TIP3     336      TIP3     OH2      OT      -0.834000       15.9994           0
     13489 TIP3     336      TIP3     H1       HT       0.417000       1.00800           0
     13490 TIP3     336      TIP3     H2       HT       0.417000       1.00800           0
     13491 TIP3     337      TIP3     OH2      OT      -0.834000       15.9994           0
     13492 TIP3     337      TIP3     H1       HT       0.417000       1.00800           0
     13493 TIP3     337      TIP3     H2       HT       0.417000       1.00800           0
     13494 TIP3     338      TIP3     OH2      OT      -0.834000       15.9994           0
     13495 TIP3     338      TIP3     H1       HT       0.417000       1.00800           0
     13496 TIP3     338      TIP3     H2       HT       0.417000       1.00800           0
     13497 TIP3     339      TIP3     OH2      OT      -0.834000       15.9994           0
     13498 TIP3     339      TIP3     H1       HT       0.417000       1.00800           0
     13499 TIP3     339      TIP3     H2       HT       0.417000       1.00800           0
     13500 TIP3     340      TIP3     OH2      OT      -0.834000       15.9994           0
     13501 TIP3     340      TIP3     H1       HT       0.417000       1.00800           0
     13502 TIP3     340      TIP3     H2       HT       0.417000       1.00800           0
     13503 TIP3     341      TIP3     OH2      OT      -0.834000       15.9994           0
     13504 TIP3     341      TIP3     H1       HT       0.417000       1.00800           0
     13505 TIP3     341      TIP3     H2       HT       0.417000       1.00800           0
     13506 TIP3     342      TIP3     OH2      OT      -0.834000       15.9994           0
     13507 TIP3     342      TIP3     H1       HT       0.417000       1.00800           0
     13508 TIP3     342      TIP3     H2       HT       0.417000       1.00800           0
     13509 TIP3     343      TIP3     OH2      OT      -0.834000       15.9994           0
     13510 TIP3     343      TIP3     H1       HT       0.417000       1.00800           0
     13511 TIP3     343      TIP3     H2       HT       0.417000       1.00800           0
     13512 TIP3     344      TIP3     OH2      OT      -0.834000       15.9994           0
     13513 TIP3     344      TIP3     H1       HT       0.417000       1.00800           0
     13514 TIP3     344      TIP3     H2       HT       0.417000       1.00800           0
     13515 TIP3     345      TIP3     OH2      OT      -0.834000       15.9994           0
     13516 TIP3     345      TIP3     H1       HT       0.417000       1.00800           0
     13517 TIP3     345      TIP3     H2       HT       0.417000       1.00800           0
     13518 TIP3     346      TIP3     OH2      OT      -0.834000       15.9994           0
     13519 TIP3     346      TIP3     H1       HT       0.417000       1.00800           0
     13520 TIP3     346      TIP3     H2       HT       0.417000       1.00800           0
     13521 TIP3     347      TIP3     OH2      OT      -0.834000       15.9994           0
     13522 TIP3     347      TIP3     H1       HT       0.417000       1.00800           0
     13523 TIP3     347      TIP3     H2       HT       0.417000       1.00800           0
     13524 TIP3     348      TIP3     OH2      OT      -0.834000       15.9994           0
     13525 TIP3     348      TIP3     H1       HT       0.417000       1.00800           0
     13526 TIP3     348      TIP3     H2       HT       0.417000       1.00800           0
     13527 TIP3     349      TIP3     OH2      OT      -0.834000       15.9994           0
     13528 TIP3     349      TIP3     H1       HT       0.417000       1.00800           0
     13529 TIP3     349      TIP3     H2       HT       0.417000       1.00800           0
     13530 TIP3     350      TIP3     OH2      OT      -0.834000       15.9994           0
     13531 TIP3     350      TIP3     H1       HT       0.417000       1.00800           0
     13532 TIP3     350      TIP3     H2       HT       0.417000       1.00800           0
     13533 TIP3     351      TIP3     OH2      OT      -0.834000       15.9994           0
     13534 TIP3     351      TIP3     H1       HT       0.417000       1.00800           0
     13535 TIP3     351      TIP3     H2       HT       0.417000       1.00800           0
     13536 TIP3     352      TIP3     OH2      OT      -0.834000       15.9994           0
     13537 TIP3     352      TIP3     H1       HT       0.417000       1.00800           0
     13538 TIP3     352      TIP3     H2       HT       0.417000       1.00800           0
     13539 TIP3     353      TIP3     OH2      OT      -0.834000       15.9994           0
     13540 TIP3     353      TIP3     H1       HT       0.417000       1.00800           0
     13541 TIP3     353      TIP3     H2       HT       0.417000       1.00800           0
     13542 TIP3     354      TIP3     OH2      OT      -0.834000       15.9994           0
     13543 TIP3     354      TIP3     H1       HT       0.417000       1.00800           0
     13544 TIP3     354      TIP3     H2       HT       0.417000       1.00800           0
     13545 TIP3     355      TIP3     OH2      OT      -0.834000       15.9994           0
     13546 TIP3     355      TIP3     H1       HT       0.417000       1.00800           0
     13547 TIP3     355      TIP3     H2       HT       0.417000       1.00800           0
     13548 TIP3     356      TIP3     OH2      OT      -0.834000       15.9994           0
     13549 TIP3     356      TIP3     H1       HT       0.417000       1.00800           0
     13550 TIP3     356      TIP3     H2       HT       0.417000       1.00800           0
     13551 TIP3     357      TIP3     OH2      OT      -0.834000       15.9994           0
     13552 TIP3     357      TIP3     H1       HT       0.417000       1.00800           0
     13553 TIP3     357      TIP3     H2       HT       0.417000       1.00800           0
     13554 TIP3     358      TIP3     OH2      OT      -0.834000       15.9994           0
     13555 TIP3     358      TIP3     H1       HT       0.417000       1.00800           0
     13556 TIP3     358      TIP3     H2       HT       0.417000       1.00800           0
     13557 TIP3     359      TIP3     OH2      OT      -0.834000       15.9994           0
     13558 TIP3     359      TIP3     H1       HT       0.417000       1.00800           0
     13559 TIP3     359      TIP3     H2       HT       0.417000       1.00800           0
     13560 TIP3     360      TIP3     OH2      OT      -0.834000       15.9994           0
     13561 TIP3     360      TIP3     H1       HT       0.417000       1.00800           0
     13562 TIP3     360      TIP3     H2       HT       0.417000       1.00800           0
     13563 TIP3     361      TIP3     OH2      OT      -0.834000       15.9994           0
     13564 TIP3     361      TIP3     H1       HT       0.417000       1.00800           0
     13565 TIP3     361      TIP3     H2       HT       0.417000       1.00800           0
     13566 TIP3     362      TIP3     OH2      OT      -0.834000       15.9994           0
     13567 TIP3     362      TIP3     H1       HT       0.417000       1.00800           0
     13568 TIP3     362      TIP3     H2       HT       0.417000       1.00800           0
     13569 TIP3     363      TIP3     OH2      OT      -0.834000       15.9994           0
     13570 TIP3     363      TIP3     H1       HT       0.417000       1.00800           0
     13571 TIP3     363      TIP3     H2       HT       0.417000       1.00800           0
     13572 TIP3     364      TIP3     OH2      OT      -0.834000       15.9994           0
     13573 TIP3     364      TIP3     H1       HT       0.417000       1.00800           0
     13574 TIP3     364      TIP3     H2       HT       0.417000       1.00800           0
     13575 TIP3     365      TIP3     OH2      OT      -0.834000       15.9994           0
     13576 TIP3     365      TIP3     H1       HT       0.417000       1.00800           0
     13577 TIP3     365      TIP3     H2       HT       0.417000       1.00800           0
     13578 TIP3     366      TIP3     OH2      OT      -0.834000       15.9994           0
     13579 TIP3     366      TIP3     H1       HT       0.417000       1.00800           0
     13580 TIP3     366      TIP3     H2       HT       0.417000       1.00800           0
     13581 TIP3     367      TIP3     OH2      OT      -0.834000       15.9994           0
     13582 TIP3     367      TIP3     H1       HT       0.417000       1.00800           0
     13583 TIP3     367      TIP3     H2       HT       0.417000       1.00800           0
     13584 TIP3     368      TIP3     OH2      OT      -0.834000       15.9994           0
     13585 TIP3     368      TIP3     H1       HT       0.417000       1.00800           0
     13586 TIP3     368      TIP3     H2       HT       0.417000       1.00800           0
     13587 TIP3     369      TIP3     OH2      OT      -0.834000       15.9994           0
     13588 TIP3     369      TIP3     H1       HT       0.417000       1.00800           0
     13589 TIP3     369      TIP3     H2       HT       0.417000       1.00800           0
     13590 TIP3     370      TIP3     OH2      OT      -0.834000       15.9994           0
     13591 TIP3     370      TIP3     H1       HT       0.417000       1.00800           0
     13592 TIP3     370      TIP3     H2       HT       0.417000       1.00800           0
     13593 TIP3     371      TIP3     OH2      OT      -0.834000       15.9994           0
     13594 TIP3     371      TIP3     H1       HT       0.417000       1.00800           0
     13595 TIP3     371      TIP3     H2       HT       0.417000       1.00800           0
     13596 TIP3     372      TIP3     OH2      OT      -0.834000       15.9994           0
     13597 TIP3     372      TIP3     H1       HT       0.417000       1.00800           0
     13598 TIP3     372      TIP3     H2       HT       0.417000       1.00800           0
     13599 TIP3     373      TIP3     OH2      OT      -0.834000       15.9994           0
     13600 TIP3     373      TIP3     H1       HT       0.417000       1.00800           0
     13601 TIP3     373      TIP3     H2       HT       0.417000       1.00800           0
     13602 TIP3     374      TIP3     OH2      OT      -0.834000       15.9994           0
     13603 TIP3     374      TIP3     H1       HT       0.417000       1.00800           0
     13604 TIP3     374      TIP3     H2       HT       0.417000       1.00800           0
     13605 TIP3     375      TIP3     OH2      OT      -0.834000       15.9994           0
     13606 TIP3     375      TIP3     H1       HT       0.417000       1.00800           0
     13607 TIP3     375      TIP3     H2       HT       0.417000       1.00800           0
     13608 TIP3     376      TIP3     OH2      OT      -0.834000       15.9994           0
     13609 TIP3     376      TIP3     H1       HT       0.417000       1.00800           0
     13610 TIP3     376      TIP3     H2       HT       0.417000       1.00800           0
     13611 TIP3     377      TIP3     OH2      OT      -0.834000       15.9994           0
     13612 TIP3     377      TIP3     H1       HT       0.417000       1.00800           0
     13613 TIP3     377      TIP3     H2       HT       0.417000       1.00800           0
     13614 TIP3     378      TIP3     OH2      OT      -0.834000       15.9994           0
     13615 TIP3     378      TIP3     H1       HT       0.417000       1.00800           0
     13616 TIP3     378      TIP3     H2       HT       0.417000       1.00800           0
     13617 TIP3     379      TIP3     OH2      OT      -0.834000       15.9994           0
     13618 TIP3     379      TIP3     H1       HT       0.417000       1.00800           0
     13619 TIP3     379      TIP3     H2       HT       0.417000       1.00800           0
     13620 TIP3     380      TIP3     OH2      OT      -0.834000       15.9994           0
     13621 TIP3     380      TIP3     H1       HT       0.417000       1.00800           0
     13622 TIP3     380      TIP3     H2       HT       0.417000       1.00800           0
     13623 TIP3     381      TIP3     OH2      OT      -0.834000       15.9994           0
     13624 TIP3     381      TIP3     H1       HT       0.417000       1.00800           0
     13625 TIP3     381      TIP3     H2       HT       0.417000       1.00800           0
     13626 TIP3     382      TIP3     OH2      OT      -0.834000       15.9994           0
     13627 TIP3     382      TIP3     H1       HT       0.417000       1.00800           0
     13628 TIP3     382      TIP3     H2       HT       0.417000       1.00800           0
     13629 TIP3     383      TIP3     OH2      OT      -0.834000       15.9994           0
     13630 TIP3     383      TIP3     H1       HT       0.417000       1.00800           0
     13631 TIP3     383      TIP3     H2       HT       0.417000       1.00800           0
     13632 TIP3     384      TIP3     OH2      OT      -0.834000       15.9994           0
     13633 TIP3     384      TIP3     H1       HT       0.417000       1.00800           0
     13634 TIP3     384      TIP3     H2       HT       0.417000       1.00800           0
     13635 TIP3     385      TIP3     OH2      OT      -0.834000       15.9994           0
     13636 TIP3     385      TIP3     H1       HT       0.417000       1.00800           0
     13637 TIP3     385      TIP3     H2       HT       0.417000       1.00800           0
     13638 TIP3     386      TIP3     OH2      OT      -0.834000       15.9994           0
     13639 TIP3     386      TIP3     H1       HT       0.417000       1.00800           0
     13640 TIP3     386      TIP3     H2       HT       0.417000       1.00800           0
     13641 TIP3     387      TIP3     OH2      OT      -0.834000       15.9994           0
     13642 TIP3     387      TIP3     H1       HT       0.417000       1.00800           0
     13643 TIP3     387      TIP3     H2       HT       0.417000       1.00800           0
     13644 TIP3     388      TIP3     OH2      OT      -0.834000       15.9994           0
     13645 TIP3     388      TIP3     H1       HT       0.417000       1.00800           0
     13646 TIP3     388      TIP3     H2       HT       0.417000       1.00800           0
     13647 TIP3     389      TIP3     OH2      OT      -0.834000       15.9994           0
     13648 TIP3     389      TIP3     H1       HT       0.417000       1.00800           0
     13649 TIP3     389      TIP3     H2       HT       0.417000       1.00800           0
     13650 TIP3     390      TIP3     OH2      OT      -0.834000       15.9994           0
     13651 TIP3     390      TIP3     H1       HT       0.417000       1.00800           0
     13652 TIP3     390      TIP3     H2       HT       0.417000       1.00800           0
     13653 TIP3     391      TIP3     OH2      OT      -0.834000       15.9994           0
     13654 TIP3     391      TIP3     H1       HT       0.417000       1.00800           0
     13655 TIP3     391      TIP3     H2       HT       0.417000       1.00800           0
     13656 TIP3     392      TIP3     OH2      OT      -0.834000       15.9994           0
     13657 TIP3     392      TIP3     H1       HT       0.417000       1.00800           0
     13658 TIP3     392      TIP3     H2       HT       0.417000       1.00800           0
     13659 TIP3     393      TIP3     OH2      OT      -0.834000       15.9994           0
     13660 TIP3     393      TIP3     H1       HT       0.417000       1.00800           0
     13661 TIP3     393      TIP3     H2       HT       0.417000       1.00800           0
     13662 TIP3     394      TIP3     OH2      OT      -0.834000       15.9994           0
     13663 TIP3     394      TIP3     H1       HT       0.417000       1.00800           0
     13664 TIP3     394      TIP3     H2       HT       0.417000       1.00800           0
     13665 TIP3     395      TIP3     OH2      OT      -0.834000       15.9994           0
     13666 TIP3     395      TIP3     H1       HT       0.417000       1.00800           0
     13667 TIP3     395      TIP3     H2       HT       0.417000       1.00800           0
     13668 TIP3     396      TIP3     OH2      OT      -0.834000       15.9994           0
     13669 TIP3     396      TIP3     H1       HT       0.417000       1.00800           0
     13670 TIP3     396      TIP3     H2       HT       0.417000       1.00800           0
     13671 TIP3     397      TIP3     OH2      OT      -0.834000       15.9994           0
     13672 TIP3     397      TIP3     H1       HT       0.417000       1.00800           0
     13673 TIP3     397      TIP3     H2       HT       0.417000       1.00800           0
     13674 TIP3     398      TIP3     OH2      OT      -0.834000       15.9994           0
     13675 TIP3     398      TIP3     H1       HT       0.417000       1.00800           0
     13676 TIP3     398      TIP3     H2       HT       0.417000       1.00800           0
     13677 TIP3     399      TIP3     OH2      OT      -0.834000       15.9994           0
     13678 TIP3     399      TIP3     H1       HT       0.417000       1.00800           0
     13679 TIP3     399      TIP3     H2       HT       0.417000       1.00800           0
     13680 TIP3     400      TIP3     OH2      OT      -0.834000       15.9994           0
     13681 TIP3     400      TIP3     H1       HT       0.417000       1.00800           0
     13682 TIP3     400      TIP3     H2       HT       0.417000       1.00800           0
     13683 TIP3     401      TIP3     OH2      OT      -0.834000       15.9994           0
     13684 TIP3     401      TIP3     H1       HT       0.417000       1.00800           0
     13685 TIP3     401      TIP3     H2       HT       0.417000       1.00800           0
     13686 TIP3     402      TIP3     OH2      OT      -0.834000       15.9994           0
     13687 TIP3     402      TIP3     H1       HT       0.417000       1.00800           0
     13688 TIP3     402      TIP3     H2       HT       0.417000       1.00800           0
     13689 TIP3     403      TIP3     OH2      OT      -0.834000       15.9994           0
     13690 TIP3     403      TIP3     H1       HT       0.417000       1.00800           0
     13691 TIP3     403      TIP3     H2       HT       0.417000       1.00800           0
     13692 TIP3     404      TIP3     OH2      OT      -0.834000       15.9994           0
     13693 TIP3     404      TIP3     H1       HT       0.417000       1.00800           0
     13694 TIP3     404      TIP3     H2       HT       0.417000       1.00800           0
     13695 TIP3     405      TIP3     OH2      OT      -0.834000       15.9994           0
     13696 TIP3     405      TIP3     H1       HT       0.417000       1.00800           0
     13697 TIP3     405      TIP3     H2       HT       0.417000       1.00800           0
     13698 TIP3     406      TIP3     OH2      OT      -0.834000       15.9994           0
     13699 TIP3     406      TIP3     H1       HT       0.417000       1.00800           0
     13700 TIP3     406      TIP3     H2       HT       0.417000       1.00800           0
     13701 TIP3     407      TIP3     OH2      OT      -0.834000       15.9994           0
     13702 TIP3     407      TIP3     H1       HT       0.417000       1.00800           0
     13703 TIP3     407      TIP3     H2       HT       0.417000       1.00800           0
     13704 TIP3     408      TIP3     OH2      OT      -0.834000       15.9994           0
     13705 TIP3     408      TIP3     H1       HT       0.417000       1.00800           0
     13706 TIP3     408      TIP3     H2       HT       0.417000       1.00800           0
     13707 TIP3     409      TIP3     OH2      OT      -0.834000       15.9994           0
     13708 TIP3     409      TIP3     H1       HT       0.417000       1.00800           0
     13709 TIP3     409      TIP3     H2       HT       0.417000       1.00800           0
     13710 TIP3     410      TIP3     OH2      OT      -0.834000       15.9994           0
     13711 TIP3     410      TIP3     H1       HT       0.417000       1.00800           0
     13712 TIP3     410      TIP3     H2       HT       0.417000       1.00800           0
     13713 TIP3     411      TIP3     OH2      OT      -0.834000       15.9994           0
     13714 TIP3     411      TIP3     H1       HT       0.417000       1.00800           0
     13715 TIP3     411      TIP3     H2       HT       0.417000       1.00800           0
     13716 TIP3     412      TIP3     OH2      OT      -0.834000       15.9994           0
     13717 TIP3     412      TIP3     H1       HT       0.417000       1.00800           0
     13718 TIP3     412      TIP3     H2       HT       0.417000       1.00800           0
     13719 TIP3     413      TIP3     OH2      OT      -0.834000       15.9994           0
     13720 TIP3     413      TIP3     H1       HT       0.417000       1.00800           0
     13721 TIP3     413      TIP3     H2       HT       0.417000       1.00800           0
     13722 TIP3     414      TIP3     OH2      OT      -0.834000       15.9994           0
     13723 TIP3     414      TIP3     H1       HT       0.417000       1.00800           0
     13724 TIP3     414      TIP3     H2       HT       0.417000       1.00800           0
     13725 TIP3     415      TIP3     OH2      OT      -0.834000       15.9994           0
     13726 TIP3     415      TIP3     H1       HT       0.417000       1.00800           0
     13727 TIP3     415      TIP3     H2       HT       0.417000       1.00800           0
     13728 TIP3     416      TIP3     OH2      OT      -0.834000       15.9994           0
     13729 TIP3     416      TIP3     H1       HT       0.417000       1.00800           0
     13730 TIP3     416      TIP3     H2       HT       0.417000       1.00800           0
     13731 TIP3     417      TIP3     OH2      OT      -0.834000       15.9994           0
     13732 TIP3     417      TIP3     H1       HT       0.417000       1.00800           0
     13733 TIP3     417      TIP3     H2       HT       0.417000       1.00800           0
     13734 TIP3     418      TIP3     OH2      OT      -0.834000       15.9994           0
     13735 TIP3     418      TIP3     H1       HT       0.417000       1.00800           0
     13736 TIP3     418      TIP3     H2       HT       0.417000       1.00800           0
     13737 TIP3     419      TIP3     OH2      OT      -0.834000       15.9994           0
     13738 TIP3     419      TIP3     H1       HT       0.417000       1.00800           0
     13739 TIP3     419      TIP3     H2       HT       0.417000       1.00800           0
     13740 TIP3     420      TIP3     OH2      OT      -0.834000       15.9994           0
     13741 TIP3     420      TIP3     H1       HT       0.417000       1.00800           0
     13742 TIP3     420      TIP3     H2       HT       0.417000       1.00800           0
     13743 TIP3     421      TIP3     OH2      OT      -0.834000       15.9994           0
     13744 TIP3     421      TIP3     H1       HT       0.417000       1.00800           0
     13745 TIP3     421      TIP3     H2       HT       0.417000       1.00800           0
     13746 TIP3     422      TIP3     OH2      OT      -0.834000       15.9994           0
     13747 TIP3     422      TIP3     H1       HT       0.417000       1.00800           0
     13748 TIP3     422      TIP3     H2       HT       0.417000       1.00800           0
     13749 TIP3     423      TIP3     OH2      OT      -0.834000       15.9994           0
     13750 TIP3     423      TIP3     H1       HT       0.417000       1.00800           0
     13751 TIP3     423      TIP3     H2       HT       0.417000       1.00800           0
     13752 TIP3     424      TIP3     OH2      OT      -0.834000       15.9994           0
     13753 TIP3     424      TIP3     H1       HT       0.417000       1.00800           0
     13754 TIP3     424      TIP3     H2       HT       0.417000       1.00800           0
     13755 TIP3     425      TIP3     OH2      OT      -0.834000       15.9994           0
     13756 TIP3     425      TIP3     H1       HT       0.417000       1.00800           0
     13757 TIP3     425      TIP3     H2       HT       0.417000       1.00800           0
     13758 TIP3     426      TIP3     OH2      OT      -0.834000       15.9994           0
     13759 TIP3     426      TIP3     H1       HT       0.417000       1.00800           0
     13760 TIP3     426      TIP3     H2       HT       0.417000       1.00800           0
     13761 TIP3     427      TIP3     OH2      OT      -0.834000       15.9994           0
     13762 TIP3     427      TIP3     H1       HT       0.417000       1.00800           0
     13763 TIP3     427      TIP3     H2       HT       0.417000       1.00800           0
     13764 TIP3     428      TIP3     OH2      OT      -0.834000       15.9994           0
     13765 TIP3     428      TIP3     H1       HT       0.417000       1.00800           0
     13766 TIP3     428      TIP3     H2       HT       0.417000       1.00800           0
     13767 TIP3     429      TIP3     OH2      OT      -0.834000       15.9994           0
     13768 TIP3     429      TIP3     H1       HT       0.417000       1.00800           0
     13769 TIP3     429      TIP3     H2       HT       0.417000       1.00800           0
     13770 TIP3     430      TIP3     OH2      OT      -0.834000       15.9994           0
     13771 TIP3     430      TIP3     H1       HT       0.417000       1.00800           0
     13772 TIP3     430      TIP3     H2       HT       0.417000       1.00800           0
     13773 TIP3     431      TIP3     OH2      OT      -0.834000       15.9994           0
     13774 TIP3     431      TIP3     H1       HT       0.417000       1.00800           0
     13775 TIP3     431      TIP3     H2       HT       0.417000       1.00800           0
     13776 TIP3     432      TIP3     OH2      OT      -0.834000       15.9994           0
     13777 TIP3     432      TIP3     H1       HT       0.417000       1.00800           0
     13778 TIP3     432      TIP3     H2       HT       0.417000       1.00800           0
     13779 TIP3     433      TIP3     OH2      OT      -0.834000       15.9994           0
     13780 TIP3     433      TIP3     H1       HT       0.417000       1.00800           0
     13781 TIP3     433      TIP3     H2       HT       0.417000       1.00800           0
     13782 TIP3     434      TIP3     OH2      OT      -0.834000       15.9994           0
     13783 TIP3     434      TIP3     H1       HT       0.417000       1.00800           0
     13784 TIP3     434      TIP3     H2       HT       0.417000       1.00800           0
     13785 TIP3     435      TIP3     OH2      OT      -0.834000       15.9994           0
     13786 TIP3     435      TIP3     H1       HT       0.417000       1.00800           0
     13787 TIP3     435      TIP3     H2       HT       0.417000       1.00800           0
     13788 TIP3     436      TIP3     OH2      OT      -0.834000       15.9994           0
     13789 TIP3     436      TIP3     H1       HT       0.417000       1.00800           0
     13790 TIP3     436      TIP3     H2       HT       0.417000       1.00800           0
     13791 TIP3     437      TIP3     OH2      OT      -0.834000       15.9994           0
     13792 TIP3     437      TIP3     H1       HT       0.417000       1.00800           0
     13793 TIP3     437      TIP3     H2       HT       0.417000       1.00800           0
     13794 TIP3     438      TIP3     OH2      OT      -0.834000       15.9994           0
     13795 TIP3     438      TIP3     H1       HT       0.417000       1.00800           0
     13796 TIP3     438      TIP3     H2       HT       0.417000       1.00800           0
     13797 TIP3     439      TIP3     OH2      OT      -0.834000       15.9994           0
     13798 TIP3     439      TIP3     H1       HT       0.417000       1.00800           0
     13799 TIP3     439      TIP3     H2       HT       0.417000       1.00800           0
     13800 TIP3     440      TIP3     OH2      OT      -0.834000       15.9994           0
     13801 TIP3     440      TIP3     H1       HT       0.417000       1.00800           0
     13802 TIP3     440      TIP3     H2       HT       0.417000       1.00800           0
     13803 TIP3     441      TIP3     OH2      OT      -0.834000       15.9994           0
     13804 TIP3     441      TIP3     H1       HT       0.417000       1.00800           0
     13805 TIP3     441      TIP3     H2       HT       0.417000       1.00800           0
     13806 TIP3     442      TIP3     OH2      OT      -0.834000       15.9994           0
     13807 TIP3     442      TIP3     H1       HT       0.417000       1.00800           0
     13808 TIP3     442      TIP3     H2       HT       0.417000       1.00800           0
     13809 TIP3     443      TIP3     OH2      OT      -0.834000       15.9994           0
     13810 TIP3     443      TIP3     H1       HT       0.417000       1.00800           0
     13811 TIP3     443      TIP3     H2       HT       0.417000       1.00800           0
     13812 TIP3     444      TIP3     OH2      OT      -0.834000       15.9994           0
     13813 TIP3     444      TIP3     H1       HT       0.417000       1.00800           0
     13814 TIP3     444      TIP3     H2       HT       0.417000       1.00800           0
     13815 TIP3     445      TIP3     OH2      OT      -0.834000       15.9994           0
     13816 TIP3     445      TIP3     H1       HT       0.417000       1.00800           0
     13817 TIP3     445      TIP3     H2       HT       0.417000       1.00800           0
     13818 TIP3     446      TIP3     OH2      OT      -0.834000       15.9994           0
     13819 TIP3     446      TIP3     H1       HT       0.417000       1.00800           0
     13820 TIP3     446      TIP3     H2       HT       0.417000       1.00800           0
     13821 TIP3     447      TIP3     OH2      OT      -0.834000       15.9994           0
     13822 TIP3     447      TIP3     H1       HT       0.417000       1.00800           0
     13823 TIP3     447      TIP3     H2       HT       0.417000       1.00800           0
     13824 TIP3     448      TIP3     OH2      OT      -0.834000       15.9994           0
     13825 TIP3     448      TIP3     H1       HT       0.417000       1.00800           0
     13826 TIP3     448      TIP3     H2       HT       0.417000       1.00800           0
     13827 TIP3     449      TIP3     OH2      OT      -0.834000       15.9994           0
     13828 TIP3     449      TIP3     H1       HT       0.417000       1.00800           0
     13829 TIP3     449      TIP3     H2       HT       0.417000       1.00800           0
     13830 TIP3     450      TIP3     OH2      OT      -0.834000       15.9994           0
     13831 TIP3     450      TIP3     H1       HT       0.417000       1.00800           0
     13832 TIP3     450      TIP3     H2       HT       0.417000       1.00800           0
     13833 TIP3     451      TIP3     OH2      OT      -0.834000       15.9994           0
     13834 TIP3     451      TIP3     H1       HT       0.417000       1.00800           0
     13835 TIP3     451      TIP3     H2       HT       0.417000       1.00800           0
     13836 TIP3     452      TIP3     OH2      OT      -0.834000       15.9994           0
     13837 TIP3     452      TIP3     H1       HT       0.417000       1.00800           0
     13838 TIP3     452      TIP3     H2       HT       0.417000       1.00800           0
     13839 TIP3     453      TIP3     OH2      OT      -0.834000       15.9994           0
     13840 TIP3     453      TIP3     H1       HT       0.417000       1.00800           0
     13841 TIP3     453      TIP3     H2       HT       0.417000       1.00800           0
     13842 TIP3     454      TIP3     OH2      OT      -0.834000       15.9994           0
     13843 TIP3     454      TIP3     H1       HT       0.417000       1.00800           0
     13844 TIP3     454      TIP3     H2       HT       0.417000       1.00800           0
     13845 TIP3     455      TIP3     OH2      OT      -0.834000       15.9994           0
     13846 TIP3     455      TIP3     H1       HT       0.417000       1.00800           0
     13847 TIP3     455      TIP3     H2       HT       0.417000       1.00800           0
     13848 TIP3     456      TIP3     OH2      OT      -0.834000       15.9994           0
     13849 TIP3     456      TIP3     H1       HT       0.417000       1.00800           0
     13850 TIP3     456      TIP3     H2       HT       0.417000       1.00800           0
     13851 TIP3     457      TIP3     OH2      OT      -0.834000       15.9994           0
     13852 TIP3     457      TIP3     H1       HT       0.417000       1.00800           0
     13853 TIP3     457      TIP3     H2       HT       0.417000       1.00800           0
     13854 TIP3     458      TIP3     OH2      OT      -0.834000       15.9994           0
     13855 TIP3     458      TIP3     H1       HT       0.417000       1.00800           0
     13856 TIP3     458      TIP3     H2       HT       0.417000       1.00800           0
     13857 TIP3     459      TIP3     OH2      OT      -0.834000       15.9994           0
     13858 TIP3     459      TIP3     H1       HT       0.417000       1.00800           0
     13859 TIP3     459      TIP3     H2       HT       0.417000       1.00800           0
     13860 TIP3     460      TIP3     OH2      OT      -0.834000       15.9994           0
     13861 TIP3     460      TIP3     H1       HT       0.417000       1.00800           0
     13862 TIP3     460      TIP3     H2       HT       0.417000       1.00800           0
     13863 TIP3     461      TIP3     OH2      OT      -0.834000       15.9994           0
     13864 TIP3     461      TIP3     H1       HT       0.417000       1.00800           0
     13865 TIP3     461      TIP3     H2       HT       0.417000       1.00800           0
     13866 TIP3     462      TIP3     OH2      OT      -0.834000       15.9994           0
     13867 TIP3     462      TIP3     H1       HT       0.417000       1.00800           0
     13868 TIP3     462      TIP3     H2       HT       0.417000       1.00800           0
     13869 TIP3     463      TIP3     OH2      OT      -0.834000       15.9994           0
     13870 TIP3     463      TIP3     H1       HT       0.417000       1.00800           0
     13871 TIP3     463      TIP3     H2       HT       0.417000       1.00800           0
     13872 TIP3     464      TIP3     OH2      OT      -0.834000       15.9994           0
     13873 TIP3     464      TIP3     H1       HT       0.417000       1.00800           0
     13874 TIP3     464      TIP3     H2       HT       0.417000       1.00800           0
     13875 TIP3     465      TIP3     OH2      OT      -0.834000       15.9994           0
     13876 TIP3     465      TIP3     H1       HT       0.417000       1.00800           0
     13877 TIP3     465      TIP3     H2       HT       0.417000       1.00800           0
     13878 TIP3     466      TIP3     OH2      OT      -0.834000       15.9994           0
     13879 TIP3     466      TIP3     H1       HT       0.417000       1.00800           0
     13880 TIP3     466      TIP3     H2       HT       0.417000       1.00800           0
     13881 TIP3     467      TIP3     OH2      OT      -0.834000       15.9994           0
     13882 TIP3     467      TIP3     H1       HT       0.417000       1.00800           0
     13883 TIP3     467      TIP3     H2       HT       0.417000       1.00800           0
     13884 TIP3     468      TIP3     OH2      OT      -0.834000       15.9994           0
     13885 TIP3     468      TIP3     H1       HT       0.417000       1.00800           0
     13886 TIP3     468      TIP3     H2       HT       0.417000       1.00800           0
     13887 TIP3     469      TIP3     OH2      OT      -0.834000       15.9994           0
     13888 TIP3     469      TIP3     H1       HT       0.417000       1.00800           0
     13889 TIP3     469      TIP3     H2       HT       0.417000       1.00800           0
     13890 TIP3     470      TIP3     OH2      OT      -0.834000       15.9994           0
     13891 TIP3     470      TIP3     H1       HT       0.417000       1.00800           0
     13892 TIP3     470      TIP3     H2       HT       0.417000       1.00800           0
     13893 TIP3     471      TIP3     OH2      OT      -0.834000       15.9994           0
     13894 TIP3     471      TIP3     H1       HT       0.417000       1.00800           0
     13895 TIP3     471      TIP3     H2       HT       0.417000       1.00800           0
     13896 TIP3     472      TIP3     OH2      OT      -0.834000       15.9994           0
     13897 TIP3     472      TIP3     H1       HT       0.417000       1.00800           0
     13898 TIP3     472      TIP3     H2       HT       0.417000       1.00800           0
     13899 TIP3     473      TIP3     OH2      OT      -0.834000       15.9994           0
     13900 TIP3     473      TIP3     H1       HT       0.417000       1.00800           0
     13901 TIP3     473      TIP3     H2       HT       0.417000       1.00800           0
     13902 TIP3     474      TIP3     OH2      OT      -0.834000       15.9994           0
     13903 TIP3     474      TIP3     H1       HT       0.417000       1.00800           0
     13904 TIP3     474      TIP3     H2       HT       0.417000       1.00800           0
     13905 TIP3     475      TIP3     OH2      OT      -0.834000       15.9994           0
     13906 TIP3     475      TIP3     H1       HT       0.417000       1.00800           0
     13907 TIP3     475      TIP3     H2       HT       0.417000       1.00800           0
     13908 TIP3     476      TIP3     OH2      OT      -0.834000       15.9994           0
     13909 TIP3     476      TIP3     H1       HT       0.417000       1.00800           0
     13910 TIP3     476      TIP3     H2       HT       0.417000       1.00800           0
     13911 TIP3     477      TIP3     OH2      OT      -0.834000       15.9994           0
     13912 TIP3     477      TIP3     H1       HT       0.417000       1.00800           0
     13913 TIP3     477      TIP3     H2       HT       0.417000       1.00800           0
     13914 TIP3     478      TIP3     OH2      OT      -0.834000       15.9994           0
     13915 TIP3     478      TIP3     H1       HT       0.417000       1.00800           0
     13916 TIP3     478      TIP3     H2       HT       0.417000       1.00800           0
     13917 TIP3     479      TIP3     OH2      OT      -0.834000       15.9994           0
     13918 TIP3     479      TIP3     H1       HT       0.417000       1.00800           0
     13919 TIP3     479      TIP3     H2       HT       0.417000       1.00800           0
     13920 TIP3     480      TIP3     OH2      OT      -0.834000       15.9994           0
     13921 TIP3     480      TIP3     H1       HT       0.417000       1.00800           0
     13922 TIP3     480      TIP3     H2       HT       0.417000       1.00800           0
     13923 TIP3     481      TIP3     OH2      OT      -0.834000       15.9994           0
     13924 TIP3     481      TIP3     H1       HT       0.417000       1.00800           0
     13925 TIP3     481      TIP3     H2       HT       0.417000       1.00800           0
     13926 TIP3     482      TIP3     OH2      OT      -0.834000       15.9994           0
     13927 TIP3     482      TIP3     H1       HT       0.417000       1.00800           0
     13928 TIP3     482      TIP3     H2       HT       0.417000       1.00800           0
     13929 TIP3     483      TIP3     OH2      OT      -0.834000       15.9994           0
     13930 TIP3     483      TIP3     H1       HT       0.417000       1.00800           0
     13931 TIP3     483      TIP3     H2       HT       0.417000       1.00800           0
     13932 TIP3     484      TIP3     OH2      OT      -0.834000       15.9994           0
     13933 TIP3     484      TIP3     H1       HT       0.417000       1.00800           0
     13934 TIP3     484      TIP3     H2       HT       0.417000       1.00800           0
     13935 TIP3     485      TIP3     OH2      OT      -0.834000       15.9994           0
     13936 TIP3     485      TIP3     H1       HT       0.417000       1.00800           0
     13937 TIP3     485      TIP3     H2       HT       0.417000       1.00800           0
     13938 TIP3     486      TIP3     OH2      OT      -0.834000       15.9994           0
     13939 TIP3     486      TIP3     H1       HT       0.417000       1.00800           0
     13940 TIP3     486      TIP3     H2       HT       0.417000       1.00800           0
     13941 TIP3     487      TIP3     OH2      OT      -0.834000       15.9994           0
     13942 TIP3     487      TIP3     H1       HT       0.417000       1.00800           0
     13943 TIP3     487      TIP3     H2       HT       0.417000       1.00800           0
     13944 TIP3     488      TIP3     OH2      OT      -0.834000       15.9994           0
     13945 TIP3     488      TIP3     H1       HT       0.417000       1.00800           0
     13946 TIP3     488      TIP3     H2       HT       0.417000       1.00800           0
     13947 TIP3     489      TIP3     OH2      OT      -0.834000       15.9994           0
     13948 TIP3     489      TIP3     H1       HT       0.417000       1.00800           0
     13949 TIP3     489      TIP3     H2       HT       0.417000       1.00800           0
     13950 TIP3     490      TIP3     OH2      OT      -0.834000       15.9994           0
     13951 TIP3     490      TIP3     H1       HT       0.417000       1.00800           0
     13952 TIP3     490      TIP3     H2       HT       0.417000       1.00800           0
     13953 TIP3     491      TIP3     OH2      OT      -0.834000       15.9994           0
     13954 TIP3     491      TIP3     H1       HT       0.417000       1.00800           0
     13955 TIP3     491      TIP3     H2       HT       0.417000       1.00800           0
     13956 TIP3     492      TIP3     OH2      OT      -0.834000       15.9994           0
     13957 TIP3     492      TIP3     H1       HT       0.417000       1.00800           0
     13958 TIP3     492      TIP3     H2       HT       0.417000       1.00800           0
     13959 TIP3     493      TIP3     OH2      OT      -0.834000       15.9994           0
     13960 TIP3     493      TIP3     H1       HT       0.417000       1.00800           0
     13961 TIP3     493      TIP3     H2       HT       0.417000       1.00800           0
     13962 TIP3     494      TIP3     OH2      OT      -0.834000       15.9994           0
     13963 TIP3     494      TIP3     H1       HT       0.417000       1.00800           0
     13964 TIP3     494      TIP3     H2       HT       0.417000       1.00800           0
     13965 TIP3     495      TIP3     OH2      OT      -0.834000       15.9994           0
     13966 TIP3     495      TIP3     H1       HT       0.417000       1.00800           0
     13967 TIP3     495      TIP3     H2       HT       0.417000       1.00800           0
     13968 TIP3     496      TIP3     OH2      OT      -0.834000       15.9994           0
     13969 TIP3     496      TIP3     H1       HT       0.417000       1.00800           0
     13970 TIP3     496      TIP3     H2       HT       0.417000       1.00800           0
     13971 TIP3     497      TIP3     OH2      OT      -0.834000       15.9994           0
     13972 TIP3     497      TIP3     H1       HT       0.417000       1.00800           0
     13973 TIP3     497      TIP3     H2       HT       0.417000       1.00800           0
     13974 TIP3     498      TIP3     OH2      OT      -0.834000       15.9994           0
     13975 TIP3     498      TIP3     H1       HT       0.417000       1.00800           0
     13976 TIP3     498      TIP3     H2       HT       0.417000       1.00800           0
     13977 TIP3     499      TIP3     OH2      OT      -0.834000       15.9994           0
     13978 TIP3     499      TIP3     H1       HT       0.417000       1.00800           0
     13979 TIP3     499      TIP3     H2       HT       0.417000       1.00800           0
     13980 TIP3     500      TIP3     OH2      OT      -0.834000       15.9994           0
     13981 TIP3     500      TIP3     H1       HT       0.417000       1.00800           0
     13982 TIP3     500      TIP3     H2       HT       0.417000       1.00800           0
     13983 TIP3     501      TIP3     OH2      OT      -0.834000       15.9994           0
     13984 TIP3     501      TIP3     H1       HT       0.417000       1.00800           0
     13985 TIP3     501      TIP3     H2       HT       0.417000       1.00800           0
     13986 TIP3     502      TIP3     OH2      OT      -0.834000       15.9994           0
     13987 TIP3     502      TIP3     H1       HT       0.417000       1.00800           0
     13988 TIP3     502      TIP3     H2       HT       0.417000       1.00800           0
     13989 TIP3     503      TIP3     OH2      OT      -0.834000       15.9994           0
     13990 TIP3     503      TIP3     H1       HT       0.417000       1.00800           0
     13991 TIP3     503      TIP3     H2       HT       0.417000       1.00800           0
     13992 TIP3     504      TIP3     OH2      OT      -0.834000       15.9994           0
     13993 TIP3     504      TIP3     H1       HT       0.417000       1.00800           0
     13994 TIP3     504      TIP3     H2       HT       0.417000       1.00800           0
     13995 TIP3     505      TIP3     OH2      OT      -0.834000       15.9994           0
     13996 TIP3     505      TIP3     H1       HT       0.417000       1.00800           0
     13997 TIP3     505      TIP3     H2       HT       0.417000       1.00800           0
     13998 TIP3     506      TIP3     OH2      OT      -0.834000       15.9994           0
     13999 TIP3     506      TIP3     H1       HT       0.417000       1.00800           0
     14000 TIP3     506      TIP3     H2       HT       0.417000       1.00800           0
     14001 TIP3     507      TIP3     OH2      OT      -0.834000       15.9994           0
     14002 TIP3     507      TIP3     H1       HT       0.417000       1.00800           0
     14003 TIP3     507      TIP3     H2       HT       0.417000       1.00800           0
     14004 TIP3     508      TIP3     OH2      OT      -0.834000       15.9994           0
     14005 TIP3     508      TIP3     H1       HT       0.417000       1.00800           0
     14006 TIP3     508      TIP3     H2       HT       0.417000       1.00800           0
     14007 TIP3     509      TIP3     OH2      OT      -0.834000       15.9994           0
     14008 TIP3     509      TIP3     H1       HT       0.417000       1.00800           0
     14009 TIP3     509      TIP3     H2       HT       0.417000       1.00800           0
     14010 TIP3     510      TIP3     OH2      OT      -0.834000       15.9994           0
     14011 TIP3     510      TIP3     H1       HT       0.417000       1.00800           0
     14012 TIP3     510      TIP3     H2       HT       0.417000       1.00800           0
     14013 TIP3     511      TIP3     OH2      OT      -0.834000       15.9994           0
     14014 TIP3     511      TIP3     H1       HT       0.417000       1.00800           0
     14015 TIP3     511      TIP3     H2       HT       0.417000       1.00800           0
     14016 TIP3     512      TIP3     OH2      OT      -0.834000       15.9994           0
     14017 TIP3     512      TIP3     H1       HT       0.417000       1.00800           0
     14018 TIP3     512      TIP3     H2       HT       0.417000       1.00800           0
     14019 TIP3     513      TIP3     OH2      OT      -0.834000       15.9994           0
     14020 TIP3     513      TIP3     H1       HT       0.417000       1.00800           0
     14021 TIP3     513      TIP3     H2       HT       0.417000       1.00800           0
     14022 TIP3     514      TIP3     OH2      OT      -0.834000       15.9994           0
     14023 TIP3     514      TIP3     H1       HT       0.417000       1.00800           0
     14024 TIP3     514      TIP3     H2       HT       0.417000       1.00800           0
     14025 TIP3     515      TIP3     OH2      OT      -0.834000       15.9994           0
     14026 TIP3     515      TIP3     H1       HT       0.417000       1.00800           0
     14027 TIP3     515      TIP3     H2       HT       0.417000       1.00800           0
     14028 TIP3     516      TIP3     OH2      OT      -0.834000       15.9994           0
     14029 TIP3     516      TIP3     H1       HT       0.417000       1.00800           0
     14030 TIP3     516      TIP3     H2       HT       0.417000       1.00800           0
     14031 TIP3     517      TIP3     OH2      OT      -0.834000       15.9994           0
     14032 TIP3     517      TIP3     H1       HT       0.417000       1.00800           0
     14033 TIP3     517      TIP3     H2       HT       0.417000       1.00800           0
     14034 TIP3     518      TIP3     OH2      OT      -0.834000       15.9994           0
     14035 TIP3     518      TIP3     H1       HT       0.417000       1.00800           0
     14036 TIP3     518      TIP3     H2       HT       0.417000       1.00800           0
     14037 TIP3     519      TIP3     OH2      OT      -0.834000       15.9994           0
     14038 TIP3     519      TIP3     H1       HT       0.417000       1.00800           0
     14039 TIP3     519      TIP3     H2       HT       0.417000       1.00800           0
     14040 TIP3     520      TIP3     OH2      OT      -0.834000       15.9994           0
     14041 TIP3     520      TIP3     H1       HT       0.417000       1.00800           0
     14042 TIP3     520      TIP3     H2       HT       0.417000       1.00800           0
     14043 TIP3     521      TIP3     OH2      OT      -0.834000       15.9994           0
     14044 TIP3     521      TIP3     H1       HT       0.417000       1.00800           0
     14045 TIP3     521      TIP3     H2       HT       0.417000       1.00800           0
     14046 TIP3     522      TIP3     OH2      OT      -0.834000       15.9994           0
     14047 TIP3     522      TIP3     H1       HT       0.417000       1.00800           0
     14048 TIP3     522      TIP3     H2       HT       0.417000       1.00800           0
     14049 TIP3     523      TIP3     OH2      OT      -0.834000       15.9994           0
     14050 TIP3     523      TIP3     H1       HT       0.417000       1.00800           0
     14051 TIP3     523      TIP3     H2       HT       0.417000       1.00800           0
     14052 TIP3     524      TIP3     OH2      OT      -0.834000       15.9994           0
     14053 TIP3     524      TIP3     H1       HT       0.417000       1.00800           0
     14054 TIP3     524      TIP3     H2       HT       0.417000       1.00800           0
     14055 TIP3     525      TIP3     OH2      OT      -0.834000       15.9994           0
     14056 TIP3     525      TIP3     H1       HT       0.417000       1.00800           0
     14057 TIP3     525      TIP3     H2       HT       0.417000       1.00800           0
     14058 TIP3     526      TIP3     OH2      OT      -0.834000       15.9994           0
     14059 TIP3     526      TIP3     H1       HT       0.417000       1.00800           0
     14060 TIP3     526      TIP3     H2       HT       0.417000       1.00800           0
     14061 TIP3     527      TIP3     OH2      OT      -0.834000       15.9994           0
     14062 TIP3     527      TIP3     H1       HT       0.417000       1.00800           0
     14063 TIP3     527      TIP3     H2       HT       0.417000       1.00800           0
     14064 TIP3     528      TIP3     OH2      OT      -0.834000       15.9994           0
     14065 TIP3     528      TIP3     H1       HT       0.417000       1.00800           0
     14066 TIP3     528      TIP3     H2       HT       0.417000       1.00800           0
     14067 TIP3     529      TIP3     OH2      OT      -0.834000       15.9994           0
     14068 TIP3     529      TIP3     H1       HT       0.417000       1.00800           0
     14069 TIP3     529      TIP3     H2       HT       0.417000       1.00800           0
     14070 TIP3     530      TIP3     OH2      OT      -0.834000       15.9994           0
     14071 TIP3     530      TIP3     H1       HT       0.417000       1.00800           0
     14072 TIP3     530      TIP3     H2       HT       0.417000       1.00800           0
     14073 TIP3     531      TIP3     OH2      OT      -0.834000       15.9994           0
     14074 TIP3     531      TIP3     H1       HT       0.417000       1.00800           0
     14075 TIP3     531      TIP3     H2       HT       0.417000       1.00800           0
     14076 TIP3     532      TIP3     OH2      OT      -0.834000       15.9994           0
     14077 TIP3     532      TIP3     H1       HT       0.417000       1.00800           0
     14078 TIP3     532      TIP3     H2       HT       0.417000       1.00800           0
     14079 TIP3     533      TIP3     OH2      OT      -0.834000       15.9994           0
     14080 TIP3     533      TIP3     H1       HT       0.417000       1.00800           0
     14081 TIP3     533      TIP3     H2       HT       0.417000       1.00800           0
     14082 TIP3     534      TIP3     OH2      OT      -0.834000       15.9994           0
     14083 TIP3     534      TIP3     H1       HT       0.417000       1.00800           0
     14084 TIP3     534      TIP3     H2       HT       0.417000       1.00800           0
     14085 TIP3     535      TIP3     OH2      OT      -0.834000       15.9994           0
     14086 TIP3     535      TIP3     H1       HT       0.417000       1.00800           0
     14087 TIP3     535      TIP3     H2       HT       0.417000       1.00800           0
     14088 TIP3     536      TIP3     OH2      OT      -0.834000       15.9994           0
     14089 TIP3     536      TIP3     H1       HT       0.417000       1.00800           0
     14090 TIP3     536      TIP3     H2       HT       0.417000       1.00800           0
     14091 TIP3     537      TIP3     OH2      OT      -0.834000       15.9994           0
     14092 TIP3     537      TIP3     H1       HT       0.417000       1.00800           0
     14093 TIP3     537      TIP3     H2       HT       0.417000       1.00800           0
     14094 TIP3     538      TIP3     OH2      OT      -0.834000       15.9994           0
     14095 TIP3     538      TIP3     H1       HT       0.417000       1.00800           0
     14096 TIP3     538      TIP3     H2       HT       0.417000       1.00800           0
     14097 TIP3     539      TIP3     OH2      OT      -0.834000       15.9994           0
     14098 TIP3     539      TIP3     H1       HT       0.417000       1.00800           0
     14099 TIP3     539      TIP3     H2       HT       0.417000       1.00800           0
     14100 TIP3     540      TIP3     OH2      OT      -0.834000       15.9994           0
     14101 TIP3     540      TIP3     H1       HT       0.417000       1.00800           0
     14102 TIP3     540      TIP3     H2       HT       0.417000       1.00800           0
     14103 TIP3     541      TIP3     OH2      OT      -0.834000       15.9994           0
     14104 TIP3     541      TIP3     H1       HT       0.417000       1.00800           0
     14105 TIP3     541      TIP3     H2       HT       0.417000       1.00800           0
     14106 TIP3     542      TIP3     OH2      OT      -0.834000       15.9994           0
     14107 TIP3     542      TIP3     H1       HT       0.417000       1.00800           0
     14108 TIP3     542      TIP3     H2       HT       0.417000       1.00800           0
     14109 TIP3     543      TIP3     OH2      OT      -0.834000       15.9994           0
     14110 TIP3     543      TIP3     H1       HT       0.417000       1.00800           0
     14111 TIP3     543      TIP3     H2       HT       0.417000       1.00800           0
     14112 TIP3     544      TIP3     OH2      OT      -0.834000       15.9994           0
     14113 TIP3     544      TIP3     H1       HT       0.417000       1.00800           0
     14114 TIP3     544      TIP3     H2       HT       0.417000       1.00800           0
     14115 TIP3     545      TIP3     OH2      OT      -0.834000       15.9994           0
     14116 TIP3     545      TIP3     H1       HT       0.417000       1.00800           0
     14117 TIP3     545      TIP3     H2       HT       0.417000       1.00800           0
     14118 TIP3     546      TIP3     OH2      OT      -0.834000       15.9994           0
     14119 TIP3     546      TIP3     H1       HT       0.417000       1.00800           0
     14120 TIP3     546      TIP3     H2       HT       0.417000       1.00800           0
     14121 TIP3     547      TIP3     OH2      OT      -0.834000       15.9994           0
     14122 TIP3     547      TIP3     H1       HT       0.417000       1.00800           0
     14123 TIP3     547      TIP3     H2       HT       0.417000       1.00800           0
     14124 TIP3     548      TIP3     OH2      OT      -0.834000       15.9994           0
     14125 TIP3     548      TIP3     H1       HT       0.417000       1.00800           0
     14126 TIP3     548      TIP3     H2       HT       0.417000       1.00800           0
     14127 TIP3     549      TIP3     OH2      OT      -0.834000       15.9994           0
     14128 TIP3     549      TIP3     H1       HT       0.417000       1.00800           0
     14129 TIP3     549      TIP3     H2       HT       0.417000       1.00800           0
     14130 TIP3     550      TIP3     OH2      OT      -0.834000       15.9994           0
     14131 TIP3     550      TIP3     H1       HT       0.417000       1.00800           0
     14132 TIP3     550      TIP3     H2       HT       0.417000       1.00800           0
     14133 TIP3     551      TIP3     OH2      OT      -0.834000       15.9994           0
     14134 TIP3     551      TIP3     H1       HT       0.417000       1.00800           0
     14135 TIP3     551      TIP3     H2       HT       0.417000       1.00800           0
     14136 TIP3     552      TIP3     OH2      OT      -0.834000       15.9994           0
     14137 TIP3     552      TIP3     H1       HT       0.417000       1.00800           0
     14138 TIP3     552      TIP3     H2       HT       0.417000       1.00800           0
     14139 TIP3     553      TIP3     OH2      OT      -0.834000       15.9994           0
     14140 TIP3     553      TIP3     H1       HT       0.417000       1.00800           0
     14141 TIP3     553      TIP3     H2       HT       0.417000       1.00800           0
     14142 TIP3     554      TIP3     OH2      OT      -0.834000       15.9994           0
     14143 TIP3     554      TIP3     H1       HT       0.417000       1.00800           0
     14144 TIP3     554      TIP3     H2       HT       0.417000       1.00800           0
     14145 TIP3     555      TIP3     OH2      OT      -0.834000       15.9994           0
     14146 TIP3     555      TIP3     H1       HT       0.417000       1.00800           0
     14147 TIP3     555      TIP3     H2       HT       0.417000       1.00800           0
     14148 TIP3     556      TIP3     OH2      OT      -0.834000       15.9994           0
     14149 TIP3     556      TIP3     H1       HT       0.417000       1.00800           0
     14150 TIP3     556      TIP3     H2       HT       0.417000       1.00800           0
     14151 TIP3     557      TIP3     OH2      OT      -0.834000       15.9994           0
     14152 TIP3     557      TIP3     H1       HT       0.417000       1.00800           0
     14153 TIP3     557      TIP3     H2       HT       0.417000       1.00800           0
     14154 TIP3     558      TIP3     OH2      OT      -0.834000       15.9994           0
     14155 TIP3     558      TIP3     H1       HT       0.417000       1.00800           0
     14156 TIP3     558      TIP3     H2       HT       0.417000       1.00800           0
     14157 TIP3     559      TIP3     OH2      OT      -0.834000       15.9994           0
     14158 TIP3     559      TIP3     H1       HT       0.417000       1.00800           0
     14159 TIP3     559      TIP3     H2       HT       0.417000       1.00800           0
     14160 TIP3     560      TIP3     OH2      OT      -0.834000       15.9994           0
     14161 TIP3     560      TIP3     H1       HT       0.417000       1.00800           0
     14162 TIP3     560      TIP3     H2       HT       0.417000       1.00800           0
     14163 TIP3     561      TIP3     OH2      OT      -0.834000       15.9994           0
     14164 TIP3     561      TIP3     H1       HT       0.417000       1.00800           0
     14165 TIP3     561      TIP3     H2       HT       0.417000       1.00800           0
     14166 TIP3     562      TIP3     OH2      OT      -0.834000       15.9994           0
     14167 TIP3     562      TIP3     H1       HT       0.417000       1.00800           0
     14168 TIP3     562      TIP3     H2       HT       0.417000       1.00800           0
     14169 TIP3     563      TIP3     OH2      OT      -0.834000       15.9994           0
     14170 TIP3     563      TIP3     H1       HT       0.417000       1.00800           0
     14171 TIP3     563      TIP3     H2       HT       0.417000       1.00800           0
     14172 TIP3     564      TIP3     OH2      OT      -0.834000       15.9994           0
     14173 TIP3     564      TIP3     H1       HT       0.417000       1.00800           0
     14174 TIP3     564      TIP3     H2       HT       0.417000       1.00800           0
     14175 TIP3     565      TIP3     OH2      OT      -0.834000       15.9994           0
     14176 TIP3     565      TIP3     H1       HT       0.417000       1.00800           0
     14177 TIP3     565      TIP3     H2       HT       0.417000       1.00800           0
     14178 TIP3     566      TIP3     OH2      OT      -0.834000       15.9994           0
     14179 TIP3     566      TIP3     H1       HT       0.417000       1.00800           0
     14180 TIP3     566      TIP3     H2       HT       0.417000       1.00800           0
     14181 TIP3     567      TIP3     OH2      OT      -0.834000       15.9994           0
     14182 TIP3     567      TIP3     H1       HT       0.417000       1.00800           0
     14183 TIP3     567      TIP3     H2       HT       0.417000       1.00800           0
     14184 TIP3     568      TIP3     OH2      OT      -0.834000       15.9994           0
     14185 TIP3     568      TIP3     H1       HT       0.417000       1.00800           0
     14186 TIP3     568      TIP3     H2       HT       0.417000       1.00800           0
     14187 TIP3     569      TIP3     OH2      OT      -0.834000       15.9994           0
     14188 TIP3     569      TIP3     H1       HT       0.417000       1.00800           0
     14189 TIP3     569      TIP3     H2       HT       0.417000       1.00800           0
     14190 TIP3     570      TIP3     OH2      OT      -0.834000       15.9994           0
     14191 TIP3     570      TIP3     H1       HT       0.417000       1.00800           0
     14192 TIP3     570      TIP3     H2       HT       0.417000       1.00800           0
     14193 TIP3     571      TIP3     OH2      OT      -0.834000       15.9994           0
     14194 TIP3     571      TIP3     H1       HT       0.417000       1.00800           0
     14195 TIP3     571      TIP3     H2       HT       0.417000       1.00800           0
     14196 TIP3     572      TIP3     OH2      OT      -0.834000       15.9994           0
     14197 TIP3     572      TIP3     H1       HT       0.417000       1.00800           0
     14198 TIP3     572      TIP3     H2       HT       0.417000       1.00800           0
     14199 TIP3     573      TIP3     OH2      OT      -0.834000       15.9994           0
     14200 TIP3     573      TIP3     H1       HT       0.417000       1.00800           0
     14201 TIP3     573      TIP3     H2       HT       0.417000       1.00800           0
     14202 TIP3     574      TIP3     OH2      OT      -0.834000       15.9994           0
     14203 TIP3     574      TIP3     H1       HT       0.417000       1.00800           0
     14204 TIP3     574      TIP3     H2       HT       0.417000       1.00800           0
     14205 TIP3     575      TIP3     OH2      OT      -0.834000       15.9994           0
     14206 TIP3     575      TIP3     H1       HT       0.417000       1.00800           0
     14207 TIP3     575      TIP3     H2       HT       0.417000       1.00800           0
     14208 TIP3     576      TIP3     OH2      OT      -0.834000       15.9994           0
     14209 TIP3     576      TIP3     H1       HT       0.417000       1.00800           0
     14210 TIP3     576      TIP3     H2       HT       0.417000       1.00800           0
     14211 TIP3     577      TIP3     OH2      OT      -0.834000       15.9994           0
     14212 TIP3     577      TIP3     H1       HT       0.417000       1.00800           0
     14213 TIP3     577      TIP3     H2       HT       0.417000       1.00800           0
     14214 TIP3     578      TIP3     OH2      OT      -0.834000       15.9994           0
     14215 TIP3     578      TIP3     H1       HT       0.417000       1.00800           0
     14216 TIP3     578      TIP3     H2       HT       0.417000       1.00800           0
     14217 TIP3     579      TIP3     OH2      OT      -0.834000       15.9994           0
     14218 TIP3     579      TIP3     H1       HT       0.417000       1.00800           0
     14219 TIP3     579      TIP3     H2       HT       0.417000       1.00800           0
     14220 TIP3     580      TIP3     OH2      OT      -0.834000       15.9994           0
     14221 TIP3     580      TIP3     H1       HT       0.417000       1.00800           0
     14222 TIP3     580      TIP3     H2       HT       0.417000       1.00800           0
     14223 TIP3     581      TIP3     OH2      OT      -0.834000       15.9994           0
     14224 TIP3     581      TIP3     H1       HT       0.417000       1.00800           0
     14225 TIP3     581      TIP3     H2       HT       0.417000       1.00800           0
     14226 TIP3     582      TIP3     OH2      OT      -0.834000       15.9994           0
     14227 TIP3     582      TIP3     H1       HT       0.417000       1.00800           0
     14228 TIP3     582      TIP3     H2       HT       0.417000       1.00800           0
     14229 TIP3     583      TIP3     OH2      OT      -0.834000       15.9994           0
     14230 TIP3     583      TIP3     H1       HT       0.417000       1.00800           0
     14231 TIP3     583      TIP3     H2       HT       0.417000       1.00800           0
     14232 TIP3     584      TIP3     OH2      OT      -0.834000       15.9994           0
     14233 TIP3     584      TIP3     H1       HT       0.417000       1.00800           0
     14234 TIP3     584      TIP3     H2       HT       0.417000       1.00800           0
     14235 TIP3     585      TIP3     OH2      OT      -0.834000       15.9994           0
     14236 TIP3     585      TIP3     H1       HT       0.417000       1.00800           0
     14237 TIP3     585      TIP3     H2       HT       0.417000       1.00800           0
     14238 TIP3     586      TIP3     OH2      OT      -0.834000       15.9994           0
     14239 TIP3     586      TIP3     H1       HT       0.417000       1.00800           0
     14240 TIP3     586      TIP3     H2       HT       0.417000       1.00800           0
     14241 TIP3     587      TIP3     OH2      OT      -0.834000       15.9994           0
     14242 TIP3     587      TIP3     H1       HT       0.417000       1.00800           0
     14243 TIP3     587      TIP3     H2       HT       0.417000       1.00800           0
     14244 TIP3     588      TIP3     OH2      OT      -0.834000       15.9994           0
     14245 TIP3     588      TIP3     H1       HT       0.417000       1.00800           0
     14246 TIP3     588      TIP3     H2       HT       0.417000       1.00800           0
     14247 TIP3     589      TIP3     OH2      OT      -0.834000       15.9994           0
     14248 TIP3     589      TIP3     H1       HT       0.417000       1.00800           0
     14249 TIP3     589      TIP3     H2       HT       0.417000       1.00800           0
     14250 TIP3     590      TIP3     OH2      OT      -0.834000       15.9994           0
     14251 TIP3     590      TIP3     H1       HT       0.417000       1.00800           0
     14252 TIP3     590      TIP3     H2       HT       0.417000       1.00800           0
     14253 TIP3     591      TIP3     OH2      OT      -0.834000       15.9994           0
     14254 TIP3     591      TIP3     H1       HT       0.417000       1.00800           0
     14255 TIP3     591      TIP3     H2       HT       0.417000       1.00800           0
     14256 TIP3     592      TIP3     OH2      OT      -0.834000       15.9994           0
     14257 TIP3     592      TIP3     H1       HT       0.417000       1.00800           0
     14258 TIP3     592      TIP3     H2       HT       0.417000       1.00800           0
     14259 TIP3     593      TIP3     OH2      OT      -0.834000       15.9994           0
     14260 TIP3     593      TIP3     H1       HT       0.417000       1.00800           0
     14261 TIP3     593      TIP3     H2       HT       0.417000       1.00800           0
     14262 TIP3     594      TIP3     OH2      OT      -0.834000       15.9994           0
     14263 TIP3     594      TIP3     H1       HT       0.417000       1.00800           0
     14264 TIP3     594      TIP3     H2       HT       0.417000       1.00800           0
     14265 TIP3     595      TIP3     OH2      OT      -0.834000       15.9994           0
     14266 TIP3     595      TIP3     H1       HT       0.417000       1.00800           0
     14267 TIP3     595      TIP3     H2       HT       0.417000       1.00800           0
     14268 TIP3     596      TIP3     OH2      OT      -0.834000       15.9994           0
     14269 TIP3     596      TIP3     H1       HT       0.417000       1.00800           0
     14270 TIP3     596      TIP3     H2       HT       0.417000       1.00800           0
     14271 TIP3     597      TIP3     OH2      OT      -0.834000       15.9994           0
     14272 TIP3     597      TIP3     H1       HT       0.417000       1.00800           0
     14273 TIP3     597      TIP3     H2       HT       0.417000       1.00800           0
     14274 TIP3     598      TIP3     OH2      OT      -0.834000       15.9994           0
     14275 TIP3     598      TIP3     H1       HT       0.417000       1.00800           0
     14276 TIP3     598      TIP3     H2       HT       0.417000       1.00800           0
     14277 TIP3     599      TIP3     OH2      OT      -0.834000       15.9994           0
     14278 TIP3     599      TIP3     H1       HT       0.417000       1.00800           0
     14279 TIP3     599      TIP3     H2       HT       0.417000       1.00800           0
     14280 TIP3     600      TIP3     OH2      OT      -0.834000       15.9994           0
     14281 TIP3     600      TIP3     H1       HT       0.417000       1.00800           0
     14282 TIP3     600      TIP3     H2       HT       0.417000       1.00800           0
     14283 TIP3     601      TIP3     OH2      OT      -0.834000       15.9994           0
     14284 TIP3     601      TIP3     H1       HT       0.417000       1.00800           0
     14285 TIP3     601      TIP3     H2       HT       0.417000       1.00800           0
     14286 TIP3     602      TIP3     OH2      OT      -0.834000       15.9994           0
     14287 TIP3     602      TIP3     H1       HT       0.417000       1.00800           0
     14288 TIP3     602      TIP3     H2       HT       0.417000       1.00800           0
     14289 TIP3     603      TIP3     OH2      OT      -0.834000       15.9994           0
     14290 TIP3     603      TIP3     H1       HT       0.417000       1.00800           0
     14291 TIP3     603      TIP3     H2       HT       0.417000       1.00800           0
     14292 TIP3     604      TIP3     OH2      OT      -0.834000       15.9994           0
     14293 TIP3     604      TIP3     H1       HT       0.417000       1.00800           0
     14294 TIP3     604      TIP3     H2       HT       0.417000       1.00800           0
     14295 TIP3     605      TIP3     OH2      OT      -0.834000       15.9994           0
     14296 TIP3     605      TIP3     H1       HT       0.417000       1.00800           0
     14297 TIP3     605      TIP3     H2       HT       0.417000       1.00800           0
     14298 TIP3     606      TIP3     OH2      OT      -0.834000       15.9994           0
     14299 TIP3     606      TIP3     H1       HT       0.417000       1.00800           0
     14300 TIP3     606      TIP3     H2       HT       0.417000       1.00800           0
     14301 TIP3     607      TIP3     OH2      OT      -0.834000       15.9994           0
     14302 TIP3     607      TIP3     H1       HT       0.417000       1.00800           0
     14303 TIP3     607      TIP3     H2       HT       0.417000       1.00800           0
     14304 TIP3     608      TIP3     OH2      OT      -0.834000       15.9994           0
     14305 TIP3     608      TIP3     H1       HT       0.417000       1.00800           0
     14306 TIP3     608      TIP3     H2       HT       0.417000       1.00800           0
     14307 TIP3     609      TIP3     OH2      OT      -0.834000       15.9994           0
     14308 TIP3     609      TIP3     H1       HT       0.417000       1.00800           0
     14309 TIP3     609      TIP3     H2       HT       0.417000       1.00800           0
     14310 TIP3     610      TIP3     OH2      OT      -0.834000       15.9994           0
     14311 TIP3     610      TIP3     H1       HT       0.417000       1.00800           0
     14312 TIP3     610      TIP3     H2       HT       0.417000       1.00800           0
     14313 TIP3     611      TIP3     OH2      OT      -0.834000       15.9994           0
     14314 TIP3     611      TIP3     H1       HT       0.417000       1.00800           0
     14315 TIP3     611      TIP3     H2       HT       0.417000       1.00800           0
     14316 TIP3     612      TIP3     OH2      OT      -0.834000       15.9994           0
     14317 TIP3     612      TIP3     H1       HT       0.417000       1.00800           0
     14318 TIP3     612      TIP3     H2       HT       0.417000       1.00800           0
     14319 TIP3     613      TIP3     OH2      OT      -0.834000       15.9994           0
     14320 TIP3     613      TIP3     H1       HT       0.417000       1.00800           0
     14321 TIP3     613      TIP3     H2       HT       0.417000       1.00800           0
     14322 TIP3     614      TIP3     OH2      OT      -0.834000       15.9994           0
     14323 TIP3     614      TIP3     H1       HT       0.417000       1.00800           0
     14324 TIP3     614      TIP3     H2       HT       0.417000       1.00800           0
     14325 TIP3     615      TIP3     OH2      OT      -0.834000       15.9994           0
     14326 TIP3     615      TIP3     H1       HT       0.417000       1.00800           0
     14327 TIP3     615      TIP3     H2       HT       0.417000       1.00800           0
     14328 TIP3     616      TIP3     OH2      OT      -0.834000       15.9994           0
     14329 TIP3     616      TIP3     H1       HT       0.417000       1.00800           0
     14330 TIP3     616      TIP3     H2       HT       0.417000       1.00800           0
     14331 TIP3     617      TIP3     OH2      OT      -0.834000       15.9994           0
     14332 TIP3     617      TIP3     H1       HT       0.417000       1.00800           0
     14333 TIP3     617      TIP3     H2       HT       0.417000       1.00800           0
     14334 TIP3     618      TIP3     OH2      OT      -0.834000       15.9994           0
     14335 TIP3     618      TIP3     H1       HT       0.417000       1.00800           0
     14336 TIP3     618      TIP3     H2       HT       0.417000       1.00800           0
     14337 TIP3     619      TIP3     OH2      OT      -0.834000       15.9994           0
     14338 TIP3     619      TIP3     H1       HT       0.417000       1.00800           0
     14339 TIP3     619      TIP3     H2       HT       0.417000       1.00800           0
     14340 TIP3     620      TIP3     OH2      OT      -0.834000       15.9994           0
     14341 TIP3     620      TIP3     H1       HT       0.417000       1.00800           0
     14342 TIP3     620      TIP3     H2       HT       0.417000       1.00800           0
     14343 TIP3     621      TIP3     OH2      OT      -0.834000       15.9994           0
     14344 TIP3     621      TIP3     H1       HT       0.417000       1.00800           0
     14345 TIP3     621      TIP3     H2       HT       0.417000       1.00800           0
     14346 TIP3     622      TIP3     OH2      OT      -0.834000       15.9994           0
     14347 TIP3     622      TIP3     H1       HT       0.417000       1.00800           0
     14348 TIP3     622      TIP3     H2       HT       0.417000       1.00800           0
     14349 TIP3     623      TIP3     OH2      OT      -0.834000       15.9994           0
     14350 TIP3     623      TIP3     H1       HT       0.417000       1.00800           0
     14351 TIP3     623      TIP3     H2       HT       0.417000       1.00800           0
     14352 TIP3     624      TIP3     OH2      OT      -0.834000       15.9994           0
     14353 TIP3     624      TIP3     H1       HT       0.417000       1.00800           0
     14354 TIP3     624      TIP3     H2       HT       0.417000       1.00800           0
     14355 TIP3     625      TIP3     OH2      OT      -0.834000       15.9994           0
     14356 TIP3     625      TIP3     H1       HT       0.417000       1.00800           0
     14357 TIP3     625      TIP3     H2       HT       0.417000       1.00800           0
     14358 TIP3     626      TIP3     OH2      OT      -0.834000       15.9994           0
     14359 TIP3     626      TIP3     H1       HT       0.417000       1.00800           0
     14360 TIP3     626      TIP3     H2       HT       0.417000       1.00800           0
     14361 TIP3     627      TIP3     OH2      OT      -0.834000       15.9994           0
     14362 TIP3     627      TIP3     H1       HT       0.417000       1.00800           0
     14363 TIP3     627      TIP3     H2       HT       0.417000       1.00800           0
     14364 TIP3     628      TIP3     OH2      OT      -0.834000       15.9994           0
     14365 TIP3     628      TIP3     H1       HT       0.417000       1.00800           0
     14366 TIP3     628      TIP3     H2       HT       0.417000       1.00800           0
     14367 TIP3     629      TIP3     OH2      OT      -0.834000       15.9994           0
     14368 TIP3     629      TIP3     H1       HT       0.417000       1.00800           0
     14369 TIP3     629      TIP3     H2       HT       0.417000       1.00800           0
     14370 TIP3     630      TIP3     OH2      OT      -0.834000       15.9994           0
     14371 TIP3     630      TIP3     H1       HT       0.417000       1.00800           0
     14372 TIP3     630      TIP3     H2       HT       0.417000       1.00800           0
     14373 TIP3     631      TIP3     OH2      OT      -0.834000       15.9994           0
     14374 TIP3     631      TIP3     H1       HT       0.417000       1.00800           0
     14375 TIP3     631      TIP3     H2       HT       0.417000       1.00800           0
     14376 TIP3     632      TIP3     OH2      OT      -0.834000       15.9994           0
     14377 TIP3     632      TIP3     H1       HT       0.417000       1.00800           0
     14378 TIP3     632      TIP3     H2       HT       0.417000       1.00800           0
     14379 TIP3     633      TIP3     OH2      OT      -0.834000       15.9994           0
     14380 TIP3     633      TIP3     H1       HT       0.417000       1.00800           0
     14381 TIP3     633      TIP3     H2       HT       0.417000       1.00800           0
     14382 TIP3     634      TIP3     OH2      OT      -0.834000       15.9994           0
     14383 TIP3     634      TIP3     H1       HT       0.417000       1.00800           0
     14384 TIP3     634      TIP3     H2       HT       0.417000       1.00800           0
     14385 TIP3     635      TIP3     OH2      OT      -0.834000       15.9994           0
     14386 TIP3     635      TIP3     H1       HT       0.417000       1.00800           0
     14387 TIP3     635      TIP3     H2       HT       0.417000       1.00800           0
     14388 TIP3     636      TIP3     OH2      OT      -0.834000       15.9994           0
     14389 TIP3     636      TIP3     H1       HT       0.417000       1.00800           0
     14390 TIP3     636      TIP3     H2       HT       0.417000       1.00800           0
     14391 TIP3     637      TIP3     OH2      OT      -0.834000       15.9994           0
     14392 TIP3     637      TIP3     H1       HT       0.417000       1.00800           0
     14393 TIP3     637      TIP3     H2       HT       0.417000       1.00800           0
     14394 TIP3     638      TIP3     OH2      OT      -0.834000       15.9994           0
     14395 TIP3     638      TIP3     H1       HT       0.417000       1.00800           0
     14396 TIP3     638      TIP3     H2       HT       0.417000       1.00800           0
     14397 TIP3     639      TIP3     OH2      OT      -0.834000       15.9994           0
     14398 TIP3     639      TIP3     H1       HT       0.417000       1.00800           0
     14399 TIP3     639      TIP3     H2       HT       0.417000       1.00800           0
     14400 TIP3     640      TIP3     OH2      OT      -0.834000       15.9994           0
     14401 TIP3     640      TIP3     H1       HT       0.417000       1.00800           0
     14402 TIP3     640      TIP3     H2       HT       0.417000       1.00800           0
     14403 TIP3     641      TIP3     OH2      OT      -0.834000       15.9994           0
     14404 TIP3     641      TIP3     H1       HT       0.417000       1.00800           0
     14405 TIP3     641      TIP3     H2       HT       0.417000       1.00800           0
     14406 TIP3     642      TIP3     OH2      OT      -0.834000       15.9994           0
     14407 TIP3     642      TIP3     H1       HT       0.417000       1.00800           0
     14408 TIP3     642      TIP3     H2       HT       0.417000       1.00800           0
     14409 TIP3     643      TIP3     OH2      OT      -0.834000       15.9994           0
     14410 TIP3     643      TIP3     H1       HT       0.417000       1.00800           0
     14411 TIP3     643      TIP3     H2       HT       0.417000       1.00800           0
     14412 TIP3     644      TIP3     OH2      OT      -0.834000       15.9994           0
     14413 TIP3     644      TIP3     H1       HT       0.417000       1.00800           0
     14414 TIP3     644      TIP3     H2       HT       0.417000       1.00800           0
     14415 TIP3     645      TIP3     OH2      OT      -0.834000       15.9994           0
     14416 TIP3     645      TIP3     H1       HT       0.417000       1.00800           0
     14417 TIP3     645      TIP3     H2       HT       0.417000       1.00800           0
     14418 TIP3     646      TIP3     OH2      OT      -0.834000       15.9994           0
     14419 TIP3     646      TIP3     H1       HT       0.417000       1.00800           0
     14420 TIP3     646      TIP3     H2       HT       0.417000       1.00800           0
     14421 TIP3     647      TIP3     OH2      OT      -0.834000       15.9994           0
     14422 TIP3     647      TIP3     H1       HT       0.417000       1.00800           0
     14423 TIP3     647      TIP3     H2       HT       0.417000       1.00800           0
     14424 TIP3     648      TIP3     OH2      OT      -0.834000       15.9994           0
     14425 TIP3     648      TIP3     H1       HT       0.417000       1.00800           0
     14426 TIP3     648      TIP3     H2       HT       0.417000       1.00800           0
     14427 TIP3     649      TIP3     OH2      OT      -0.834000       15.9994           0
     14428 TIP3     649      TIP3     H1       HT       0.417000       1.00800           0
     14429 TIP3     649      TIP3     H2       HT       0.417000       1.00800           0
     14430 TIP3     650      TIP3     OH2      OT      -0.834000       15.9994           0
     14431 TIP3     650      TIP3     H1       HT       0.417000       1.00800           0
     14432 TIP3     650      TIP3     H2       HT       0.417000       1.00800           0
     14433 TIP3     651      TIP3     OH2      OT      -0.834000       15.9994           0
     14434 TIP3     651      TIP3     H1       HT       0.417000       1.00800           0
     14435 TIP3     651      TIP3     H2       HT       0.417000       1.00800           0
     14436 TIP3     652      TIP3     OH2      OT      -0.834000       15.9994           0
     14437 TIP3     652      TIP3     H1       HT       0.417000       1.00800           0
     14438 TIP3     652      TIP3     H2       HT       0.417000       1.00800           0
     14439 TIP3     653      TIP3     OH2      OT      -0.834000       15.9994           0
     14440 TIP3     653      TIP3     H1       HT       0.417000       1.00800           0
     14441 TIP3     653      TIP3     H2       HT       0.417000       1.00800           0
     14442 TIP3     654      TIP3     OH2      OT      -0.834000       15.9994           0
     14443 TIP3     654      TIP3     H1       HT       0.417000       1.00800           0
     14444 TIP3     654      TIP3     H2       HT       0.417000       1.00800           0
     14445 TIP3     655      TIP3     OH2      OT      -0.834000       15.9994           0
     14446 TIP3     655      TIP3     H1       HT       0.417000       1.00800           0
     14447 TIP3     655      TIP3     H2       HT       0.417000       1.00800           0
     14448 TIP3     656      TIP3     OH2      OT      -0.834000       15.9994           0
     14449 TIP3     656      TIP3     H1       HT       0.417000       1.00800           0
     14450 TIP3     656      TIP3     H2       HT       0.417000       1.00800           0
     14451 TIP3     657      TIP3     OH2      OT      -0.834000       15.9994           0
     14452 TIP3     657      TIP3     H1       HT       0.417000       1.00800           0
     14453 TIP3     657      TIP3     H2       HT       0.417000       1.00800           0
     14454 TIP3     658      TIP3     OH2      OT      -0.834000       15.9994           0
     14455 TIP3     658      TIP3     H1       HT       0.417000       1.00800           0
     14456 TIP3     658      TIP3     H2       HT       0.417000       1.00800           0
     14457 TIP3     659      TIP3     OH2      OT      -0.834000       15.9994           0
     14458 TIP3     659      TIP3     H1       HT       0.417000       1.00800           0
     14459 TIP3     659      TIP3     H2       HT       0.417000       1.00800           0
     14460 TIP3     660      TIP3     OH2      OT      -0.834000       15.9994           0
     14461 TIP3     660      TIP3     H1       HT       0.417000       1.00800           0
     14462 TIP3     660      TIP3     H2       HT       0.417000       1.00800           0
     14463 TIP3     661      TIP3     OH2      OT      -0.834000       15.9994           0
     14464 TIP3     661      TIP3     H1       HT       0.417000       1.00800           0
     14465 TIP3     661      TIP3     H2       HT       0.417000       1.00800           0
     14466 TIP3     662      TIP3     OH2      OT      -0.834000       15.9994           0
     14467 TIP3     662      TIP3     H1       HT       0.417000       1.00800           0
     14468 TIP3     662      TIP3     H2       HT       0.417000       1.00800           0
     14469 TIP3     663      TIP3     OH2      OT      -0.834000       15.9994           0
     14470 TIP3     663      TIP3     H1       HT       0.417000       1.00800           0
     14471 TIP3     663      TIP3     H2       HT       0.417000       1.00800           0
     14472 TIP3     664      TIP3     OH2      OT      -0.834000       15.9994           0
     14473 TIP3     664      TIP3     H1       HT       0.417000       1.00800           0
     14474 TIP3     664      TIP3     H2       HT       0.417000       1.00800           0
     14475 TIP3     665      TIP3     OH2      OT      -0.834000       15.9994           0
     14476 TIP3     665      TIP3     H1       HT       0.417000       1.00800           0
     14477 TIP3     665      TIP3     H2       HT       0.417000       1.00800           0
     14478 TIP3     666      TIP3     OH2      OT      -0.834000       15.9994           0
     14479 TIP3     666      TIP3     H1       HT       0.417000       1.00800           0
     14480 TIP3     666      TIP3     H2       HT       0.417000       1.00800           0
     14481 TIP3     667      TIP3     OH2      OT      -0.834000       15.9994           0
     14482 TIP3     667      TIP3     H1       HT       0.417000       1.00800           0
     14483 TIP3     667      TIP3     H2       HT       0.417000       1.00800           0
     14484 TIP3     668      TIP3     OH2      OT      -0.834000       15.9994           0
     14485 TIP3     668      TIP3     H1       HT       0.417000       1.00800           0
     14486 TIP3     668      TIP3     H2       HT       0.417000       1.00800           0
     14487 TIP3     669      TIP3     OH2      OT      -0.834000       15.9994           0
     14488 TIP3     669      TIP3     H1       HT       0.417000       1.00800           0
     14489 TIP3     669      TIP3     H2       HT       0.417000       1.00800           0
     14490 TIP3     670      TIP3     OH2      OT      -0.834000       15.9994           0
     14491 TIP3     670      TIP3     H1       HT       0.417000       1.00800           0
     14492 TIP3     670      TIP3     H2       HT       0.417000       1.00800           0
     14493 TIP3     671      TIP3     OH2      OT      -0.834000       15.9994           0
     14494 TIP3     671      TIP3     H1       HT       0.417000       1.00800           0
     14495 TIP3     671      TIP3     H2       HT       0.417000       1.00800           0
     14496 TIP3     672      TIP3     OH2      OT      -0.834000       15.9994           0
     14497 TIP3     672      TIP3     H1       HT       0.417000       1.00800           0
     14498 TIP3     672      TIP3     H2       HT       0.417000       1.00800           0
     14499 TIP3     673      TIP3     OH2      OT      -0.834000       15.9994           0
     14500 TIP3     673      TIP3     H1       HT       0.417000       1.00800           0
     14501 TIP3     673      TIP3     H2       HT       0.417000       1.00800           0
     14502 TIP3     674      TIP3     OH2      OT      -0.834000       15.9994           0
     14503 TIP3     674      TIP3     H1       HT       0.417000       1.00800           0
     14504 TIP3     674      TIP3     H2       HT       0.417000       1.00800           0
     14505 TIP3     675      TIP3     OH2      OT      -0.834000       15.9994           0
     14506 TIP3     675      TIP3     H1       HT       0.417000       1.00800           0
     14507 TIP3     675      TIP3     H2       HT       0.417000       1.00800           0
     14508 TIP3     676      TIP3     OH2      OT      -0.834000       15.9994           0
     14509 TIP3     676      TIP3     H1       HT       0.417000       1.00800           0
     14510 TIP3     676      TIP3     H2       HT       0.417000       1.00800           0
     14511 TIP3     677      TIP3     OH2      OT      -0.834000       15.9994           0
     14512 TIP3     677      TIP3     H1       HT       0.417000       1.00800           0
     14513 TIP3     677      TIP3     H2       HT       0.417000       1.00800           0
     14514 TIP3     678      TIP3     OH2      OT      -0.834000       15.9994           0
     14515 TIP3     678      TIP3     H1       HT       0.417000       1.00800           0
     14516 TIP3     678      TIP3     H2       HT       0.417000       1.00800           0
     14517 TIP3     679      TIP3     OH2      OT      -0.834000       15.9994           0
     14518 TIP3     679      TIP3     H1       HT       0.417000       1.00800           0
     14519 TIP3     679      TIP3     H2       HT       0.417000       1.00800           0
     14520 TIP3     680      TIP3     OH2      OT      -0.834000       15.9994           0
     14521 TIP3     680      TIP3     H1       HT       0.417000       1.00800           0
     14522 TIP3     680      TIP3     H2       HT       0.417000       1.00800           0
     14523 TIP3     681      TIP3     OH2      OT      -0.834000       15.9994           0
     14524 TIP3     681      TIP3     H1       HT       0.417000       1.00800           0
     14525 TIP3     681      TIP3     H2       HT       0.417000       1.00800           0
     14526 TIP3     682      TIP3     OH2      OT      -0.834000       15.9994           0
     14527 TIP3     682      TIP3     H1       HT       0.417000       1.00800           0
     14528 TIP3     682      TIP3     H2       HT       0.417000       1.00800           0
     14529 TIP3     683      TIP3     OH2      OT      -0.834000       15.9994           0
     14530 TIP3     683      TIP3     H1       HT       0.417000       1.00800           0
     14531 TIP3     683      TIP3     H2       HT       0.417000       1.00800           0
     14532 TIP3     684      TIP3     OH2      OT      -0.834000       15.9994           0
     14533 TIP3     684      TIP3     H1       HT       0.417000       1.00800           0
     14534 TIP3     684      TIP3     H2       HT       0.417000       1.00800           0
     14535 TIP3     685      TIP3     OH2      OT      -0.834000       15.9994           0
     14536 TIP3     685      TIP3     H1       HT       0.417000       1.00800           0
     14537 TIP3     685      TIP3     H2       HT       0.417000       1.00800           0
     14538 TIP3     686      TIP3     OH2      OT      -0.834000       15.9994           0
     14539 TIP3     686      TIP3     H1       HT       0.417000       1.00800           0
     14540 TIP3     686      TIP3     H2       HT       0.417000       1.00800           0
     14541 TIP3     687      TIP3     OH2      OT      -0.834000       15.9994           0
     14542 TIP3     687      TIP3     H1       HT       0.417000       1.00800           0
     14543 TIP3     687      TIP3     H2       HT       0.417000       1.00800           0
     14544 TIP3     688      TIP3     OH2      OT      -0.834000       15.9994           0
     14545 TIP3     688      TIP3     H1       HT       0.417000       1.00800           0
     14546 TIP3     688      TIP3     H2       HT       0.417000       1.00800           0
     14547 TIP3     689      TIP3     OH2      OT      -0.834000       15.9994           0
     14548 TIP3     689      TIP3     H1       HT       0.417000       1.00800           0
     14549 TIP3     689      TIP3     H2       HT       0.417000       1.00800           0
     14550 TIP3     690      TIP3     OH2      OT      -0.834000       15.9994           0
     14551 TIP3     690      TIP3     H1       HT       0.417000       1.00800           0
     14552 TIP3     690      TIP3     H2       HT       0.417000       1.00800           0
     14553 TIP3     691      TIP3     OH2      OT      -0.834000       15.9994           0
     14554 TIP3     691      TIP3     H1       HT       0.417000       1.00800           0
     14555 TIP3     691      TIP3     H2       HT       0.417000       1.00800           0
     14556 TIP3     692      TIP3     OH2      OT      -0.834000       15.9994           0
     14557 TIP3     692      TIP3     H1       HT       0.417000       1.00800           0
     14558 TIP3     692      TIP3     H2       HT       0.417000       1.00800           0
     14559 TIP3     693      TIP3     OH2      OT      -0.834000       15.9994           0
     14560 TIP3     693      TIP3     H1       HT       0.417000       1.00800           0
     14561 TIP3     693      TIP3     H2       HT       0.417000       1.00800           0
     14562 TIP3     694      TIP3     OH2      OT      -0.834000       15.9994           0
     14563 TIP3     694      TIP3     H1       HT       0.417000       1.00800           0
     14564 TIP3     694      TIP3     H2       HT       0.417000       1.00800           0
     14565 TIP3     695      TIP3     OH2      OT      -0.834000       15.9994           0
     14566 TIP3     695      TIP3     H1       HT       0.417000       1.00800           0
     14567 TIP3     695      TIP3     H2       HT       0.417000       1.00800           0
     14568 TIP3     696      TIP3     OH2      OT      -0.834000       15.9994           0
     14569 TIP3     696      TIP3     H1       HT       0.417000       1.00800           0
     14570 TIP3     696      TIP3     H2       HT       0.417000       1.00800           0
     14571 TIP3     697      TIP3     OH2      OT      -0.834000       15.9994           0
     14572 TIP3     697      TIP3     H1       HT       0.417000       1.00800           0
     14573 TIP3     697      TIP3     H2       HT       0.417000       1.00800           0
     14574 TIP3     698      TIP3     OH2      OT      -0.834000       15.9994           0
     14575 TIP3     698      TIP3     H1       HT       0.417000       1.00800           0
     14576 TIP3     698      TIP3     H2       HT       0.417000       1.00800           0
     14577 TIP3     699      TIP3     OH2      OT      -0.834000       15.9994           0
     14578 TIP3     699      TIP3     H1       HT       0.417000       1.00800           0
     14579 TIP3     699      TIP3     H2       HT       0.417000       1.00800           0
     14580 TIP3     700      TIP3     OH2      OT      -0.834000       15.9994           0
     14581 TIP3     700      TIP3     H1       HT       0.417000       1.00800           0
     14582 TIP3     700      TIP3     H2       HT       0.417000       1.00800           0
     14583 TIP3     701      TIP3     OH2      OT      -0.834000       15.9994           0
     14584 TIP3     701      TIP3     H1       HT       0.417000       1.00800           0
     14585 TIP3     701      TIP3     H2       HT       0.417000       1.00800           0
     14586 TIP3     702      TIP3     OH2      OT      -0.834000       15.9994           0
     14587 TIP3     702      TIP3     H1       HT       0.417000       1.00800           0
     14588 TIP3     702      TIP3     H2       HT       0.417000       1.00800           0
     14589 TIP3     703      TIP3     OH2      OT      -0.834000       15.9994           0
     14590 TIP3     703      TIP3     H1       HT       0.417000       1.00800           0
     14591 TIP3     703      TIP3     H2       HT       0.417000       1.00800           0
     14592 TIP3     704      TIP3     OH2      OT      -0.834000       15.9994           0
     14593 TIP3     704      TIP3     H1       HT       0.417000       1.00800           0
     14594 TIP3     704      TIP3     H2       HT       0.417000       1.00800           0
     14595 TIP3     705      TIP3     OH2      OT      -0.834000       15.9994           0
     14596 TIP3     705      TIP3     H1       HT       0.417000       1.00800           0
     14597 TIP3     705      TIP3     H2       HT       0.417000       1.00800           0
     14598 TIP3     706      TIP3     OH2      OT      -0.834000       15.9994           0
     14599 TIP3     706      TIP3     H1       HT       0.417000       1.00800           0
     14600 TIP3     706      TIP3     H2       HT       0.417000       1.00800           0
     14601 TIP3     707      TIP3     OH2      OT      -0.834000       15.9994           0
     14602 TIP3     707      TIP3     H1       HT       0.417000       1.00800           0
     14603 TIP3     707      TIP3     H2       HT       0.417000       1.00800           0
     14604 TIP3     708      TIP3     OH2      OT      -0.834000       15.9994           0
     14605 TIP3     708      TIP3     H1       HT       0.417000       1.00800           0
     14606 TIP3     708      TIP3     H2       HT       0.417000       1.00800           0
     14607 TIP3     709      TIP3     OH2      OT      -0.834000       15.9994           0
     14608 TIP3     709      TIP3     H1       HT       0.417000       1.00800           0
     14609 TIP3     709      TIP3     H2       HT       0.417000       1.00800           0
     14610 TIP3     710      TIP3     OH2      OT      -0.834000       15.9994           0
     14611 TIP3     710      TIP3     H1       HT       0.417000       1.00800           0
     14612 TIP3     710      TIP3     H2       HT       0.417000       1.00800           0
     14613 TIP3     711      TIP3     OH2      OT      -0.834000       15.9994           0
     14614 TIP3     711      TIP3     H1       HT       0.417000       1.00800           0
     14615 TIP3     711      TIP3     H2       HT       0.417000       1.00800           0
     14616 TIP3     712      TIP3     OH2      OT      -0.834000       15.9994           0
     14617 TIP3     712      TIP3     H1       HT       0.417000       1.00800           0
     14618 TIP3     712      TIP3     H2       HT       0.417000       1.00800           0
     14619 TIP3     713      TIP3     OH2      OT      -0.834000       15.9994           0
     14620 TIP3     713      TIP3     H1       HT       0.417000       1.00800           0
     14621 TIP3     713      TIP3     H2       HT       0.417000       1.00800           0
     14622 TIP3     714      TIP3     OH2      OT      -0.834000       15.9994           0
     14623 TIP3     714      TIP3     H1       HT       0.417000       1.00800           0
     14624 TIP3     714      TIP3     H2       HT       0.417000       1.00800           0
     14625 TIP3     715      TIP3     OH2      OT      -0.834000       15.9994           0
     14626 TIP3     715      TIP3     H1       HT       0.417000       1.00800           0
     14627 TIP3     715      TIP3     H2       HT       0.417000       1.00800           0
     14628 TIP3     716      TIP3     OH2      OT      -0.834000       15.9994           0
     14629 TIP3     716      TIP3     H1       HT       0.417000       1.00800           0
     14630 TIP3     716      TIP3     H2       HT       0.417000       1.00800           0
     14631 TIP3     717      TIP3     OH2      OT      -0.834000       15.9994           0
     14632 TIP3     717      TIP3     H1       HT       0.417000       1.00800           0
     14633 TIP3     717      TIP3     H2       HT       0.417000       1.00800           0
     14634 TIP3     718      TIP3     OH2      OT      -0.834000       15.9994           0
     14635 TIP3     718      TIP3     H1       HT       0.417000       1.00800           0
     14636 TIP3     718      TIP3     H2       HT       0.417000       1.00800           0
     14637 TIP3     719      TIP3     OH2      OT      -0.834000       15.9994           0
     14638 TIP3     719      TIP3     H1       HT       0.417000       1.00800           0
     14639 TIP3     719      TIP3     H2       HT       0.417000       1.00800           0
     14640 TIP3     720      TIP3     OH2      OT      -0.834000       15.9994           0
     14641 TIP3     720      TIP3     H1       HT       0.417000       1.00800           0
     14642 TIP3     720      TIP3     H2       HT       0.417000       1.00800           0
     14643 TIP3     721      TIP3     OH2      OT      -0.834000       15.9994           0
     14644 TIP3     721      TIP3     H1       HT       0.417000       1.00800           0
     14645 TIP3     721      TIP3     H2       HT       0.417000       1.00800           0
     14646 TIP3     722      TIP3     OH2      OT      -0.834000       15.9994           0
     14647 TIP3     722      TIP3     H1       HT       0.417000       1.00800           0
     14648 TIP3     722      TIP3     H2       HT       0.417000       1.00800           0
     14649 TIP3     723      TIP3     OH2      OT      -0.834000       15.9994           0
     14650 TIP3     723      TIP3     H1       HT       0.417000       1.00800           0
     14651 TIP3     723      TIP3     H2       HT       0.417000       1.00800           0
     14652 TIP3     724      TIP3     OH2      OT      -0.834000       15.9994           0
     14653 TIP3     724      TIP3     H1       HT       0.417000       1.00800           0
     14654 TIP3     724      TIP3     H2       HT       0.417000       1.00800           0
     14655 TIP3     725      TIP3     OH2      OT      -0.834000       15.9994           0
     14656 TIP3     725      TIP3     H1       HT       0.417000       1.00800           0
     14657 TIP3     725      TIP3     H2       HT       0.417000       1.00800           0
     14658 TIP3     726      TIP3     OH2      OT      -0.834000       15.9994           0
     14659 TIP3     726      TIP3     H1       HT       0.417000       1.00800           0
     14660 TIP3     726      TIP3     H2       HT       0.417000       1.00800           0
     14661 TIP3     727      TIP3     OH2      OT      -0.834000       15.9994           0
     14662 TIP3     727      TIP3     H1       HT       0.417000       1.00800           0
     14663 TIP3     727      TIP3     H2       HT       0.417000       1.00800           0
     14664 TIP3     728      TIP3     OH2      OT      -0.834000       15.9994           0
     14665 TIP3     728      TIP3     H1       HT       0.417000       1.00800           0
     14666 TIP3     728      TIP3     H2       HT       0.417000       1.00800           0
     14667 TIP3     729      TIP3     OH2      OT      -0.834000       15.9994           0
     14668 TIP3     729      TIP3     H1       HT       0.417000       1.00800           0
     14669 TIP3     729      TIP3     H2       HT       0.417000       1.00800           0
     14670 TIP3     730      TIP3     OH2      OT      -0.834000       15.9994           0
     14671 TIP3     730      TIP3     H1       HT       0.417000       1.00800           0
     14672 TIP3     730      TIP3     H2       HT       0.417000       1.00800           0
     14673 TIP3     731      TIP3     OH2      OT      -0.834000       15.9994           0
     14674 TIP3     731      TIP3     H1       HT       0.417000       1.00800           0
     14675 TIP3     731      TIP3     H2       HT       0.417000       1.00800           0
     14676 TIP3     732      TIP3     OH2      OT      -0.834000       15.9994           0
     14677 TIP3     732      TIP3     H1       HT       0.417000       1.00800           0
     14678 TIP3     732      TIP3     H2       HT       0.417000       1.00800           0
     14679 TIP3     733      TIP3     OH2      OT      -0.834000       15.9994           0
     14680 TIP3     733      TIP3     H1       HT       0.417000       1.00800           0
     14681 TIP3     733      TIP3     H2       HT       0.417000       1.00800           0
     14682 TIP3     734      TIP3     OH2      OT      -0.834000       15.9994           0
     14683 TIP3     734      TIP3     H1       HT       0.417000       1.00800           0
     14684 TIP3     734      TIP3     H2       HT       0.417000       1.00800           0
     14685 TIP3     735      TIP3     OH2      OT      -0.834000       15.9994           0
     14686 TIP3     735      TIP3     H1       HT       0.417000       1.00800           0
     14687 TIP3     735      TIP3     H2       HT       0.417000       1.00800           0
     14688 TIP3     736      TIP3     OH2      OT      -0.834000       15.9994           0
     14689 TIP3     736      TIP3     H1       HT       0.417000       1.00800           0
     14690 TIP3     736      TIP3     H2       HT       0.417000       1.00800           0
     14691 TIP3     737      TIP3     OH2      OT      -0.834000       15.9994           0
     14692 TIP3     737      TIP3     H1       HT       0.417000       1.00800           0
     14693 TIP3     737      TIP3     H2       HT       0.417000       1.00800           0
     14694 TIP3     738      TIP3     OH2      OT      -0.834000       15.9994           0
     14695 TIP3     738      TIP3     H1       HT       0.417000       1.00800           0
     14696 TIP3     738      TIP3     H2       HT       0.417000       1.00800           0
     14697 TIP3     739      TIP3     OH2      OT      -0.834000       15.9994           0
     14698 TIP3     739      TIP3     H1       HT       0.417000       1.00800           0
     14699 TIP3     739      TIP3     H2       HT       0.417000       1.00800           0
     14700 TIP3     740      TIP3     OH2      OT      -0.834000       15.9994           0
     14701 TIP3     740      TIP3     H1       HT       0.417000       1.00800           0
     14702 TIP3     740      TIP3     H2       HT       0.417000       1.00800           0
     14703 TIP3     741      TIP3     OH2      OT      -0.834000       15.9994           0
     14704 TIP3     741      TIP3     H1       HT       0.417000       1.00800           0
     14705 TIP3     741      TIP3     H2       HT       0.417000       1.00800           0
     14706 TIP3     742      TIP3     OH2      OT      -0.834000       15.9994           0
     14707 TIP3     742      TIP3     H1       HT       0.417000       1.00800           0
     14708 TIP3     742      TIP3     H2       HT       0.417000       1.00800           0
     14709 TIP3     743      TIP3     OH2      OT      -0.834000       15.9994           0
     14710 TIP3     743      TIP3     H1       HT       0.417000       1.00800           0
     14711 TIP3     743      TIP3     H2       HT       0.417000       1.00800           0
     14712 TIP3     744      TIP3     OH2      OT      -0.834000       15.9994           0
     14713 TIP3     744      TIP3     H1       HT       0.417000       1.00800           0
     14714 TIP3     744      TIP3     H2       HT       0.417000       1.00800           0
     14715 TIP3     745      TIP3     OH2      OT      -0.834000       15.9994           0
     14716 TIP3     745      TIP3     H1       HT       0.417000       1.00800           0
     14717 TIP3     745      TIP3     H2       HT       0.417000       1.00800           0
     14718 TIP3     746      TIP3     OH2      OT      -0.834000       15.9994           0
     14719 TIP3     746      TIP3     H1       HT       0.417000       1.00800           0
     14720 TIP3     746      TIP3     H2       HT       0.417000       1.00800           0
     14721 TIP3     747      TIP3     OH2      OT      -0.834000       15.9994           0
     14722 TIP3     747      TIP3     H1       HT       0.417000       1.00800           0
     14723 TIP3     747      TIP3     H2       HT       0.417000       1.00800           0
     14724 TIP3     748      TIP3     OH2      OT      -0.834000       15.9994           0
     14725 TIP3     748      TIP3     H1       HT       0.417000       1.00800           0
     14726 TIP3     748      TIP3     H2       HT       0.417000       1.00800           0
     14727 TIP3     749      TIP3     OH2      OT      -0.834000       15.9994           0
     14728 TIP3     749      TIP3     H1       HT       0.417000       1.00800           0
     14729 TIP3     749      TIP3     H2       HT       0.417000       1.00800           0
     14730 TIP3     750      TIP3     OH2      OT      -0.834000       15.9994           0
     14731 TIP3     750      TIP3     H1       HT       0.417000       1.00800           0
     14732 TIP3     750      TIP3     H2       HT       0.417000       1.00800           0
     14733 TIP3     751      TIP3     OH2      OT      -0.834000       15.9994           0
     14734 TIP3     751      TIP3     H1       HT       0.417000       1.00800           0
     14735 TIP3     751      TIP3     H2       HT       0.417000       1.00800           0
     14736 TIP3     752      TIP3     OH2      OT      -0.834000       15.9994           0
     14737 TIP3     752      TIP3     H1       HT       0.417000       1.00800           0
     14738 TIP3     752      TIP3     H2       HT       0.417000       1.00800           0
     14739 TIP3     753      TIP3     OH2      OT      -0.834000       15.9994           0
     14740 TIP3     753      TIP3     H1       HT       0.417000       1.00800           0
     14741 TIP3     753      TIP3     H2       HT       0.417000       1.00800           0
     14742 TIP3     754      TIP3     OH2      OT      -0.834000       15.9994           0
     14743 TIP3     754      TIP3     H1       HT       0.417000       1.00800           0
     14744 TIP3     754      TIP3     H2       HT       0.417000       1.00800           0
     14745 TIP3     755      TIP3     OH2      OT      -0.834000       15.9994           0
     14746 TIP3     755      TIP3     H1       HT       0.417000       1.00800           0
     14747 TIP3     755      TIP3     H2       HT       0.417000       1.00800           0
     14748 TIP3     756      TIP3     OH2      OT      -0.834000       15.9994           0
     14749 TIP3     756      TIP3     H1       HT       0.417000       1.00800           0
     14750 TIP3     756      TIP3     H2       HT       0.417000       1.00800           0
     14751 TIP3     757      TIP3     OH2      OT      -0.834000       15.9994           0
     14752 TIP3     757      TIP3     H1       HT       0.417000       1.00800           0
     14753 TIP3     757      TIP3     H2       HT       0.417000       1.00800           0
     14754 TIP3     758      TIP3     OH2      OT      -0.834000       15.9994           0
     14755 TIP3     758      TIP3     H1       HT       0.417000       1.00800           0
     14756 TIP3     758      TIP3     H2       HT       0.417000       1.00800           0
     14757 TIP3     759      TIP3     OH2      OT      -0.834000       15.9994           0
     14758 TIP3     759      TIP3     H1       HT       0.417000       1.00800           0
     14759 TIP3     759      TIP3     H2       HT       0.417000       1.00800           0
     14760 TIP3     760      TIP3     OH2      OT      -0.834000       15.9994           0
     14761 TIP3     760      TIP3     H1       HT       0.417000       1.00800           0
     14762 TIP3     760      TIP3     H2       HT       0.417000       1.00800           0
     14763 TIP3     761      TIP3     OH2      OT      -0.834000       15.9994           0
     14764 TIP3     761      TIP3     H1       HT       0.417000       1.00800           0
     14765 TIP3     761      TIP3     H2       HT       0.417000       1.00800           0
     14766 TIP3     762      TIP3     OH2      OT      -0.834000       15.9994           0
     14767 TIP3     762      TIP3     H1       HT       0.417000       1.00800           0
     14768 TIP3     762      TIP3     H2       HT       0.417000       1.00800           0
     14769 TIP3     763      TIP3     OH2      OT      -0.834000       15.9994           0
     14770 TIP3     763      TIP3     H1       HT       0.417000       1.00800           0
     14771 TIP3     763      TIP3     H2       HT       0.417000       1.00800           0
     14772 TIP3     764      TIP3     OH2      OT      -0.834000       15.9994           0
     14773 TIP3     764      TIP3     H1       HT       0.417000       1.00800           0
     14774 TIP3     764      TIP3     H2       HT       0.417000       1.00800           0
     14775 TIP3     765      TIP3     OH2      OT      -0.834000       15.9994           0
     14776 TIP3     765      TIP3     H1       HT       0.417000       1.00800           0
     14777 TIP3     765      TIP3     H2       HT       0.417000       1.00800           0
     14778 TIP3     766      TIP3     OH2      OT      -0.834000       15.9994           0
     14779 TIP3     766      TIP3     H1       HT       0.417000       1.00800           0
     14780 TIP3     766      TIP3     H2       HT       0.417000       1.00800           0
     14781 TIP3     767      TIP3     OH2      OT      -0.834000       15.9994           0
     14782 TIP3     767      TIP3     H1       HT       0.417000       1.00800           0
     14783 TIP3     767      TIP3     H2       HT       0.417000       1.00800           0
     14784 TIP3     768      TIP3     OH2      OT      -0.834000       15.9994           0
     14785 TIP3     768      TIP3     H1       HT       0.417000       1.00800           0
     14786 TIP3     768      TIP3     H2       HT       0.417000       1.00800           0
     14787 TIP3     769      TIP3     OH2      OT      -0.834000       15.9994           0
     14788 TIP3     769      TIP3     H1       HT       0.417000       1.00800           0
     14789 TIP3     769      TIP3     H2       HT       0.417000       1.00800           0
     14790 TIP3     770      TIP3     OH2      OT      -0.834000       15.9994           0
     14791 TIP3     770      TIP3     H1       HT       0.417000       1.00800           0
     14792 TIP3     770      TIP3     H2       HT       0.417000       1.00800           0
     14793 TIP3     771      TIP3     OH2      OT      -0.834000       15.9994           0
     14794 TIP3     771      TIP3     H1       HT       0.417000       1.00800           0
     14795 TIP3     771      TIP3     H2       HT       0.417000       1.00800           0
     14796 TIP3     772      TIP3     OH2      OT      -0.834000       15.9994           0
     14797 TIP3     772      TIP3     H1       HT       0.417000       1.00800           0
     14798 TIP3     772      TIP3     H2       HT       0.417000       1.00800           0
     14799 TIP3     773      TIP3     OH2      OT      -0.834000       15.9994           0
     14800 TIP3     773      TIP3     H1       HT       0.417000       1.00800           0
     14801 TIP3     773      TIP3     H2       HT       0.417000       1.00800           0
     14802 TIP3     774      TIP3     OH2      OT      -0.834000       15.9994           0
     14803 TIP3     774      TIP3     H1       HT       0.417000       1.00800           0
     14804 TIP3     774      TIP3     H2       HT       0.417000       1.00800           0
     14805 TIP3     775      TIP3     OH2      OT      -0.834000       15.9994           0
     14806 TIP3     775      TIP3     H1       HT       0.417000       1.00800           0
     14807 TIP3     775      TIP3     H2       HT       0.417000       1.00800           0
     14808 TIP3     776      TIP3     OH2      OT      -0.834000       15.9994           0
     14809 TIP3     776      TIP3     H1       HT       0.417000       1.00800           0
     14810 TIP3     776      TIP3     H2       HT       0.417000       1.00800           0
     14811 TIP3     777      TIP3     OH2      OT      -0.834000       15.9994           0
     14812 TIP3     777      TIP3     H1       HT       0.417000       1.00800           0
     14813 TIP3     777      TIP3     H2       HT       0.417000       1.00800           0
     14814 TIP3     778      TIP3     OH2      OT      -0.834000       15.9994           0
     14815 TIP3     778      TIP3     H1       HT       0.417000       1.00800           0
     14816 TIP3     778      TIP3     H2       HT       0.417000       1.00800           0
     14817 TIP3     779      TIP3     OH2      OT      -0.834000       15.9994           0
     14818 TIP3     779      TIP3     H1       HT       0.417000       1.00800           0
     14819 TIP3     779      TIP3     H2       HT       0.417000       1.00800           0
     14820 TIP3     780      TIP3     OH2      OT      -0.834000       15.9994           0
     14821 TIP3     780      TIP3     H1       HT       0.417000       1.00800           0
     14822 TIP3     780      TIP3     H2       HT       0.417000       1.00800           0
     14823 TIP3     781      TIP3     OH2      OT      -0.834000       15.9994           0
     14824 TIP3     781      TIP3     H1       HT       0.417000       1.00800           0
     14825 TIP3     781      TIP3     H2       HT       0.417000       1.00800           0
     14826 TIP3     782      TIP3     OH2      OT      -0.834000       15.9994           0
     14827 TIP3     782      TIP3     H1       HT       0.417000       1.00800           0
     14828 TIP3     782      TIP3     H2       HT       0.417000       1.00800           0
     14829 TIP3     783      TIP3     OH2      OT      -0.834000       15.9994           0
     14830 TIP3     783      TIP3     H1       HT       0.417000       1.00800           0
     14831 TIP3     783      TIP3     H2       HT       0.417000       1.00800           0
     14832 TIP3     784      TIP3     OH2      OT      -0.834000       15.9994           0
     14833 TIP3     784      TIP3     H1       HT       0.417000       1.00800           0
     14834 TIP3     784      TIP3     H2       HT       0.417000       1.00800           0
     14835 TIP3     785      TIP3     OH2      OT      -0.834000       15.9994           0
     14836 TIP3     785      TIP3     H1       HT       0.417000       1.00800           0
     14837 TIP3     785      TIP3     H2       HT       0.417000       1.00800           0
     14838 TIP3     786      TIP3     OH2      OT      -0.834000       15.9994           0
     14839 TIP3     786      TIP3     H1       HT       0.417000       1.00800           0
     14840 TIP3     786      TIP3     H2       HT       0.417000       1.00800           0
     14841 TIP3     787      TIP3     OH2      OT      -0.834000       15.9994           0
     14842 TIP3     787      TIP3     H1       HT       0.417000       1.00800           0
     14843 TIP3     787      TIP3     H2       HT       0.417000       1.00800           0
     14844 TIP3     788      TIP3     OH2      OT      -0.834000       15.9994           0
     14845 TIP3     788      TIP3     H1       HT       0.417000       1.00800           0
     14846 TIP3     788      TIP3     H2       HT       0.417000       1.00800           0
     14847 TIP3     789      TIP3     OH2      OT      -0.834000       15.9994           0
     14848 TIP3     789      TIP3     H1       HT       0.417000       1.00800           0
     14849 TIP3     789      TIP3     H2       HT       0.417000       1.00800           0
     14850 TIP3     790      TIP3     OH2      OT      -0.834000       15.9994           0
     14851 TIP3     790      TIP3     H1       HT       0.417000       1.00800           0
     14852 TIP3     790      TIP3     H2       HT       0.417000       1.00800           0
     14853 TIP3     791      TIP3     OH2      OT      -0.834000       15.9994           0
     14854 TIP3     791      TIP3     H1       HT       0.417000       1.00800           0
     14855 TIP3     791      TIP3     H2       HT       0.417000       1.00800           0
     14856 TIP3     792      TIP3     OH2      OT      -0.834000       15.9994           0
     14857 TIP3     792      TIP3     H1       HT       0.417000       1.00800           0
     14858 TIP3     792      TIP3     H2       HT       0.417000       1.00800           0
     14859 TIP3     793      TIP3     OH2      OT      -0.834000       15.9994           0
     14860 TIP3     793      TIP3     H1       HT       0.417000       1.00800           0
     14861 TIP3     793      TIP3     H2       HT       0.417000       1.00800           0
     14862 TIP3     794      TIP3     OH2      OT      -0.834000       15.9994           0
     14863 TIP3     794      TIP3     H1       HT       0.417000       1.00800           0
     14864 TIP3     794      TIP3     H2       HT       0.417000       1.00800           0
     14865 TIP3     795      TIP3     OH2      OT      -0.834000       15.9994           0
     14866 TIP3     795      TIP3     H1       HT       0.417000       1.00800           0
     14867 TIP3     795      TIP3     H2       HT       0.417000       1.00800           0
     14868 TIP3     796      TIP3     OH2      OT      -0.834000       15.9994           0
     14869 TIP3     796      TIP3     H1       HT       0.417000       1.00800           0
     14870 TIP3     796      TIP3     H2       HT       0.417000       1.00800           0
     14871 TIP3     797      TIP3     OH2      OT      -0.834000       15.9994           0
     14872 TIP3     797      TIP3     H1       HT       0.417000       1.00800           0
     14873 TIP3     797      TIP3     H2       HT       0.417000       1.00800           0
     14874 TIP3     798      TIP3     OH2      OT      -0.834000       15.9994           0
     14875 TIP3     798      TIP3     H1       HT       0.417000       1.00800           0
     14876 TIP3     798      TIP3     H2       HT       0.417000       1.00800           0
     14877 TIP3     799      TIP3     OH2      OT      -0.834000       15.9994           0
     14878 TIP3     799      TIP3     H1       HT       0.417000       1.00800           0
     14879 TIP3     799      TIP3     H2       HT       0.417000       1.00800           0
     14880 TIP3     800      TIP3     OH2      OT      -0.834000       15.9994           0
     14881 TIP3     800      TIP3     H1       HT       0.417000       1.00800           0
     14882 TIP3     800      TIP3     H2       HT       0.417000       1.00800           0
     14883 TIP3     801      TIP3     OH2      OT      -0.834000       15.9994           0
     14884 TIP3     801      TIP3     H1       HT       0.417000       1.00800           0
     14885 TIP3     801      TIP3     H2       HT       0.417000       1.00800           0
     14886 TIP3     802      TIP3     OH2      OT      -0.834000       15.9994           0
     14887 TIP3     802      TIP3     H1       HT       0.417000       1.00800           0
     14888 TIP3     802      TIP3     H2       HT       0.417000       1.00800           0
     14889 TIP3     803      TIP3     OH2      OT      -0.834000       15.9994           0
     14890 TIP3     803      TIP3     H1       HT       0.417000       1.00800           0
     14891 TIP3     803      TIP3     H2       HT       0.417000       1.00800           0
     14892 TIP3     804      TIP3     OH2      OT      -0.834000       15.9994           0
     14893 TIP3     804      TIP3     H1       HT       0.417000       1.00800           0
     14894 TIP3     804      TIP3     H2       HT       0.417000       1.00800           0
     14895 TIP3     805      TIP3     OH2      OT      -0.834000       15.9994           0
     14896 TIP3     805      TIP3     H1       HT       0.417000       1.00800           0
     14897 TIP3     805      TIP3     H2       HT       0.417000       1.00800           0
     14898 TIP3     806      TIP3     OH2      OT      -0.834000       15.9994           0
     14899 TIP3     806      TIP3     H1       HT       0.417000       1.00800           0
     14900 TIP3     806      TIP3     H2       HT       0.417000       1.00800           0
     14901 TIP3     807      TIP3     OH2      OT      -0.834000       15.9994           0
     14902 TIP3     807      TIP3     H1       HT       0.417000       1.00800           0
     14903 TIP3     807      TIP3     H2       HT       0.417000       1.00800           0
     14904 TIP3     808      TIP3     OH2      OT      -0.834000       15.9994           0
     14905 TIP3     808      TIP3     H1       HT       0.417000       1.00800           0
     14906 TIP3     808      TIP3     H2       HT       0.417000       1.00800           0
     14907 TIP3     809      TIP3     OH2      OT      -0.834000       15.9994           0
     14908 TIP3     809      TIP3     H1       HT       0.417000       1.00800           0
     14909 TIP3     809      TIP3     H2       HT       0.417000       1.00800           0
     14910 TIP3     810      TIP3     OH2      OT      -0.834000       15.9994           0
     14911 TIP3     810      TIP3     H1       HT       0.417000       1.00800           0
     14912 TIP3     810      TIP3     H2       HT       0.417000       1.00800           0
     14913 TIP3     811      TIP3     OH2      OT      -0.834000       15.9994           0
     14914 TIP3     811      TIP3     H1       HT       0.417000       1.00800           0
     14915 TIP3     811      TIP3     H2       HT       0.417000       1.00800           0
     14916 TIP3     812      TIP3     OH2      OT      -0.834000       15.9994           0
     14917 TIP3     812      TIP3     H1       HT       0.417000       1.00800           0
     14918 TIP3     812      TIP3     H2       HT       0.417000       1.00800           0
     14919 TIP3     813      TIP3     OH2      OT      -0.834000       15.9994           0
     14920 TIP3     813      TIP3     H1       HT       0.417000       1.00800           0
     14921 TIP3     813      TIP3     H2       HT       0.417000       1.00800           0
     14922 TIP3     814      TIP3     OH2      OT      -0.834000       15.9994           0
     14923 TIP3     814      TIP3     H1       HT       0.417000       1.00800           0
     14924 TIP3     814      TIP3     H2       HT       0.417000       1.00800           0
     14925 TIP3     815      TIP3     OH2      OT      -0.834000       15.9994           0
     14926 TIP3     815      TIP3     H1       HT       0.417000       1.00800           0
     14927 TIP3     815      TIP3     H2       HT       0.417000       1.00800           0
     14928 TIP3     816      TIP3     OH2      OT      -0.834000       15.9994           0
     14929 TIP3     816      TIP3     H1       HT       0.417000       1.00800           0
     14930 TIP3     816      TIP3     H2       HT       0.417000       1.00800           0
     14931 TIP3     817      TIP3     OH2      OT      -0.834000       15.9994           0
     14932 TIP3     817      TIP3     H1       HT       0.417000       1.00800           0
     14933 TIP3     817      TIP3     H2       HT       0.417000       1.00800           0
     14934 TIP3     818      TIP3     OH2      OT      -0.834000       15.9994           0
     14935 TIP3     818      TIP3     H1       HT       0.417000       1.00800           0
     14936 TIP3     818      TIP3     H2       HT       0.417000       1.00800           0
     14937 TIP3     819      TIP3     OH2      OT      -0.834000       15.9994           0
     14938 TIP3     819      TIP3     H1       HT       0.417000       1.00800           0
     14939 TIP3     819      TIP3     H2       HT       0.417000       1.00800           0
     14940 TIP3     820      TIP3     OH2      OT      -0.834000       15.9994           0
     14941 TIP3     820      TIP3     H1       HT       0.417000       1.00800           0
     14942 TIP3     820      TIP3     H2       HT       0.417000       1.00800           0
     14943 TIP3     821      TIP3     OH2      OT      -0.834000       15.9994           0
     14944 TIP3     821      TIP3     H1       HT       0.417000       1.00800           0
     14945 TIP3     821      TIP3     H2       HT       0.417000       1.00800           0
     14946 TIP3     822      TIP3     OH2      OT      -0.834000       15.9994           0
     14947 TIP3     822      TIP3     H1       HT       0.417000       1.00800           0
     14948 TIP3     822      TIP3     H2       HT       0.417000       1.00800           0
     14949 TIP3     823      TIP3     OH2      OT      -0.834000       15.9994           0
     14950 TIP3     823      TIP3     H1       HT       0.417000       1.00800           0
     14951 TIP3     823      TIP3     H2       HT       0.417000       1.00800           0
     14952 TIP3     824      TIP3     OH2      OT      -0.834000       15.9994           0
     14953 TIP3     824      TIP3     H1       HT       0.417000       1.00800           0
     14954 TIP3     824      TIP3     H2       HT       0.417000       1.00800           0
     14955 TIP3     825      TIP3     OH2      OT      -0.834000       15.9994           0
     14956 TIP3     825      TIP3     H1       HT       0.417000       1.00800           0
     14957 TIP3     825      TIP3     H2       HT       0.417000       1.00800           0
     14958 TIP3     826      TIP3     OH2      OT      -0.834000       15.9994           0
     14959 TIP3     826      TIP3     H1       HT       0.417000       1.00800           0
     14960 TIP3     826      TIP3     H2       HT       0.417000       1.00800           0
     14961 TIP3     827      TIP3     OH2      OT      -0.834000       15.9994           0
     14962 TIP3     827      TIP3     H1       HT       0.417000       1.00800           0
     14963 TIP3     827      TIP3     H2       HT       0.417000       1.00800           0
     14964 TIP3     828      TIP3     OH2      OT      -0.834000       15.9994           0
     14965 TIP3     828      TIP3     H1       HT       0.417000       1.00800           0
     14966 TIP3     828      TIP3     H2       HT       0.417000       1.00800           0
     14967 TIP3     829      TIP3     OH2      OT      -0.834000       15.9994           0
     14968 TIP3     829      TIP3     H1       HT       0.417000       1.00800           0
     14969 TIP3     829      TIP3     H2       HT       0.417000       1.00800           0
     14970 TIP3     830      TIP3     OH2      OT      -0.834000       15.9994           0
     14971 TIP3     830      TIP3     H1       HT       0.417000       1.00800           0
     14972 TIP3     830      TIP3     H2       HT       0.417000       1.00800           0
     14973 TIP3     831      TIP3     OH2      OT      -0.834000       15.9994           0
     14974 TIP3     831      TIP3     H1       HT       0.417000       1.00800           0
     14975 TIP3     831      TIP3     H2       HT       0.417000       1.00800           0
     14976 TIP3     832      TIP3     OH2      OT      -0.834000       15.9994           0
     14977 TIP3     832      TIP3     H1       HT       0.417000       1.00800           0
     14978 TIP3     832      TIP3     H2       HT       0.417000       1.00800           0
     14979 TIP3     833      TIP3     OH2      OT      -0.834000       15.9994           0
     14980 TIP3     833      TIP3     H1       HT       0.417000       1.00800           0
     14981 TIP3     833      TIP3     H2       HT       0.417000       1.00800           0
     14982 TIP3     834      TIP3     OH2      OT      -0.834000       15.9994           0
     14983 TIP3     834      TIP3     H1       HT       0.417000       1.00800           0
     14984 TIP3     834      TIP3     H2       HT       0.417000       1.00800           0
     14985 TIP3     835      TIP3     OH2      OT      -0.834000       15.9994           0
     14986 TIP3     835      TIP3     H1       HT       0.417000       1.00800           0
     14987 TIP3     835      TIP3     H2       HT       0.417000       1.00800           0
     14988 TIP3     836      TIP3     OH2      OT      -0.834000       15.9994           0
     14989 TIP3     836      TIP3     H1       HT       0.417000       1.00800           0
     14990 TIP3     836      TIP3     H2       HT       0.417000       1.00800           0
     14991 TIP3     837      TIP3     OH2      OT      -0.834000       15.9994           0
     14992 TIP3     837      TIP3     H1       HT       0.417000       1.00800           0
     14993 TIP3     837      TIP3     H2       HT       0.417000       1.00800           0
     14994 TIP3     838      TIP3     OH2      OT      -0.834000       15.9994           0
     14995 TIP3     838      TIP3     H1       HT       0.417000       1.00800           0
     14996 TIP3     838      TIP3     H2       HT       0.417000       1.00800           0
     14997 TIP3     839      TIP3     OH2      OT      -0.834000       15.9994           0
     14998 TIP3     839      TIP3     H1       HT       0.417000       1.00800           0
     14999 TIP3     839      TIP3     H2       HT       0.417000       1.00800           0
     15000 TIP3     840      TIP3     OH2      OT      -0.834000       15.9994           0
     15001 TIP3     840      TIP3     H1       HT       0.417000       1.00800           0
     15002 TIP3     840      TIP3     H2       HT       0.417000       1.00800           0
     15003 TIP3     841      TIP3     OH2      OT      -0.834000       15.9994           0
     15004 TIP3     841      TIP3     H1       HT       0.417000       1.00800           0
     15005 TIP3     841      TIP3     H2       HT       0.417000       1.00800           0
     15006 TIP3     842      TIP3     OH2      OT      -0.834000       15.9994           0
     15007 TIP3     842      TIP3     H1       HT       0.417000       1.00800           0
     15008 TIP3     842      TIP3     H2       HT       0.417000       1.00800           0
     15009 TIP3     843      TIP3     OH2      OT      -0.834000       15.9994           0
     15010 TIP3     843      TIP3     H1       HT       0.417000       1.00800           0
     15011 TIP3     843      TIP3     H2       HT       0.417000       1.00800           0
     15012 TIP3     844      TIP3     OH2      OT      -0.834000       15.9994           0
     15013 TIP3     844      TIP3     H1       HT       0.417000       1.00800           0
     15014 TIP3     844      TIP3     H2       HT       0.417000       1.00800           0
     15015 TIP3     845      TIP3     OH2      OT      -0.834000       15.9994           0
     15016 TIP3     845      TIP3     H1       HT       0.417000       1.00800           0
     15017 TIP3     845      TIP3     H2       HT       0.417000       1.00800           0
     15018 TIP3     846      TIP3     OH2      OT      -0.834000       15.9994           0
     15019 TIP3     846      TIP3     H1       HT       0.417000       1.00800           0
     15020 TIP3     846      TIP3     H2       HT       0.417000       1.00800           0
     15021 TIP3     847      TIP3     OH2      OT      -0.834000       15.9994           0
     15022 TIP3     847      TIP3     H1       HT       0.417000       1.00800           0
     15023 TIP3     847      TIP3     H2       HT       0.417000       1.00800           0
     15024 TIP3     848      TIP3     OH2      OT      -0.834000       15.9994           0
     15025 TIP3     848      TIP3     H1       HT       0.417000       1.00800           0
     15026 TIP3     848      TIP3     H2       HT       0.417000       1.00800           0
     15027 TIP3     849      TIP3     OH2      OT      -0.834000       15.9994           0
     15028 TIP3     849      TIP3     H1       HT       0.417000       1.00800           0
     15029 TIP3     849      TIP3     H2       HT       0.417000       1.00800           0
     15030 TIP3     850      TIP3     OH2      OT      -0.834000       15.9994           0
     15031 TIP3     850      TIP3     H1       HT       0.417000       1.00800           0
     15032 TIP3     850      TIP3     H2       HT       0.417000       1.00800           0
     15033 TIP3     851      TIP3     OH2      OT      -0.834000       15.9994           0
     15034 TIP3     851      TIP3     H1       HT       0.417000       1.00800           0
     15035 TIP3     851      TIP3     H2       HT       0.417000       1.00800           0
     15036 TIP3     852      TIP3     OH2      OT      -0.834000       15.9994           0
     15037 TIP3     852      TIP3     H1       HT       0.417000       1.00800           0
     15038 TIP3     852      TIP3     H2       HT       0.417000       1.00800           0
     15039 TIP3     853      TIP3     OH2      OT      -0.834000       15.9994           0
     15040 TIP3     853      TIP3     H1       HT       0.417000       1.00800           0
     15041 TIP3     853      TIP3     H2       HT       0.417000       1.00800           0
     15042 TIP3     854      TIP3     OH2      OT      -0.834000       15.9994           0
     15043 TIP3     854      TIP3     H1       HT       0.417000       1.00800           0
     15044 TIP3     854      TIP3     H2       HT       0.417000       1.00800           0
     15045 TIP3     855      TIP3     OH2      OT      -0.834000       15.9994           0
     15046 TIP3     855      TIP3     H1       HT       0.417000       1.00800           0
     15047 TIP3     855      TIP3     H2       HT       0.417000       1.00800           0
     15048 TIP3     856      TIP3     OH2      OT      -0.834000       15.9994           0
     15049 TIP3     856      TIP3     H1       HT       0.417000       1.00800           0
     15050 TIP3     856      TIP3     H2       HT       0.417000       1.00800           0
     15051 TIP3     857      TIP3     OH2      OT      -0.834000       15.9994           0
     15052 TIP3     857      TIP3     H1       HT       0.417000       1.00800           0
     15053 TIP3     857      TIP3     H2       HT       0.417000       1.00800           0
     15054 TIP3     858      TIP3     OH2      OT      -0.834000       15.9994           0
     15055 TIP3     858      TIP3     H1       HT       0.417000       1.00800           0
     15056 TIP3     858      TIP3     H2       HT       0.417000       1.00800           0
     15057 TIP3     859      TIP3     OH2      OT      -0.834000       15.9994           0
     15058 TIP3     859      TIP3     H1       HT       0.417000       1.00800           0
     15059 TIP3     859      TIP3     H2       HT       0.417000       1.00800           0
     15060 TIP3     860      TIP3     OH2      OT      -0.834000       15.9994           0
     15061 TIP3     860      TIP3     H1       HT       0.417000       1.00800           0
     15062 TIP3     860      TIP3     H2       HT       0.417000       1.00800           0
     15063 TIP3     861      TIP3     OH2      OT      -0.834000       15.9994           0
     15064 TIP3     861      TIP3     H1       HT       0.417000       1.00800           0
     15065 TIP3     861      TIP3     H2       HT       0.417000       1.00800           0
     15066 TIP3     862      TIP3     OH2      OT      -0.834000       15.9994           0
     15067 TIP3     862      TIP3     H1       HT       0.417000       1.00800           0
     15068 TIP3     862      TIP3     H2       HT       0.417000       1.00800           0
     15069 TIP3     863      TIP3     OH2      OT      -0.834000       15.9994           0
     15070 TIP3     863      TIP3     H1       HT       0.417000       1.00800           0
     15071 TIP3     863      TIP3     H2       HT       0.417000       1.00800           0
     15072 TIP3     864      TIP3     OH2      OT      -0.834000       15.9994           0
     15073 TIP3     864      TIP3     H1       HT       0.417000       1.00800           0
     15074 TIP3     864      TIP3     H2       HT       0.417000       1.00800           0
     15075 TIP3     865      TIP3     OH2      OT      -0.834000       15.9994           0
     15076 TIP3     865      TIP3     H1       HT       0.417000       1.00800           0
     15077 TIP3     865      TIP3     H2       HT       0.417000       1.00800           0
     15078 TIP3     866      TIP3     OH2      OT      -0.834000       15.9994           0
     15079 TIP3     866      TIP3     H1       HT       0.417000       1.00800           0
     15080 TIP3     866      TIP3     H2       HT       0.417000       1.00800           0
     15081 TIP3     867      TIP3     OH2      OT      -0.834000       15.9994           0
     15082 TIP3     867      TIP3     H1       HT       0.417000       1.00800           0
     15083 TIP3     867      TIP3     H2       HT       0.417000       1.00800           0
     15084 TIP3     868      TIP3     OH2      OT      -0.834000       15.9994           0
     15085 TIP3     868      TIP3     H1       HT       0.417000       1.00800           0
     15086 TIP3     868      TIP3     H2       HT       0.417000       1.00800           0
     15087 TIP3     869      TIP3     OH2      OT      -0.834000       15.9994           0
     15088 TIP3     869      TIP3     H1       HT       0.417000       1.00800           0
     15089 TIP3     869      TIP3     H2       HT       0.417000       1.00800           0
     15090 TIP3     870      TIP3     OH2      OT      -0.834000       15.9994           0
     15091 TIP3     870      TIP3     H1       HT       0.417000       1.00800           0
     15092 TIP3     870      TIP3     H2       HT       0.417000       1.00800           0
     15093 TIP3     871      TIP3     OH2      OT      -0.834000       15.9994           0
     15094 TIP3     871      TIP3     H1       HT       0.417000       1.00800           0
     15095 TIP3     871      TIP3     H2       HT       0.417000       1.00800           0
     15096 TIP3     872      TIP3     OH2      OT      -0.834000       15.9994           0
     15097 TIP3     872      TIP3     H1       HT       0.417000       1.00800           0
     15098 TIP3     872      TIP3     H2       HT       0.417000       1.00800           0
     15099 TIP3     873      TIP3     OH2      OT      -0.834000       15.9994           0
     15100 TIP3     873      TIP3     H1       HT       0.417000       1.00800           0
     15101 TIP3     873      TIP3     H2       HT       0.417000       1.00800           0
     15102 TIP3     874      TIP3     OH2      OT      -0.834000       15.9994           0
     15103 TIP3     874      TIP3     H1       HT       0.417000       1.00800           0
     15104 TIP3     874      TIP3     H2       HT       0.417000       1.00800           0
     15105 TIP3     875      TIP3     OH2      OT      -0.834000       15.9994           0
     15106 TIP3     875      TIP3     H1       HT       0.417000       1.00800           0
     15107 TIP3     875      TIP3     H2       HT       0.417000       1.00800           0
     15108 TIP3     876      TIP3     OH2      OT      -0.834000       15.9994           0
     15109 TIP3     876      TIP3     H1       HT       0.417000       1.00800           0
     15110 TIP3     876      TIP3     H2       HT       0.417000       1.00800           0
     15111 TIP3     877      TIP3     OH2      OT      -0.834000       15.9994           0
     15112 TIP3     877      TIP3     H1       HT       0.417000       1.00800           0
     15113 TIP3     877      TIP3     H2       HT       0.417000       1.00800           0
     15114 TIP3     878      TIP3     OH2      OT      -0.834000       15.9994           0
     15115 TIP3     878      TIP3     H1       HT       0.417000       1.00800           0
     15116 TIP3     878      TIP3     H2       HT       0.417000       1.00800           0
     15117 TIP3     879      TIP3     OH2      OT      -0.834000       15.9994           0
     15118 TIP3     879      TIP3     H1       HT       0.417000       1.00800           0
     15119 TIP3     879      TIP3     H2       HT       0.417000       1.00800           0
     15120 TIP3     880      TIP3     OH2      OT      -0.834000       15.9994           0
     15121 TIP3     880      TIP3     H1       HT       0.417000       1.00800           0
     15122 TIP3     880      TIP3     H2       HT       0.417000       1.00800           0
     15123 TIP3     881      TIP3     OH2      OT      -0.834000       15.9994           0
     15124 TIP3     881      TIP3     H1       HT       0.417000       1.00800           0
     15125 TIP3     881      TIP3     H2       HT       0.417000       1.00800           0
     15126 TIP3     882      TIP3     OH2      OT      -0.834000       15.9994           0
     15127 TIP3     882      TIP3     H1       HT       0.417000       1.00800           0
     15128 TIP3     882      TIP3     H2       HT       0.417000       1.00800           0
     15129 TIP3     883      TIP3     OH2      OT      -0.834000       15.9994           0
     15130 TIP3     883      TIP3     H1       HT       0.417000       1.00800           0
     15131 TIP3     883      TIP3     H2       HT       0.417000       1.00800           0
     15132 TIP3     884      TIP3     OH2      OT      -0.834000       15.9994           0
     15133 TIP3     884      TIP3     H1       HT       0.417000       1.00800           0
     15134 TIP3     884      TIP3     H2       HT       0.417000       1.00800           0
     15135 TIP3     885      TIP3     OH2      OT      -0.834000       15.9994           0
     15136 TIP3     885      TIP3     H1       HT       0.417000       1.00800           0
     15137 TIP3     885      TIP3     H2       HT       0.417000       1.00800           0
     15138 TIP3     886      TIP3     OH2      OT      -0.834000       15.9994           0
     15139 TIP3     886      TIP3     H1       HT       0.417000       1.00800           0
     15140 TIP3     886      TIP3     H2       HT       0.417000       1.00800           0
     15141 TIP3     887      TIP3     OH2      OT      -0.834000       15.9994           0
     15142 TIP3     887      TIP3     H1       HT       0.417000       1.00800           0
     15143 TIP3     887      TIP3     H2       HT       0.417000       1.00800           0
     15144 TIP3     888      TIP3     OH2      OT      -0.834000       15.9994           0
     15145 TIP3     888      TIP3     H1       HT       0.417000       1.00800           0
     15146 TIP3     888      TIP3     H2       HT       0.417000       1.00800           0
     15147 TIP3     889      TIP3     OH2      OT      -0.834000       15.9994           0
     15148 TIP3     889      TIP3     H1       HT       0.417000       1.00800           0
     15149 TIP3     889      TIP3     H2       HT       0.417000       1.00800           0
     15150 TIP3     890      TIP3     OH2      OT      -0.834000       15.9994           0
     15151 TIP3     890      TIP3     H1       HT       0.417000       1.00800           0
     15152 TIP3     890      TIP3     H2       HT       0.417000       1.00800           0
     15153 TIP3     891      TIP3     OH2      OT      -0.834000       15.9994           0
     15154 TIP3     891      TIP3     H1       HT       0.417000       1.00800           0
     15155 TIP3     891      TIP3     H2       HT       0.417000       1.00800           0
     15156 TIP3     892      TIP3     OH2      OT      -0.834000       15.9994           0
     15157 TIP3     892      TIP3     H1       HT       0.417000       1.00800           0
     15158 TIP3     892      TIP3     H2       HT       0.417000       1.00800           0
     15159 TIP3     893      TIP3     OH2      OT      -0.834000       15.9994           0
     15160 TIP3     893      TIP3     H1       HT       0.417000       1.00800           0
     15161 TIP3     893      TIP3     H2       HT       0.417000       1.00800           0
     15162 TIP3     894      TIP3     OH2      OT      -0.834000       15.9994           0
     15163 TIP3     894      TIP3     H1       HT       0.417000       1.00800           0
     15164 TIP3     894      TIP3     H2       HT       0.417000       1.00800           0
     15165 TIP3     895      TIP3     OH2      OT      -0.834000       15.9994           0
     15166 TIP3     895      TIP3     H1       HT       0.417000       1.00800           0
     15167 TIP3     895      TIP3     H2       HT       0.417000       1.00800           0
     15168 TIP3     896      TIP3     OH2      OT      -0.834000       15.9994           0
     15169 TIP3     896      TIP3     H1       HT       0.417000       1.00800           0
     15170 TIP3     896      TIP3     H2       HT       0.417000       1.00800           0
     15171 TIP3     897      TIP3     OH2      OT      -0.834000       15.9994           0
     15172 TIP3     897      TIP3     H1       HT       0.417000       1.00800           0
     15173 TIP3     897      TIP3     H2       HT       0.417000       1.00800           0
     15174 TIP3     898      TIP3     OH2      OT      -0.834000       15.9994           0
     15175 TIP3     898      TIP3     H1       HT       0.417000       1.00800           0
     15176 TIP3     898      TIP3     H2       HT       0.417000       1.00800           0
     15177 TIP3     899      TIP3     OH2      OT      -0.834000       15.9994           0
     15178 TIP3     899      TIP3     H1       HT       0.417000       1.00800           0
     15179 TIP3     899      TIP3     H2       HT       0.417000       1.00800           0
     15180 TIP3     900      TIP3     OH2      OT      -0.834000       15.9994           0
     15181 TIP3     900      TIP3     H1       HT       0.417000       1.00800           0
     15182 TIP3     900      TIP3     H2       HT       0.417000       1.00800           0
     15183 TIP3     901      TIP3     OH2      OT      -0.834000       15.9994           0
     15184 TIP3     901      TIP3     H1       HT       0.417000       1.00800           0
     15185 TIP3     901      TIP3     H2       HT       0.417000       1.00800           0
     15186 TIP3     902      TIP3     OH2      OT      -0.834000       15.9994           0
     15187 TIP3     902      TIP3     H1       HT       0.417000       1.00800           0
     15188 TIP3     902      TIP3     H2       HT       0.417000       1.00800           0
     15189 TIP3     903      TIP3     OH2      OT      -0.834000       15.9994           0
     15190 TIP3     903      TIP3     H1       HT       0.417000       1.00800           0
     15191 TIP3     903      TIP3     H2       HT       0.417000       1.00800           0
     15192 TIP3     904      TIP3     OH2      OT      -0.834000       15.9994           0
     15193 TIP3     904      TIP3     H1       HT       0.417000       1.00800           0
     15194 TIP3     904      TIP3     H2       HT       0.417000       1.00800           0
     15195 TIP3     905      TIP3     OH2      OT      -0.834000       15.9994           0
     15196 TIP3     905      TIP3     H1       HT       0.417000       1.00800           0
     15197 TIP3     905      TIP3     H2       HT       0.417000       1.00800           0
     15198 TIP3     906      TIP3     OH2      OT      -0.834000       15.9994           0
     15199 TIP3     906      TIP3     H1       HT       0.417000       1.00800           0
     15200 TIP3     906      TIP3     H2       HT       0.417000       1.00800           0
     15201 TIP3     907      TIP3     OH2      OT      -0.834000       15.9994           0
     15202 TIP3     907      TIP3     H1       HT       0.417000       1.00800           0
     15203 TIP3     907      TIP3     H2       HT       0.417000       1.00800           0
     15204 TIP3     908      TIP3     OH2      OT      -0.834000       15.9994           0
     15205 TIP3     908      TIP3     H1       HT       0.417000       1.00800           0
     15206 TIP3     908      TIP3     H2       HT       0.417000       1.00800           0
     15207 TIP3     909      TIP3     OH2      OT      -0.834000       15.9994           0
     15208 TIP3     909      TIP3     H1       HT       0.417000       1.00800           0
     15209 TIP3     909      TIP3     H2       HT       0.417000       1.00800           0
     15210 TIP3     910      TIP3     OH2      OT      -0.834000       15.9994           0
     15211 TIP3     910      TIP3     H1       HT       0.417000       1.00800           0
     15212 TIP3     910      TIP3     H2       HT       0.417000       1.00800           0
     15213 TIP3     911      TIP3     OH2      OT      -0.834000       15.9994           0
     15214 TIP3     911      TIP3     H1       HT       0.417000       1.00800           0
     15215 TIP3     911      TIP3     H2       HT       0.417000       1.00800           0
     15216 TIP3     912      TIP3     OH2      OT      -0.834000       15.9994           0
     15217 TIP3     912      TIP3     H1       HT       0.417000       1.00800           0
     15218 TIP3     912      TIP3     H2       HT       0.417000       1.00800           0
     15219 TIP3     913      TIP3     OH2      OT      -0.834000       15.9994           0
     15220 TIP3     913      TIP3     H1       HT       0.417000       1.00800           0
     15221 TIP3     913      TIP3     H2       HT       0.417000       1.00800           0
     15222 TIP3     914      TIP3     OH2      OT      -0.834000       15.9994           0
     15223 TIP3     914      TIP3     H1       HT       0.417000       1.00800           0
     15224 TIP3     914      TIP3     H2       HT       0.417000       1.00800           0
     15225 TIP3     915      TIP3     OH2      OT      -0.834000       15.9994           0
     15226 TIP3     915      TIP3     H1       HT       0.417000       1.00800           0
     15227 TIP3     915      TIP3     H2       HT       0.417000       1.00800           0
     15228 TIP3     916      TIP3     OH2      OT      -0.834000       15.9994           0
     15229 TIP3     916      TIP3     H1       HT       0.417000       1.00800           0
     15230 TIP3     916      TIP3     H2       HT       0.417000       1.00800           0
     15231 TIP3     917      TIP3     OH2      OT      -0.834000       15.9994           0
     15232 TIP3     917      TIP3     H1       HT       0.417000       1.00800           0
     15233 TIP3     917      TIP3     H2       HT       0.417000       1.00800           0
     15234 TIP3     918      TIP3     OH2      OT      -0.834000       15.9994           0
     15235 TIP3     918      TIP3     H1       HT       0.417000       1.00800           0
     15236 TIP3     918      TIP3     H2       HT       0.417000       1.00800           0
     15237 TIP3     919      TIP3     OH2      OT      -0.834000       15.9994           0
     15238 TIP3     919      TIP3     H1       HT       0.417000       1.00800           0
     15239 TIP3     919      TIP3     H2       HT       0.417000       1.00800           0
     15240 TIP3     920      TIP3     OH2      OT      -0.834000       15.9994           0
     15241 TIP3     920      TIP3     H1       HT       0.417000       1.00800           0
     15242 TIP3     920      TIP3     H2       HT       0.417000       1.00800           0
     15243 TIP3     921      TIP3     OH2      OT      -0.834000       15.9994           0
     15244 TIP3     921      TIP3     H1       HT       0.417000       1.00800           0
     15245 TIP3     921      TIP3     H2       HT       0.417000       1.00800           0
     15246 TIP3     922      TIP3     OH2      OT      -0.834000       15.9994           0
     15247 TIP3     922      TIP3     H1       HT       0.417000       1.00800           0
     15248 TIP3     922      TIP3     H2       HT       0.417000       1.00800           0
     15249 TIP3     923      TIP3     OH2      OT      -0.834000       15.9994           0
     15250 TIP3     923      TIP3     H1       HT       0.417000       1.00800           0
     15251 TIP3     923      TIP3     H2       HT       0.417000       1.00800           0
     15252 TIP3     924      TIP3     OH2      OT      -0.834000       15.9994           0
     15253 TIP3     924      TIP3     H1       HT       0.417000       1.00800           0
     15254 TIP3     924      TIP3     H2       HT       0.417000       1.00800           0
     15255 TIP3     925      TIP3     OH2      OT      -0.834000       15.9994           0
     15256 TIP3     925      TIP3     H1       HT       0.417000       1.00800           0
     15257 TIP3     925      TIP3     H2       HT       0.417000       1.00800           0
     15258 TIP3     926      TIP3     OH2      OT      -0.834000       15.9994           0
     15259 TIP3     926      TIP3     H1       HT       0.417000       1.00800           0
     15260 TIP3     926      TIP3     H2       HT       0.417000       1.00800           0
     15261 TIP3     927      TIP3     OH2      OT      -0.834000       15.9994           0
     15262 TIP3     927      TIP3     H1       HT       0.417000       1.00800           0
     15263 TIP3     927      TIP3     H2       HT       0.417000       1.00800           0
     15264 TIP3     928      TIP3     OH2      OT      -0.834000       15.9994           0
     15265 TIP3     928      TIP3     H1       HT       0.417000       1.00800           0
     15266 TIP3     928      TIP3     H2       HT       0.417000       1.00800           0
     15267 TIP3     929      TIP3     OH2      OT      -0.834000       15.9994           0
     15268 TIP3     929      TIP3     H1       HT       0.417000       1.00800           0
     15269 TIP3     929      TIP3     H2       HT       0.417000       1.00800           0
     15270 TIP3     930      TIP3     OH2      OT      -0.834000       15.9994           0
     15271 TIP3     930      TIP3     H1       HT       0.417000       1.00800           0
     15272 TIP3     930      TIP3     H2       HT       0.417000       1.00800           0
     15273 TIP3     931      TIP3     OH2      OT      -0.834000       15.9994           0
     15274 TIP3     931      TIP3     H1       HT       0.417000       1.00800           0
     15275 TIP3     931      TIP3     H2       HT       0.417000       1.00800           0
     15276 TIP3     932      TIP3     OH2      OT      -0.834000       15.9994           0
     15277 TIP3     932      TIP3     H1       HT       0.417000       1.00800           0
     15278 TIP3     932      TIP3     H2       HT       0.417000       1.00800           0
     15279 TIP3     933      TIP3     OH2      OT      -0.834000       15.9994           0
     15280 TIP3     933      TIP3     H1       HT       0.417000       1.00800           0
     15281 TIP3     933      TIP3     H2       HT       0.417000       1.00800           0
     15282 TIP3     934      TIP3     OH2      OT      -0.834000       15.9994           0
     15283 TIP3     934      TIP3     H1       HT       0.417000       1.00800           0
     15284 TIP3     934      TIP3     H2       HT       0.417000       1.00800           0
     15285 TIP3     935      TIP3     OH2      OT      -0.834000       15.9994           0
     15286 TIP3     935      TIP3     H1       HT       0.417000       1.00800           0
     15287 TIP3     935      TIP3     H2       HT       0.417000       1.00800           0
     15288 TIP3     936      TIP3     OH2      OT      -0.834000       15.9994           0
     15289 TIP3     936      TIP3     H1       HT       0.417000       1.00800           0
     15290 TIP3     936      TIP3     H2       HT       0.417000       1.00800           0
     15291 TIP3     937      TIP3     OH2      OT      -0.834000       15.9994           0
     15292 TIP3     937      TIP3     H1       HT       0.417000       1.00800           0
     15293 TIP3     937      TIP3     H2       HT       0.417000       1.00800           0
     15294 TIP3     938      TIP3     OH2      OT      -0.834000       15.9994           0
     15295 TIP3     938      TIP3     H1       HT       0.417000       1.00800           0
     15296 TIP3     938      TIP3     H2       HT       0.417000       1.00800           0
     15297 TIP3     939      TIP3     OH2      OT      -0.834000       15.9994           0
     15298 TIP3     939      TIP3     H1       HT       0.417000       1.00800           0
     15299 TIP3     939      TIP3     H2       HT       0.417000       1.00800           0
     15300 TIP3     940      TIP3     OH2      OT      -0.834000       15.9994           0
     15301 TIP3     940      TIP3     H1       HT       0.417000       1.00800           0
     15302 TIP3     940      TIP3     H2       HT       0.417000       1.00800           0
     15303 TIP3     941      TIP3     OH2      OT      -0.834000       15.9994           0
     15304 TIP3     941      TIP3     H1       HT       0.417000       1.00800           0
     15305 TIP3     941      TIP3     H2       HT       0.417000       1.00800           0
     15306 TIP3     942      TIP3     OH2      OT      -0.834000       15.9994           0
     15307 TIP3     942      TIP3     H1       HT       0.417000       1.00800           0
     15308 TIP3     942      TIP3     H2       HT       0.417000       1.00800           0
     15309 TIP3     943      TIP3     OH2      OT      -0.834000       15.9994           0
     15310 TIP3     943      TIP3     H1       HT       0.417000       1.00800           0
     15311 TIP3     943      TIP3     H2       HT       0.417000       1.00800           0
     15312 TIP3     944      TIP3     OH2      OT      -0.834000       15.9994           0
     15313 TIP3     944      TIP3     H1       HT       0.417000       1.00800           0
     15314 TIP3     944      TIP3     H2       HT       0.417000       1.00800           0
     15315 TIP3     945      TIP3     OH2      OT      -0.834000       15.9994           0
     15316 TIP3     945      TIP3     H1       HT       0.417000       1.00800           0
     15317 TIP3     945      TIP3     H2       HT       0.417000       1.00800           0
     15318 TIP3     946      TIP3     OH2      OT      -0.834000       15.9994           0
     15319 TIP3     946      TIP3     H1       HT       0.417000       1.00800           0
     15320 TIP3     946      TIP3     H2       HT       0.417000       1.00800           0
     15321 TIP3     947      TIP3     OH2      OT      -0.834000       15.9994           0
     15322 TIP3     947      TIP3     H1       HT       0.417000       1.00800           0
     15323 TIP3     947      TIP3     H2       HT       0.417000       1.00800           0
     15324 TIP3     948      TIP3     OH2      OT      -0.834000       15.9994           0
     15325 TIP3     948      TIP3     H1       HT       0.417000       1.00800           0
     15326 TIP3     948      TIP3     H2       HT       0.417000       1.00800           0
     15327 TIP3     949      TIP3     OH2      OT      -0.834000       15.9994           0
     15328 TIP3     949      TIP3     H1       HT       0.417000       1.00800           0
     15329 TIP3     949      TIP3     H2       HT       0.417000       1.00800           0
     15330 TIP3     950      TIP3     OH2      OT      -0.834000       15.9994           0
     15331 TIP3     950      TIP3     H1       HT       0.417000       1.00800           0
     15332 TIP3     950      TIP3     H2       HT       0.417000       1.00800           0
     15333 TIP3     951      TIP3     OH2      OT      -0.834000       15.9994           0
     15334 TIP3     951      TIP3     H1       HT       0.417000       1.00800           0
     15335 TIP3     951      TIP3     H2       HT       0.417000       1.00800           0
     15336 TIP3     952      TIP3     OH2      OT      -0.834000       15.9994           0
     15337 TIP3     952      TIP3     H1       HT       0.417000       1.00800           0
     15338 TIP3     952      TIP3     H2       HT       0.417000       1.00800           0
     15339 TIP3     953      TIP3     OH2      OT      -0.834000       15.9994           0
     15340 TIP3     953      TIP3     H1       HT       0.417000       1.00800           0
     15341 TIP3     953      TIP3     H2       HT       0.417000       1.00800           0
     15342 TIP3     954      TIP3     OH2      OT      -0.834000       15.9994           0
     15343 TIP3     954      TIP3     H1       HT       0.417000       1.00800           0
     15344 TIP3     954      TIP3     H2       HT       0.417000       1.00800           0
     15345 TIP3     955      TIP3     OH2      OT      -0.834000       15.9994           0
     15346 TIP3     955      TIP3     H1       HT       0.417000       1.00800           0
     15347 TIP3     955      TIP3     H2       HT       0.417000       1.00800           0
     15348 TIP3     956      TIP3     OH2      OT      -0.834000       15.9994           0
     15349 TIP3     956      TIP3     H1       HT       0.417000       1.00800           0
     15350 TIP3     956      TIP3     H2       HT       0.417000       1.00800           0
     15351 TIP3     957      TIP3     OH2      OT      -0.834000       15.9994           0
     15352 TIP3     957      TIP3     H1       HT       0.417000       1.00800           0
     15353 TIP3     957      TIP3     H2       HT       0.417000       1.00800           0
     15354 TIP3     958      TIP3     OH2      OT      -0.834000       15.9994           0
     15355 TIP3     958      TIP3     H1       HT       0.417000       1.00800           0
     15356 TIP3     958      TIP3     H2       HT       0.417000       1.00800           0
     15357 TIP3     959      TIP3     OH2      OT      -0.834000       15.9994           0
     15358 TIP3     959      TIP3     H1       HT       0.417000       1.00800           0
     15359 TIP3     959      TIP3     H2       HT       0.417000       1.00800           0
     15360 TIP3     960      TIP3     OH2      OT      -0.834000       15.9994           0
     15361 TIP3     960      TIP3     H1       HT       0.417000       1.00800           0
     15362 TIP3     960      TIP3     H2       HT       0.417000       1.00800           0
     15363 TIP3     961      TIP3     OH2      OT      -0.834000       15.9994           0
     15364 TIP3     961      TIP3     H1       HT       0.417000       1.00800           0
     15365 TIP3     961      TIP3     H2       HT       0.417000       1.00800           0
     15366 TIP3     962      TIP3     OH2      OT      -0.834000       15.9994           0
     15367 TIP3     962      TIP3     H1       HT       0.417000       1.00800           0
     15368 TIP3     962      TIP3     H2       HT       0.417000       1.00800           0
     15369 TIP3     963      TIP3     OH2      OT      -0.834000       15.9994           0
     15370 TIP3     963      TIP3     H1       HT       0.417000       1.00800           0
     15371 TIP3     963      TIP3     H2       HT       0.417000       1.00800           0
     15372 TIP3     964      TIP3     OH2      OT      -0.834000       15.9994           0
     15373 TIP3     964      TIP3     H1       HT       0.417000       1.00800           0
     15374 TIP3     964      TIP3     H2       HT       0.417000       1.00800           0
     15375 TIP3     965      TIP3     OH2      OT      -0.834000       15.9994           0
     15376 TIP3     965      TIP3     H1       HT       0.417000       1.00800           0
     15377 TIP3     965      TIP3     H2       HT       0.417000       1.00800           0
     15378 TIP3     966      TIP3     OH2      OT      -0.834000       15.9994           0
     15379 TIP3     966      TIP3     H1       HT       0.417000       1.00800           0
     15380 TIP3     966      TIP3     H2       HT       0.417000       1.00800           0
     15381 TIP3     967      TIP3     OH2      OT      -0.834000       15.9994           0
     15382 TIP3     967      TIP3     H1       HT       0.417000       1.00800           0
     15383 TIP3     967      TIP3     H2       HT       0.417000       1.00800           0
     15384 TIP3     968      TIP3     OH2      OT      -0.834000       15.9994           0
     15385 TIP3     968      TIP3     H1       HT       0.417000       1.00800           0
     15386 TIP3     968      TIP3     H2       HT       0.417000       1.00800           0
     15387 TIP3     969      TIP3     OH2      OT      -0.834000       15.9994           0
     15388 TIP3     969      TIP3     H1       HT       0.417000       1.00800           0
     15389 TIP3     969      TIP3     H2       HT       0.417000       1.00800           0
     15390 TIP3     970      TIP3     OH2      OT      -0.834000       15.9994           0
     15391 TIP3     970      TIP3     H1       HT       0.417000       1.00800           0
     15392 TIP3     970      TIP3     H2       HT       0.417000       1.00800           0
     15393 TIP3     971      TIP3     OH2      OT      -0.834000       15.9994           0
     15394 TIP3     971      TIP3     H1       HT       0.417000       1.00800           0
     15395 TIP3     971      TIP3     H2       HT       0.417000       1.00800           0
     15396 TIP3     972      TIP3     OH2      OT      -0.834000       15.9994           0
     15397 TIP3     972      TIP3     H1       HT       0.417000       1.00800           0
     15398 TIP3     972      TIP3     H2       HT       0.417000       1.00800           0
     15399 TIP3     973      TIP3     OH2      OT      -0.834000       15.9994           0
     15400 TIP3     973      TIP3     H1       HT       0.417000       1.00800           0
     15401 TIP3     973      TIP3     H2       HT       0.417000       1.00800           0
     15402 TIP3     974      TIP3     OH2      OT      -0.834000       15.9994           0
     15403 TIP3     974      TIP3     H1       HT       0.417000       1.00800           0
     15404 TIP3     974      TIP3     H2       HT       0.417000       1.00800           0
     15405 TIP3     975      TIP3     OH2      OT      -0.834000       15.9994           0
     15406 TIP3     975      TIP3     H1       HT       0.417000       1.00800           0
     15407 TIP3     975      TIP3     H2       HT       0.417000       1.00800           0
     15408 TIP3     976      TIP3     OH2      OT      -0.834000       15.9994           0
     15409 TIP3     976      TIP3     H1       HT       0.417000       1.00800           0
     15410 TIP3     976      TIP3     H2       HT       0.417000       1.00800           0
     15411 TIP3     977      TIP3     OH2      OT      -0.834000       15.9994           0
     15412 TIP3     977      TIP3     H1       HT       0.417000       1.00800           0
     15413 TIP3     977      TIP3     H2       HT       0.417000       1.00800           0
     15414 TIP3     978      TIP3     OH2      OT      -0.834000       15.9994           0
     15415 TIP3     978      TIP3     H1       HT       0.417000       1.00800           0
     15416 TIP3     978      TIP3     H2       HT       0.417000       1.00800           0
     15417 TIP3     979      TIP3     OH2      OT      -0.834000       15.9994           0
     15418 TIP3     979      TIP3     H1       HT       0.417000       1.00800           0
     15419 TIP3     979      TIP3     H2       HT       0.417000       1.00800           0
     15420 TIP3     980      TIP3     OH2      OT      -0.834000       15.9994           0
     15421 TIP3     980      TIP3     H1       HT       0.417000       1.00800           0
     15422 TIP3     980      TIP3     H2       HT       0.417000       1.00800           0
     15423 TIP3     981      TIP3     OH2      OT      -0.834000       15.9994           0
     15424 TIP3     981      TIP3     H1       HT       0.417000       1.00800           0
     15425 TIP3     981      TIP3     H2       HT       0.417000       1.00800           0
     15426 TIP3     982      TIP3     OH2      OT      -0.834000       15.9994           0
     15427 TIP3     982      TIP3     H1       HT       0.417000       1.00800           0
     15428 TIP3     982      TIP3     H2       HT       0.417000       1.00800           0
     15429 TIP3     983      TIP3     OH2      OT      -0.834000       15.9994           0
     15430 TIP3     983      TIP3     H1       HT       0.417000       1.00800           0
     15431 TIP3     983      TIP3     H2       HT       0.417000       1.00800           0
     15432 TIP3     984      TIP3     OH2      OT      -0.834000       15.9994           0
     15433 TIP3     984      TIP3     H1       HT       0.417000       1.00800           0
     15434 TIP3     984      TIP3     H2       HT       0.417000       1.00800           0
     15435 TIP3     985      TIP3     OH2      OT      -0.834000       15.9994           0
     15436 TIP3     985      TIP3     H1       HT       0.417000       1.00800           0
     15437 TIP3     985      TIP3     H2       HT       0.417000       1.00800           0
     15438 TIP3     986      TIP3     OH2      OT      -0.834000       15.9994           0
     15439 TIP3     986      TIP3     H1       HT       0.417000       1.00800           0
     15440 TIP3     986      TIP3     H2       HT       0.417000       1.00800           0
     15441 TIP3     987      TIP3     OH2      OT      -0.834000       15.9994           0
     15442 TIP3     987      TIP3     H1       HT       0.417000       1.00800           0
     15443 TIP3     987      TIP3     H2       HT       0.417000       1.00800           0
     15444 TIP3     988      TIP3     OH2      OT      -0.834000       15.9994           0
     15445 TIP3     988      TIP3     H1       HT       0.417000       1.00800           0
     15446 TIP3     988      TIP3     H2       HT       0.417000       1.00800           0
     15447 TIP3     989      TIP3     OH2      OT      -0.834000       15.9994           0
     15448 TIP3     989      TIP3     H1       HT       0.417000       1.00800           0
     15449 TIP3     989      TIP3     H2       HT       0.417000       1.00800           0
     15450 TIP3     990      TIP3     OH2      OT      -0.834000       15.9994           0
     15451 TIP3     990      TIP3     H1       HT       0.417000       1.00800           0
     15452 TIP3     990      TIP3     H2       HT       0.417000       1.00800           0
     15453 TIP3     991      TIP3     OH2      OT      -0.834000       15.9994           0
     15454 TIP3     991      TIP3     H1       HT       0.417000       1.00800           0
     15455 TIP3     991      TIP3     H2       HT       0.417000       1.00800           0
     15456 TIP3     992      TIP3     OH2      OT      -0.834000       15.9994           0
     15457 TIP3     992      TIP3     H1       HT       0.417000       1.00800           0
     15458 TIP3     992      TIP3     H2       HT       0.417000       1.00800           0
     15459 TIP3     993      TIP3     OH2      OT      -0.834000       15.9994           0
     15460 TIP3     993      TIP3     H1       HT       0.417000       1.00800           0
     15461 TIP3     993      TIP3     H2       HT       0.417000       1.00800           0
     15462 TIP3     994      TIP3     OH2      OT      -0.834000       15.9994           0
     15463 TIP3     994      TIP3     H1       HT       0.417000       1.00800           0
     15464 TIP3     994      TIP3     H2       HT       0.417000       1.00800           0
     15465 TIP3     995      TIP3     OH2      OT      -0.834000       15.9994           0
     15466 TIP3     995      TIP3     H1       HT       0.417000       1.00800           0
     15467 TIP3     995      TIP3     H2       HT       0.417000       1.00800           0
     15468 TIP3     996      TIP3     OH2      OT      -0.834000       15.9994           0
     15469 TIP3     996      TIP3     H1       HT       0.417000       1.00800           0
     15470 TIP3     996      TIP3     H2       HT       0.417000       1.00800           0
     15471 TIP3     997      TIP3     OH2      OT      -0.834000       15.9994           0
     15472 TIP3     997      TIP3     H1       HT       0.417000       1.00800           0
     15473 TIP3     997      TIP3     H2       HT       0.417000       1.00800           0
     15474 TIP3     998      TIP3     OH2      OT      -0.834000       15.9994           0
     15475 TIP3     998      TIP3     H1       HT       0.417000       1.00800           0
     15476 TIP3     998      TIP3     H2       HT       0.417000       1.00800           0
     15477 TIP3     999      TIP3     OH2      OT      -0.834000       15.9994           0
     15478 TIP3     999      TIP3     H1       HT       0.417000       1.00800           0
     15479 TIP3     999      TIP3     H2       HT       0.417000       1.00800           0
     15480 TIP3     1000     TIP3     OH2      OT      -0.834000       15.9994           0
     15481 TIP3     1000     TIP3     H1       HT       0.417000       1.00800           0
     15482 TIP3     1000     TIP3     H2       HT       0.417000       1.00800           0
     15483 TIP3     1001     TIP3     OH2      OT      -0.834000       15.9994           0
     15484 TIP3     1001     TIP3     H1       HT       0.417000       1.00800           0
     15485 TIP3     1001     TIP3     H2       HT       0.417000       1.00800           0
     15486 TIP3     1002     TIP3     OH2      OT      -0.834000       15.9994           0
     15487 TIP3     1002     TIP3     H1       HT       0.417000       1.00800           0
     15488 TIP3     1002     TIP3     H2       HT       0.417000       1.00800           0
     15489 TIP3     1003     TIP3     OH2      OT      -0.834000       15.9994           0
     15490 TIP3     1003     TIP3     H1       HT       0.417000       1.00800           0
     15491 TIP3     1003     TIP3     H2       HT       0.417000       1.00800           0
     15492 TIP3     1004     TIP3     OH2      OT      -0.834000       15.9994           0
     15493 TIP3     1004     TIP3     H1       HT       0.417000       1.00800           0
     15494 TIP3     1004     TIP3     H2       HT       0.417000       1.00800           0
     15495 TIP3     1005     TIP3     OH2      OT      -0.834000       15.9994           0
     15496 TIP3     1005     TIP3     H1       HT       0.417000       1.00800           0
     15497 TIP3     1005     TIP3     H2       HT       0.417000       1.00800           0
     15498 TIP3     1006     TIP3     OH2      OT      -0.834000       15.9994           0
     15499 TIP3     1006     TIP3     H1       HT       0.417000       1.00800           0
     15500 TIP3     1006     TIP3     H2       HT       0.417000       1.00800           0
     15501 TIP3     1007     TIP3     OH2      OT      -0.834000       15.9994           0
     15502 TIP3     1007     TIP3     H1       HT       0.417000       1.00800           0
     15503 TIP3     1007     TIP3     H2       HT       0.417000       1.00800           0
     15504 TIP3     1008     TIP3     OH2      OT      -0.834000       15.9994           0
     15505 TIP3     1008     TIP3     H1       HT       0.417000       1.00800           0
     15506 TIP3     1008     TIP3     H2       HT       0.417000       1.00800           0
     15507 TIP3     1009     TIP3     OH2      OT      -0.834000       15.9994           0
     15508 TIP3     1009     TIP3     H1       HT       0.417000       1.00800           0
     15509 TIP3     1009     TIP3     H2       HT       0.417000       1.00800           0
     15510 TIP3     1010     TIP3     OH2      OT      -0.834000       15.9994           0
     15511 TIP3     1010     TIP3     H1       HT       0.417000       1.00800           0
     15512 TIP3     1010     TIP3     H2       HT       0.417000       1.00800           0
     15513 TIP3     1011     TIP3     OH2      OT      -0.834000       15.9994           0
     15514 TIP3     1011     TIP3     H1       HT       0.417000       1.00800           0
     15515 TIP3     1011     TIP3     H2       HT       0.417000       1.00800           0
     15516 TIP3     1012     TIP3     OH2      OT      -0.834000       15.9994           0
     15517 TIP3     1012     TIP3     H1       HT       0.417000       1.00800           0
     15518 TIP3     1012     TIP3     H2       HT       0.417000       1.00800           0
     15519 TIP3     1013     TIP3     OH2      OT      -0.834000       15.9994           0
     15520 TIP3     1013     TIP3     H1       HT       0.417000       1.00800           0
     15521 TIP3     1013     TIP3     H2       HT       0.417000       1.00800           0
     15522 TIP3     1014     TIP3     OH2      OT      -0.834000       15.9994           0
     15523 TIP3     1014     TIP3     H1       HT       0.417000       1.00800           0
     15524 TIP3     1014     TIP3     H2       HT       0.417000       1.00800           0
     15525 TIP3     1015     TIP3     OH2      OT      -0.834000       15.9994           0
     15526 TIP3     1015     TIP3     H1       HT       0.417000       1.00800           0
     15527 TIP3     1015     TIP3     H2       HT       0.417000       1.00800           0
     15528 TIP3     1016     TIP3     OH2      OT      -0.834000       15.9994           0
     15529 TIP3     1016     TIP3     H1       HT       0.417000       1.00800           0
     15530 TIP3     1016     TIP3     H2       HT       0.417000       1.00800           0
     15531 TIP3     1017     TIP3     OH2      OT      -0.834000       15.9994           0
     15532 TIP3     1017     TIP3     H1       HT       0.417000       1.00800           0
     15533 TIP3     1017     TIP3     H2       HT       0.417000       1.00800           0
     15534 TIP3     1018     TIP3     OH2      OT      -0.834000       15.9994           0
     15535 TIP3     1018     TIP3     H1       HT       0.417000       1.00800           0
     15536 TIP3     1018     TIP3     H2       HT       0.417000       1.00800           0
     15537 TIP3     1019     TIP3     OH2      OT      -0.834000       15.9994           0
     15538 TIP3     1019     TIP3     H1       HT       0.417000       1.00800           0
     15539 TIP3     1019     TIP3     H2       HT       0.417000       1.00800           0
     15540 TIP3     1020     TIP3     OH2      OT      -0.834000       15.9994           0
     15541 TIP3     1020     TIP3     H1       HT       0.417000       1.00800           0
     15542 TIP3     1020     TIP3     H2       HT       0.417000       1.00800           0
     15543 TIP3     1021     TIP3     OH2      OT      -0.834000       15.9994           0
     15544 TIP3     1021     TIP3     H1       HT       0.417000       1.00800           0
     15545 TIP3     1021     TIP3     H2       HT       0.417000       1.00800           0
     15546 TIP3     1022     TIP3     OH2      OT      -0.834000       15.9994           0
     15547 TIP3     1022     TIP3     H1       HT       0.417000       1.00800           0
     15548 TIP3     1022     TIP3     H2       HT       0.417000       1.00800           0
     15549 TIP3     1023     TIP3     OH2      OT      -0.834000       15.9994           0
     15550 TIP3     1023     TIP3     H1       HT       0.417000       1.00800           0
     15551 TIP3     1023     TIP3     H2       HT       0.417000       1.00800           0
     15552 TIP3     1024     TIP3     OH2      OT      -0.834000       15.9994           0
     15553 TIP3     1024     TIP3     H1       HT       0.417000       1.00800           0
     15554 TIP3     1024     TIP3     H2       HT       0.417000       1.00800           0
     15555 TIP3     1025     TIP3     OH2      OT      -0.834000       15.9994           0
     15556 TIP3     1025     TIP3     H1       HT       0.417000       1.00800           0
     15557 TIP3     1025     TIP3     H2       HT       0.417000       1.00800           0
     15558 TIP3     1026     TIP3     OH2      OT      -0.834000       15.9994           0
     15559 TIP3     1026     TIP3     H1       HT       0.417000       1.00800           0
     15560 TIP3     1026     TIP3     H2       HT       0.417000       1.00800           0
     15561 TIP3     1027     TIP3     OH2      OT      -0.834000       15.9994           0
     15562 TIP3     1027     TIP3     H1       HT       0.417000       1.00800           0
     15563 TIP3     1027     TIP3     H2       HT       0.417000       1.00800           0
     15564 TIP3     1028     TIP3     OH2      OT      -0.834000       15.9994           0
     15565 TIP3     1028     TIP3     H1       HT       0.417000       1.00800           0
     15566 TIP3     1028     TIP3     H2       HT       0.417000       1.00800           0
     15567 TIP3     1029     TIP3     OH2      OT      -0.834000       15.9994           0
     15568 TIP3     1029     TIP3     H1       HT       0.417000       1.00800           0
     15569 TIP3     1029     TIP3     H2       HT       0.417000       1.00800           0
     15570 TIP3     1030     TIP3     OH2      OT      -0.834000       15.9994           0
     15571 TIP3     1030     TIP3     H1       HT       0.417000       1.00800           0
     15572 TIP3     1030     TIP3     H2       HT       0.417000       1.00800           0
     15573 TIP3     1031     TIP3     OH2      OT      -0.834000       15.9994           0
     15574 TIP3     1031     TIP3     H1       HT       0.417000       1.00800           0
     15575 TIP3     1031     TIP3     H2       HT       0.417000       1.00800           0
     15576 TIP3     1032     TIP3     OH2      OT      -0.834000       15.9994           0
     15577 TIP3     1032     TIP3     H1       HT       0.417000       1.00800           0
     15578 TIP3     1032     TIP3     H2       HT       0.417000       1.00800           0
     15579 TIP3     1033     TIP3     OH2      OT      -0.834000       15.9994           0
     15580 TIP3     1033     TIP3     H1       HT       0.417000       1.00800           0
     15581 TIP3     1033     TIP3     H2       HT       0.417000       1.00800           0
     15582 TIP3     1034     TIP3     OH2      OT      -0.834000       15.9994           0
     15583 TIP3     1034     TIP3     H1       HT       0.417000       1.00800           0
     15584 TIP3     1034     TIP3     H2       HT       0.417000       1.00800           0
     15585 TIP3     1035     TIP3     OH2      OT      -0.834000       15.9994           0
     15586 TIP3     1035     TIP3     H1       HT       0.417000       1.00800           0
     15587 TIP3     1035     TIP3     H2       HT       0.417000       1.00800           0
     15588 TIP3     1036     TIP3     OH2      OT      -0.834000       15.9994           0
     15589 TIP3     1036     TIP3     H1       HT       0.417000       1.00800           0
     15590 TIP3     1036     TIP3     H2       HT       0.417000       1.00800           0
     15591 TIP3     1037     TIP3     OH2      OT      -0.834000       15.9994           0
     15592 TIP3     1037     TIP3     H1       HT       0.417000       1.00800           0
     15593 TIP3     1037     TIP3     H2       HT       0.417000       1.00800           0
     15594 TIP3     1038     TIP3     OH2      OT      -0.834000       15.9994           0
     15595 TIP3     1038     TIP3     H1       HT       0.417000       1.00800           0
     15596 TIP3     1038     TIP3     H2       HT       0.417000       1.00800           0
     15597 TIP3     1039     TIP3     OH2      OT      -0.834000       15.9994           0
     15598 TIP3     1039     TIP3     H1       HT       0.417000       1.00800           0
     15599 TIP3     1039     TIP3     H2       HT       0.417000       1.00800           0
     15600 TIP3     1040     TIP3     OH2      OT      -0.834000       15.9994           0
     15601 TIP3     1040     TIP3     H1       HT       0.417000       1.00800           0
     15602 TIP3     1040     TIP3     H2       HT       0.417000       1.00800           0
     15603 TIP3     1041     TIP3     OH2      OT      -0.834000       15.9994           0
     15604 TIP3     1041     TIP3     H1       HT       0.417000       1.00800           0
     15605 TIP3     1041     TIP3     H2       HT       0.417000       1.00800           0
     15606 TIP3     1042     TIP3     OH2      OT      -0.834000       15.9994           0
     15607 TIP3     1042     TIP3     H1       HT       0.417000       1.00800           0
     15608 TIP3     1042     TIP3     H2       HT       0.417000       1.00800           0
     15609 TIP3     1043     TIP3     OH2      OT      -0.834000       15.9994           0
     15610 TIP3     1043     TIP3     H1       HT       0.417000       1.00800           0
     15611 TIP3     1043     TIP3     H2       HT       0.417000       1.00800           0
     15612 TIP3     1044     TIP3     OH2      OT      -0.834000       15.9994           0
     15613 TIP3     1044     TIP3     H1       HT       0.417000       1.00800           0
     15614 TIP3     1044     TIP3     H2       HT       0.417000       1.00800           0
     15615 TIP3     1045     TIP3     OH2      OT      -0.834000       15.9994           0
     15616 TIP3     1045     TIP3     H1       HT       0.417000       1.00800           0
     15617 TIP3     1045     TIP3     H2       HT       0.417000       1.00800           0
     15618 TIP3     1046     TIP3     OH2      OT      -0.834000       15.9994           0
     15619 TIP3     1046     TIP3     H1       HT       0.417000       1.00800           0
     15620 TIP3     1046     TIP3     H2       HT       0.417000       1.00800           0
     15621 TIP3     1047     TIP3     OH2      OT      -0.834000       15.9994           0
     15622 TIP3     1047     TIP3     H1       HT       0.417000       1.00800           0
     15623 TIP3     1047     TIP3     H2       HT       0.417000       1.00800           0
     15624 TIP3     1048     TIP3     OH2      OT      -0.834000       15.9994           0
     15625 TIP3     1048     TIP3     H1       HT       0.417000       1.00800           0
     15626 TIP3     1048     TIP3     H2       HT       0.417000       1.00800           0
     15627 TIP3     1049     TIP3     OH2      OT      -0.834000       15.9994           0
     15628 TIP3     1049     TIP3     H1       HT       0.417000       1.00800           0
     15629 TIP3     1049     TIP3     H2       HT       0.417000       1.00800           0
     15630 TIP3     1050     TIP3     OH2      OT      -0.834000       15.9994           0
     15631 TIP3     1050     TIP3     H1       HT       0.417000       1.00800           0
     15632 TIP3     1050     TIP3     H2       HT       0.417000       1.00800           0
     15633 TIP3     1051     TIP3     OH2      OT      -0.834000       15.9994           0
     15634 TIP3     1051     TIP3     H1       HT       0.417000       1.00800           0
     15635 TIP3     1051     TIP3     H2       HT       0.417000       1.00800           0
     15636 TIP3     1052     TIP3     OH2      OT      -0.834000       15.9994           0
     15637 TIP3     1052     TIP3     H1       HT       0.417000       1.00800           0
     15638 TIP3     1052     TIP3     H2       HT       0.417000       1.00800           0
     15639 TIP3     1053     TIP3     OH2      OT      -0.834000       15.9994           0
     15640 TIP3     1053     TIP3     H1       HT       0.417000       1.00800           0
     15641 TIP3     1053     TIP3     H2       HT       0.417000       1.00800           0
     15642 TIP3     1054     TIP3     OH2      OT      -0.834000       15.9994           0
     15643 TIP3     1054     TIP3     H1       HT       0.417000       1.00800           0
     15644 TIP3     1054     TIP3     H2       HT       0.417000       1.00800           0
     15645 TIP3     1055     TIP3     OH2      OT      -0.834000       15.9994           0
     15646 TIP3     1055     TIP3     H1       HT       0.417000       1.00800           0
     15647 TIP3     1055     TIP3     H2       HT       0.417000       1.00800           0
     15648 TIP3     1056     TIP3     OH2      OT      -0.834000       15.9994           0
     15649 TIP3     1056     TIP3     H1       HT       0.417000       1.00800           0
     15650 TIP3     1056     TIP3     H2       HT       0.417000       1.00800           0
     15651 TIP3     1057     TIP3     OH2      OT      -0.834000       15.9994           0
     15652 TIP3     1057     TIP3     H1       HT       0.417000       1.00800           0
     15653 TIP3     1057     TIP3     H2       HT       0.417000       1.00800           0
     15654 TIP3     1058     TIP3     OH2      OT      -0.834000       15.9994           0
     15655 TIP3     1058     TIP3     H1       HT       0.417000       1.00800           0
     15656 TIP3     1058     TIP3     H2       HT       0.417000       1.00800           0
     15657 TIP3     1059     TIP3     OH2      OT      -0.834000       15.9994           0
     15658 TIP3     1059     TIP3     H1       HT       0.417000       1.00800           0
     15659 TIP3     1059     TIP3     H2       HT       0.417000       1.00800           0
     15660 TIP3     1060     TIP3     OH2      OT      -0.834000       15.9994           0
     15661 TIP3     1060     TIP3     H1       HT       0.417000       1.00800           0
     15662 TIP3     1060     TIP3     H2       HT       0.417000       1.00800           0
     15663 TIP3     1061     TIP3     OH2      OT      -0.834000       15.9994           0
     15664 TIP3     1061     TIP3     H1       HT       0.417000       1.00800           0
     15665 TIP3     1061     TIP3     H2       HT       0.417000       1.00800           0
     15666 TIP3     1062     TIP3     OH2      OT      -0.834000       15.9994           0
     15667 TIP3     1062     TIP3     H1       HT       0.417000       1.00800           0
     15668 TIP3     1062     TIP3     H2       HT       0.417000       1.00800           0
     15669 TIP3     1063     TIP3     OH2      OT      -0.834000       15.9994           0
     15670 TIP3     1063     TIP3     H1       HT       0.417000       1.00800           0
     15671 TIP3     1063     TIP3     H2       HT       0.417000       1.00800           0
     15672 TIP3     1064     TIP3     OH2      OT      -0.834000       15.9994           0
     15673 TIP3     1064     TIP3     H1       HT       0.417000       1.00800           0
     15674 TIP3     1064     TIP3     H2       HT       0.417000       1.00800           0
     15675 TIP3     1065     TIP3     OH2      OT      -0.834000       15.9994           0
     15676 TIP3     1065     TIP3     H1       HT       0.417000       1.00800           0
     15677 TIP3     1065     TIP3     H2       HT       0.417000       1.00800           0
     15678 TIP3     1066     TIP3     OH2      OT      -0.834000       15.9994           0
     15679 TIP3     1066     TIP3     H1       HT       0.417000       1.00800           0
     15680 TIP3     1066     TIP3     H2       HT       0.417000       1.00800           0
     15681 TIP3     1067     TIP3     OH2      OT      -0.834000       15.9994           0
     15682 TIP3     1067     TIP3     H1       HT       0.417000       1.00800           0
     15683 TIP3     1067     TIP3     H2       HT       0.417000       1.00800           0
     15684 TIP3     1068     TIP3     OH2      OT      -0.834000       15.9994           0
     15685 TIP3     1068     TIP3     H1       HT       0.417000       1.00800           0
     15686 TIP3     1068     TIP3     H2       HT       0.417000       1.00800           0
     15687 TIP3     1069     TIP3     OH2      OT      -0.834000       15.9994           0
     15688 TIP3     1069     TIP3     H1       HT       0.417000       1.00800           0
     15689 TIP3     1069     TIP3     H2       HT       0.417000       1.00800           0
     15690 TIP3     1070     TIP3     OH2      OT      -0.834000       15.9994           0
     15691 TIP3     1070     TIP3     H1       HT       0.417000       1.00800           0
     15692 TIP3     1070     TIP3     H2       HT       0.417000       1.00800           0
     15693 TIP3     1071     TIP3     OH2      OT      -0.834000       15.9994           0
     15694 TIP3     1071     TIP3     H1       HT       0.417000       1.00800           0
     15695 TIP3     1071     TIP3     H2       HT       0.417000       1.00800           0
     15696 TIP3     1072     TIP3     OH2      OT      -0.834000       15.9994           0
     15697 TIP3     1072     TIP3     H1       HT       0.417000       1.00800           0
     15698 TIP3     1072     TIP3     H2       HT       0.417000       1.00800           0
     15699 TIP3     1073     TIP3     OH2      OT      -0.834000       15.9994           0
     15700 TIP3     1073     TIP3     H1       HT       0.417000       1.00800           0
     15701 TIP3     1073     TIP3     H2       HT       0.417000       1.00800           0
     15702 TIP3     1074     TIP3     OH2      OT      -0.834000       15.9994           0
     15703 TIP3     1074     TIP3     H1       HT       0.417000       1.00800           0
     15704 TIP3     1074     TIP3     H2       HT       0.417000       1.00800           0
     15705 TIP3     1075     TIP3     OH2      OT      -0.834000       15.9994           0
     15706 TIP3     1075     TIP3     H1       HT       0.417000       1.00800           0
     15707 TIP3     1075     TIP3     H2       HT       0.417000       1.00800           0
     15708 TIP3     1076     TIP3     OH2      OT      -0.834000       15.9994           0
     15709 TIP3     1076     TIP3     H1       HT       0.417000       1.00800           0
     15710 TIP3     1076     TIP3     H2       HT       0.417000       1.00800           0
     15711 TIP3     1077     TIP3     OH2      OT      -0.834000       15.9994           0
     15712 TIP3     1077     TIP3     H1       HT       0.417000       1.00800           0
     15713 TIP3     1077     TIP3     H2       HT       0.417000       1.00800           0
     15714 TIP3     1078     TIP3     OH2      OT      -0.834000       15.9994           0
     15715 TIP3     1078     TIP3     H1       HT       0.417000       1.00800           0
     15716 TIP3     1078     TIP3     H2       HT       0.417000       1.00800           0
     15717 TIP3     1079     TIP3     OH2      OT      -0.834000       15.9994           0
     15718 TIP3     1079     TIP3     H1       HT       0.417000       1.00800           0
     15719 TIP3     1079     TIP3     H2       HT       0.417000       1.00800           0
     15720 TIP3     1080     TIP3     OH2      OT      -0.834000       15.9994           0
     15721 TIP3     1080     TIP3     H1       HT       0.417000       1.00800           0
     15722 TIP3     1080     TIP3     H2       HT       0.417000       1.00800           0
     15723 TIP3     1081     TIP3     OH2      OT      -0.834000       15.9994           0
     15724 TIP3     1081     TIP3     H1       HT       0.417000       1.00800           0
     15725 TIP3     1081     TIP3     H2       HT       0.417000       1.00800           0
     15726 TIP3     1082     TIP3     OH2      OT      -0.834000       15.9994           0
     15727 TIP3     1082     TIP3     H1       HT       0.417000       1.00800           0
     15728 TIP3     1082     TIP3     H2       HT       0.417000       1.00800           0
     15729 TIP3     1083     TIP3     OH2      OT      -0.834000       15.9994           0
     15730 TIP3     1083     TIP3     H1       HT       0.417000       1.00800           0
     15731 TIP3     1083     TIP3     H2       HT       0.417000       1.00800           0
     15732 TIP3     1084     TIP3     OH2      OT      -0.834000       15.9994           0
     15733 TIP3     1084     TIP3     H1       HT       0.417000       1.00800           0
     15734 TIP3     1084     TIP3     H2       HT       0.417000       1.00800           0
     15735 TIP3     1085     TIP3     OH2      OT      -0.834000       15.9994           0
     15736 TIP3     1085     TIP3     H1       HT       0.417000       1.00800           0
     15737 TIP3     1085     TIP3     H2       HT       0.417000       1.00800           0
     15738 TIP3     1086     TIP3     OH2      OT      -0.834000       15.9994           0
     15739 TIP3     1086     TIP3     H1       HT       0.417000       1.00800           0
     15740 TIP3     1086     TIP3     H2       HT       0.417000       1.00800           0
     15741 TIP3     1087     TIP3     OH2      OT      -0.834000       15.9994           0
     15742 TIP3     1087     TIP3     H1       HT       0.417000       1.00800           0
     15743 TIP3     1087     TIP3     H2       HT       0.417000       1.00800           0
     15744 TIP3     1088     TIP3     OH2      OT      -0.834000       15.9994           0
     15745 TIP3     1088     TIP3     H1       HT       0.417000       1.00800           0
     15746 TIP3     1088     TIP3     H2       HT       0.417000       1.00800           0
     15747 TIP3     1089     TIP3     OH2      OT      -0.834000       15.9994           0
     15748 TIP3     1089     TIP3     H1       HT       0.417000       1.00800           0
     15749 TIP3     1089     TIP3     H2       HT       0.417000       1.00800           0
     15750 TIP3     1090     TIP3     OH2      OT      -0.834000       15.9994           0
     15751 TIP3     1090     TIP3     H1       HT       0.417000       1.00800           0
     15752 TIP3     1090     TIP3     H2       HT       0.417000       1.00800           0
     15753 TIP3     1091     TIP3     OH2      OT      -0.834000       15.9994           0
     15754 TIP3     1091     TIP3     H1       HT       0.417000       1.00800           0
     15755 TIP3     1091     TIP3     H2       HT       0.417000       1.00800           0
     15756 TIP3     1092     TIP3     OH2      OT      -0.834000       15.9994           0
     15757 TIP3     1092     TIP3     H1       HT       0.417000       1.00800           0
     15758 TIP3     1092     TIP3     H2       HT       0.417000       1.00800           0
     15759 TIP3     1093     TIP3     OH2      OT      -0.834000       15.9994           0
     15760 TIP3     1093     TIP3     H1       HT       0.417000       1.00800           0
     15761 TIP3     1093     TIP3     H2       HT       0.417000       1.00800           0
     15762 TIP3     1094     TIP3     OH2      OT      -0.834000       15.9994           0
     15763 TIP3     1094     TIP3     H1       HT       0.417000       1.00800           0
     15764 TIP3     1094     TIP3     H2       HT       0.417000       1.00800           0
     15765 TIP3     1095     TIP3     OH2      OT      -0.834000       15.9994           0
     15766 TIP3     1095     TIP3     H1       HT       0.417000       1.00800           0
     15767 TIP3     1095     TIP3     H2       HT       0.417000       1.00800           0
     15768 TIP3     1096     TIP3     OH2      OT      -0.834000       15.9994           0
     15769 TIP3     1096     TIP3     H1       HT       0.417000       1.00800           0
     15770 TIP3     1096     TIP3     H2       HT       0.417000       1.00800           0
     15771 TIP3     1097     TIP3     OH2      OT      -0.834000       15.9994           0
     15772 TIP3     1097     TIP3     H1       HT       0.417000       1.00800           0
     15773 TIP3     1097     TIP3     H2       HT       0.417000       1.00800           0
     15774 TIP3     1098     TIP3     OH2      OT      -0.834000       15.9994           0
     15775 TIP3     1098     TIP3     H1       HT       0.417000       1.00800           0
     15776 TIP3     1098     TIP3     H2       HT       0.417000       1.00800           0
     15777 TIP3     1099     TIP3     OH2      OT      -0.834000       15.9994           0
     15778 TIP3     1099     TIP3     H1       HT       0.417000       1.00800           0
     15779 TIP3     1099     TIP3     H2       HT       0.417000       1.00800           0
     15780 TIP3     1100     TIP3     OH2      OT      -0.834000       15.9994           0
     15781 TIP3     1100     TIP3     H1       HT       0.417000       1.00800           0
     15782 TIP3     1100     TIP3     H2       HT       0.417000       1.00800           0
     15783 TIP3     1101     TIP3     OH2      OT      -0.834000       15.9994           0
     15784 TIP3     1101     TIP3     H1       HT       0.417000       1.00800           0
     15785 TIP3     1101     TIP3     H2       HT       0.417000       1.00800           0
     15786 TIP3     1102     TIP3     OH2      OT      -0.834000       15.9994           0
     15787 TIP3     1102     TIP3     H1       HT       0.417000       1.00800           0
     15788 TIP3     1102     TIP3     H2       HT       0.417000       1.00800           0
     15789 TIP3     1103     TIP3     OH2      OT      -0.834000       15.9994           0
     15790 TIP3     1103     TIP3     H1       HT       0.417000       1.00800           0
     15791 TIP3     1103     TIP3     H2       HT       0.417000       1.00800           0
     15792 TIP3     1104     TIP3     OH2      OT      -0.834000       15.9994           0
     15793 TIP3     1104     TIP3     H1       HT       0.417000       1.00800           0
     15794 TIP3     1104     TIP3     H2       HT       0.417000       1.00800           0
     15795 TIP3     1105     TIP3     OH2      OT      -0.834000       15.9994           0
     15796 TIP3     1105     TIP3     H1       HT       0.417000       1.00800           0
     15797 TIP3     1105     TIP3     H2       HT       0.417000       1.00800           0
     15798 TIP3     1106     TIP3     OH2      OT      -0.834000       15.9994           0
     15799 TIP3     1106     TIP3     H1       HT       0.417000       1.00800           0
     15800 TIP3     1106     TIP3     H2       HT       0.417000       1.00800           0
     15801 TIP3     1107     TIP3     OH2      OT      -0.834000       15.9994           0
     15802 TIP3     1107     TIP3     H1       HT       0.417000       1.00800           0
     15803 TIP3     1107     TIP3     H2       HT       0.417000       1.00800           0
     15804 TIP3     1108     TIP3     OH2      OT      -0.834000       15.9994           0
     15805 TIP3     1108     TIP3     H1       HT       0.417000       1.00800           0
     15806 TIP3     1108     TIP3     H2       HT       0.417000       1.00800           0
     15807 TIP3     1109     TIP3     OH2      OT      -0.834000       15.9994           0
     15808 TIP3     1109     TIP3     H1       HT       0.417000       1.00800           0
     15809 TIP3     1109     TIP3     H2       HT       0.417000       1.00800           0
     15810 TIP3     1110     TIP3     OH2      OT      -0.834000       15.9994           0
     15811 TIP3     1110     TIP3     H1       HT       0.417000       1.00800           0
     15812 TIP3     1110     TIP3     H2       HT       0.417000       1.00800           0
     15813 TIP3     1111     TIP3     OH2      OT      -0.834000       15.9994           0
     15814 TIP3     1111     TIP3     H1       HT       0.417000       1.00800           0
     15815 TIP3     1111     TIP3     H2       HT       0.417000       1.00800           0
     15816 TIP3     1112     TIP3     OH2      OT      -0.834000       15.9994           0
     15817 TIP3     1112     TIP3     H1       HT       0.417000       1.00800           0
     15818 TIP3     1112     TIP3     H2       HT       0.417000       1.00800           0
     15819 TIP3     1113     TIP3     OH2      OT      -0.834000       15.9994           0
     15820 TIP3     1113     TIP3     H1       HT       0.417000       1.00800           0
     15821 TIP3     1113     TIP3     H2       HT       0.417000       1.00800           0
     15822 TIP3     1114     TIP3     OH2      OT      -0.834000       15.9994           0
     15823 TIP3     1114     TIP3     H1       HT       0.417000       1.00800           0
     15824 TIP3     1114     TIP3     H2       HT       0.417000       1.00800           0
     15825 TIP3     1115     TIP3     OH2      OT      -0.834000       15.9994           0
     15826 TIP3     1115     TIP3     H1       HT       0.417000       1.00800           0
     15827 TIP3     1115     TIP3     H2       HT       0.417000       1.00800           0
     15828 TIP3     1116     TIP3     OH2      OT      -0.834000       15.9994           0
     15829 TIP3     1116     TIP3     H1       HT       0.417000       1.00800           0
     15830 TIP3     1116     TIP3     H2       HT       0.417000       1.00800           0
     15831 TIP3     1117     TIP3     OH2      OT      -0.834000       15.9994           0
     15832 TIP3     1117     TIP3     H1       HT       0.417000       1.00800           0
     15833 TIP3     1117     TIP3     H2       HT       0.417000       1.00800           0
     15834 TIP3     1118     TIP3     OH2      OT      -0.834000       15.9994           0
     15835 TIP3     1118     TIP3     H1       HT       0.417000       1.00800           0
     15836 TIP3     1118     TIP3     H2       HT       0.417000       1.00800           0
     15837 TIP3     1119     TIP3     OH2      OT      -0.834000       15.9994           0
     15838 TIP3     1119     TIP3     H1       HT       0.417000       1.00800           0
     15839 TIP3     1119     TIP3     H2       HT       0.417000       1.00800           0
     15840 TIP3     1120     TIP3     OH2      OT      -0.834000       15.9994           0
     15841 TIP3     1120     TIP3     H1       HT       0.417000       1.00800           0
     15842 TIP3     1120     TIP3     H2       HT       0.417000       1.00800           0
     15843 TIP3     1121     TIP3     OH2      OT      -0.834000       15.9994           0
     15844 TIP3     1121     TIP3     H1       HT       0.417000       1.00800           0
     15845 TIP3     1121     TIP3     H2       HT       0.417000       1.00800           0
     15846 TIP3     1122     TIP3     OH2      OT      -0.834000       15.9994           0
     15847 TIP3     1122     TIP3     H1       HT       0.417000       1.00800           0
     15848 TIP3     1122     TIP3     H2       HT       0.417000       1.00800           0
     15849 TIP3     1123     TIP3     OH2      OT      -0.834000       15.9994           0
     15850 TIP3     1123     TIP3     H1       HT       0.417000       1.00800           0
     15851 TIP3     1123     TIP3     H2       HT       0.417000       1.00800           0
     15852 TIP3     1124     TIP3     OH2      OT      -0.834000       15.9994           0
     15853 TIP3     1124     TIP3     H1       HT       0.417000       1.00800           0
     15854 TIP3     1124     TIP3     H2       HT       0.417000       1.00800           0
     15855 TIP3     1125     TIP3     OH2      OT      -0.834000       15.9994           0
     15856 TIP3     1125     TIP3     H1       HT       0.417000       1.00800           0
     15857 TIP3     1125     TIP3     H2       HT       0.417000       1.00800           0
     15858 TIP3     1126     TIP3     OH2      OT      -0.834000       15.9994           0
     15859 TIP3     1126     TIP3     H1       HT       0.417000       1.00800           0
     15860 TIP3     1126     TIP3     H2       HT       0.417000       1.00800           0
     15861 TIP3     1127     TIP3     OH2      OT      -0.834000       15.9994           0
     15862 TIP3     1127     TIP3     H1       HT       0.417000       1.00800           0
     15863 TIP3     1127     TIP3     H2       HT       0.417000       1.00800           0
     15864 TIP3     1128     TIP3     OH2      OT      -0.834000       15.9994           0
     15865 TIP3     1128     TIP3     H1       HT       0.417000       1.00800           0
     15866 TIP3     1128     TIP3     H2       HT       0.417000       1.00800           0
     15867 TIP3     1129     TIP3     OH2      OT      -0.834000       15.9994           0
     15868 TIP3     1129     TIP3     H1       HT       0.417000       1.00800           0
     15869 TIP3     1129     TIP3     H2       HT       0.417000       1.00800           0
     15870 TIP3     1130     TIP3     OH2      OT      -0.834000       15.9994           0
     15871 TIP3     1130     TIP3     H1       HT       0.417000       1.00800           0
     15872 TIP3     1130     TIP3     H2       HT       0.417000       1.00800           0
     15873 TIP3     1131     TIP3     OH2      OT      -0.834000       15.9994           0
     15874 TIP3     1131     TIP3     H1       HT       0.417000       1.00800           0
     15875 TIP3     1131     TIP3     H2       HT       0.417000       1.00800           0
     15876 TIP3     1132     TIP3     OH2      OT      -0.834000       15.9994           0
     15877 TIP3     1132     TIP3     H1       HT       0.417000       1.00800           0
     15878 TIP3     1132     TIP3     H2       HT       0.417000       1.00800           0
     15879 TIP3     1133     TIP3     OH2      OT      -0.834000       15.9994           0
     15880 TIP3     1133     TIP3     H1       HT       0.417000       1.00800           0
     15881 TIP3     1133     TIP3     H2       HT       0.417000       1.00800           0
     15882 TIP3     1134     TIP3     OH2      OT      -0.834000       15.9994           0
     15883 TIP3     1134     TIP3     H1       HT       0.417000       1.00800           0
     15884 TIP3     1134     TIP3     H2       HT       0.417000       1.00800           0
     15885 TIP3     1135     TIP3     OH2      OT      -0.834000       15.9994           0
     15886 TIP3     1135     TIP3     H1       HT       0.417000       1.00800           0
     15887 TIP3     1135     TIP3     H2       HT       0.417000       1.00800           0
     15888 TIP3     1136     TIP3     OH2      OT      -0.834000       15.9994           0
     15889 TIP3     1136     TIP3     H1       HT       0.417000       1.00800           0
     15890 TIP3     1136     TIP3     H2       HT       0.417000       1.00800           0
     15891 TIP3     1137     TIP3     OH2      OT      -0.834000       15.9994           0
     15892 TIP3     1137     TIP3     H1       HT       0.417000       1.00800           0
     15893 TIP3     1137     TIP3     H2       HT       0.417000       1.00800           0
     15894 TIP3     1138     TIP3     OH2      OT      -0.834000       15.9994           0
     15895 TIP3     1138     TIP3     H1       HT       0.417000       1.00800           0
     15896 TIP3     1138     TIP3     H2       HT       0.417000       1.00800           0
     15897 TIP3     1139     TIP3     OH2      OT      -0.834000       15.9994           0
     15898 TIP3     1139     TIP3     H1       HT       0.417000       1.00800           0
     15899 TIP3     1139     TIP3     H2       HT       0.417000       1.00800           0
     15900 TIP3     1140     TIP3     OH2      OT      -0.834000       15.9994           0
     15901 TIP3     1140     TIP3     H1       HT       0.417000       1.00800           0
     15902 TIP3     1140     TIP3     H2       HT       0.417000       1.00800           0
     15903 TIP3     1141     TIP3     OH2      OT      -0.834000       15.9994           0
     15904 TIP3     1141     TIP3     H1       HT       0.417000       1.00800           0
     15905 TIP3     1141     TIP3     H2       HT       0.417000       1.00800           0
     15906 TIP3     1142     TIP3     OH2      OT      -0.834000       15.9994           0
     15907 TIP3     1142     TIP3     H1       HT       0.417000       1.00800           0
     15908 TIP3     1142     TIP3     H2       HT       0.417000       1.00800           0
     15909 TIP3     1143     TIP3     OH2      OT      -0.834000       15.9994           0
     15910 TIP3     1143     TIP3     H1       HT       0.417000       1.00800           0
     15911 TIP3     1143     TIP3     H2       HT       0.417000       1.00800           0
     15912 TIP3     1144     TIP3     OH2      OT      -0.834000       15.9994           0
     15913 TIP3     1144     TIP3     H1       HT       0.417000       1.00800           0
     15914 TIP3     1144     TIP3     H2       HT       0.417000       1.00800           0
     15915 TIP3     1145     TIP3     OH2      OT      -0.834000       15.9994           0
     15916 TIP3     1145     TIP3     H1       HT       0.417000       1.00800           0
     15917 TIP3     1145     TIP3     H2       HT       0.417000       1.00800           0
     15918 TIP3     1146     TIP3     OH2      OT      -0.834000       15.9994           0
     15919 TIP3     1146     TIP3     H1       HT       0.417000       1.00800           0
     15920 TIP3     1146     TIP3     H2       HT       0.417000       1.00800           0
     15921 TIP3     1147     TIP3     OH2      OT      -0.834000       15.9994           0
     15922 TIP3     1147     TIP3     H1       HT       0.417000       1.00800           0
     15923 TIP3     1147     TIP3     H2       HT       0.417000       1.00800           0
     15924 TIP3     1148     TIP3     OH2      OT      -0.834000       15.9994           0
     15925 TIP3     1148     TIP3     H1       HT       0.417000       1.00800           0
     15926 TIP3     1148     TIP3     H2       HT       0.417000       1.00800           0
     15927 TIP3     1149     TIP3     OH2      OT      -0.834000       15.9994           0
     15928 TIP3     1149     TIP3     H1       HT       0.417000       1.00800           0
     15929 TIP3     1149     TIP3     H2       HT       0.417000       1.00800           0
     15930 TIP3     1150     TIP3     OH2      OT      -0.834000       15.9994           0
     15931 TIP3     1150     TIP3     H1       HT       0.417000       1.00800           0
     15932 TIP3     1150     TIP3     H2       HT       0.417000       1.00800           0
     15933 TIP3     1151     TIP3     OH2      OT      -0.834000       15.9994           0
     15934 TIP3     1151     TIP3     H1       HT       0.417000       1.00800           0
     15935 TIP3     1151     TIP3     H2       HT       0.417000       1.00800           0
     15936 TIP3     1152     TIP3     OH2      OT      -0.834000       15.9994           0
     15937 TIP3     1152     TIP3     H1       HT       0.417000       1.00800           0
     15938 TIP3     1152     TIP3     H2       HT       0.417000       1.00800           0
     15939 TIP3     1153     TIP3     OH2      OT      -0.834000       15.9994           0
     15940 TIP3     1153     TIP3     H1       HT       0.417000       1.00800           0
     15941 TIP3     1153     TIP3     H2       HT       0.417000       1.00800           0
     15942 TIP3     1154     TIP3     OH2      OT      -0.834000       15.9994           0
     15943 TIP3     1154     TIP3     H1       HT       0.417000       1.00800           0
     15944 TIP3     1154     TIP3     H2       HT       0.417000       1.00800           0
     15945 TIP3     1155     TIP3     OH2      OT      -0.834000       15.9994           0
     15946 TIP3     1155     TIP3     H1       HT       0.417000       1.00800           0
     15947 TIP3     1155     TIP3     H2       HT       0.417000       1.00800           0
     15948 TIP3     1156     TIP3     OH2      OT      -0.834000       15.9994           0
     15949 TIP3     1156     TIP3     H1       HT       0.417000       1.00800           0
     15950 TIP3     1156     TIP3     H2       HT       0.417000       1.00800           0
     15951 TIP3     1157     TIP3     OH2      OT      -0.834000       15.9994           0
     15952 TIP3     1157     TIP3     H1       HT       0.417000       1.00800           0
     15953 TIP3     1157     TIP3     H2       HT       0.417000       1.00800           0
     15954 TIP3     1158     TIP3     OH2      OT      -0.834000       15.9994           0
     15955 TIP3     1158     TIP3     H1       HT       0.417000       1.00800           0
     15956 TIP3     1158     TIP3     H2       HT       0.417000       1.00800           0
     15957 TIP3     1159     TIP3     OH2      OT      -0.834000       15.9994           0
     15958 TIP3     1159     TIP3     H1       HT       0.417000       1.00800           0
     15959 TIP3     1159     TIP3     H2       HT       0.417000       1.00800           0
     15960 TIP3     1160     TIP3     OH2      OT      -0.834000       15.9994           0
     15961 TIP3     1160     TIP3     H1       HT       0.417000       1.00800           0
     15962 TIP3     1160     TIP3     H2       HT       0.417000       1.00800           0
     15963 TIP3     1161     TIP3     OH2      OT      -0.834000       15.9994           0
     15964 TIP3     1161     TIP3     H1       HT       0.417000       1.00800           0
     15965 TIP3     1161     TIP3     H2       HT       0.417000       1.00800           0
     15966 TIP3     1162     TIP3     OH2      OT      -0.834000       15.9994           0
     15967 TIP3     1162     TIP3     H1       HT       0.417000       1.00800           0
     15968 TIP3     1162     TIP3     H2       HT       0.417000       1.00800           0
     15969 TIP3     1163     TIP3     OH2      OT      -0.834000       15.9994           0
     15970 TIP3     1163     TIP3     H1       HT       0.417000       1.00800           0
     15971 TIP3     1163     TIP3     H2       HT       0.417000       1.00800           0
     15972 TIP3     1164     TIP3     OH2      OT      -0.834000       15.9994           0
     15973 TIP3     1164     TIP3     H1       HT       0.417000       1.00800           0
     15974 TIP3     1164     TIP3     H2       HT       0.417000       1.00800           0
     15975 TIP3     1165     TIP3     OH2      OT      -0.834000       15.9994           0
     15976 TIP3     1165     TIP3     H1       HT       0.417000       1.00800           0
     15977 TIP3     1165     TIP3     H2       HT       0.417000       1.00800           0
     15978 TIP3     1166     TIP3     OH2      OT      -0.834000       15.9994           0
     15979 TIP3     1166     TIP3     H1       HT       0.417000       1.00800           0
     15980 TIP3     1166     TIP3     H2       HT       0.417000       1.00800           0
     15981 TIP3     1167     TIP3     OH2      OT      -0.834000       15.9994           0
     15982 TIP3     1167     TIP3     H1       HT       0.417000       1.00800           0
     15983 TIP3     1167     TIP3     H2       HT       0.417000       1.00800           0
     15984 TIP3     1168     TIP3     OH2      OT      -0.834000       15.9994           0
     15985 TIP3     1168     TIP3     H1       HT       0.417000       1.00800           0
     15986 TIP3     1168     TIP3     H2       HT       0.417000       1.00800           0
     15987 TIP3     1169     TIP3     OH2      OT      -0.834000       15.9994           0
     15988 TIP3     1169     TIP3     H1       HT       0.417000       1.00800           0
     15989 TIP3     1169     TIP3     H2       HT       0.417000       1.00800           0
     15990 TIP3     1170     TIP3     OH2      OT      -0.834000       15.9994           0
     15991 TIP3     1170     TIP3     H1       HT       0.417000       1.00800           0
     15992 TIP3     1170     TIP3     H2       HT       0.417000       1.00800           0
     15993 TIP3     1171     TIP3     OH2      OT      -0.834000       15.9994           0
     15994 TIP3     1171     TIP3     H1       HT       0.417000       1.00800           0
     15995 TIP3     1171     TIP3     H2       HT       0.417000       1.00800           0
     15996 TIP3     1172     TIP3     OH2      OT      -0.834000       15.9994           0
     15997 TIP3     1172     TIP3     H1       HT       0.417000       1.00800           0
     15998 TIP3     1172     TIP3     H2       HT       0.417000       1.00800           0
     15999 TIP3     1173     TIP3     OH2      OT      -0.834000       15.9994           0
     16000 TIP3     1173     TIP3     H1       HT       0.417000       1.00800           0
     16001 TIP3     1173     TIP3     H2       HT       0.417000       1.00800           0
     16002 TIP3     1174     TIP3     OH2      OT      -0.834000       15.9994           0
     16003 TIP3     1174     TIP3     H1       HT       0.417000       1.00800           0
     16004 TIP3     1174     TIP3     H2       HT       0.417000       1.00800           0
     16005 TIP3     1175     TIP3     OH2      OT      -0.834000       15.9994           0
     16006 TIP3     1175     TIP3     H1       HT       0.417000       1.00800           0
     16007 TIP3     1175     TIP3     H2       HT       0.417000       1.00800           0
     16008 TIP3     1176     TIP3     OH2      OT      -0.834000       15.9994           0
     16009 TIP3     1176     TIP3     H1       HT       0.417000       1.00800           0
     16010 TIP3     1176     TIP3     H2       HT       0.417000       1.00800           0
     16011 TIP3     1177     TIP3     OH2      OT      -0.834000       15.9994           0
     16012 TIP3     1177     TIP3     H1       HT       0.417000       1.00800           0
     16013 TIP3     1177     TIP3     H2       HT       0.417000       1.00800           0
     16014 TIP3     1178     TIP3     OH2      OT      -0.834000       15.9994           0
     16015 TIP3     1178     TIP3     H1       HT       0.417000       1.00800           0
     16016 TIP3     1178     TIP3     H2       HT       0.417000       1.00800           0
     16017 TIP3     1179     TIP3     OH2      OT      -0.834000       15.9994           0
     16018 TIP3     1179     TIP3     H1       HT       0.417000       1.00800           0
     16019 TIP3     1179     TIP3     H2       HT       0.417000       1.00800           0
     16020 TIP3     1180     TIP3     OH2      OT      -0.834000       15.9994           0
     16021 TIP3     1180     TIP3     H1       HT       0.417000       1.00800           0
     16022 TIP3     1180     TIP3     H2       HT       0.417000       1.00800           0
     16023 TIP3     1181     TIP3     OH2      OT      -0.834000       15.9994           0
     16024 TIP3     1181     TIP3     H1       HT       0.417000       1.00800           0
     16025 TIP3     1181     TIP3     H2       HT       0.417000       1.00800           0
     16026 TIP3     1182     TIP3     OH2      OT      -0.834000       15.9994           0
     16027 TIP3     1182     TIP3     H1       HT       0.417000       1.00800           0
     16028 TIP3     1182     TIP3     H2       HT       0.417000       1.00800           0
     16029 TIP3     1183     TIP3     OH2      OT      -0.834000       15.9994           0
     16030 TIP3     1183     TIP3     H1       HT       0.417000       1.00800           0
     16031 TIP3     1183     TIP3     H2       HT       0.417000       1.00800           0
     16032 TIP3     1184     TIP3     OH2      OT      -0.834000       15.9994           0
     16033 TIP3     1184     TIP3     H1       HT       0.417000       1.00800           0
     16034 TIP3     1184     TIP3     H2       HT       0.417000       1.00800           0
     16035 TIP3     1185     TIP3     OH2      OT      -0.834000       15.9994           0
     16036 TIP3     1185     TIP3     H1       HT       0.417000       1.00800           0
     16037 TIP3     1185     TIP3     H2       HT       0.417000       1.00800           0
     16038 TIP3     1186     TIP3     OH2      OT      -0.834000       15.9994           0
     16039 TIP3     1186     TIP3     H1       HT       0.417000       1.00800           0
     16040 TIP3     1186     TIP3     H2       HT       0.417000       1.00800           0
     16041 TIP3     1187     TIP3     OH2      OT      -0.834000       15.9994           0
     16042 TIP3     1187     TIP3     H1       HT       0.417000       1.00800           0
     16043 TIP3     1187     TIP3     H2       HT       0.417000       1.00800           0
     16044 TIP3     1188     TIP3     OH2      OT      -0.834000       15.9994           0
     16045 TIP3     1188     TIP3     H1       HT       0.417000       1.00800           0
     16046 TIP3     1188     TIP3     H2       HT       0.417000       1.00800           0
     16047 TIP3     1189     TIP3     OH2      OT      -0.834000       15.9994           0
     16048 TIP3     1189     TIP3     H1       HT       0.417000       1.00800           0
     16049 TIP3     1189     TIP3     H2       HT       0.417000       1.00800           0
     16050 TIP3     1190     TIP3     OH2      OT      -0.834000       15.9994           0
     16051 TIP3     1190     TIP3     H1       HT       0.417000       1.00800           0
     16052 TIP3     1190     TIP3     H2       HT       0.417000       1.00800           0
     16053 TIP3     1191     TIP3     OH2      OT      -0.834000       15.9994           0
     16054 TIP3     1191     TIP3     H1       HT       0.417000       1.00800           0
     16055 TIP3     1191     TIP3     H2       HT       0.417000       1.00800           0
     16056 TIP3     1192     TIP3     OH2      OT      -0.834000       15.9994           0
     16057 TIP3     1192     TIP3     H1       HT       0.417000       1.00800           0
     16058 TIP3     1192     TIP3     H2       HT       0.417000       1.00800           0
     16059 TIP3     1193     TIP3     OH2      OT      -0.834000       15.9994           0
     16060 TIP3     1193     TIP3     H1       HT       0.417000       1.00800           0
     16061 TIP3     1193     TIP3     H2       HT       0.417000       1.00800           0
     16062 TIP3     1194     TIP3     OH2      OT      -0.834000       15.9994           0
     16063 TIP3     1194     TIP3     H1       HT       0.417000       1.00800           0
     16064 TIP3     1194     TIP3     H2       HT       0.417000       1.00800           0
     16065 TIP3     1195     TIP3     OH2      OT      -0.834000       15.9994           0
     16066 TIP3     1195     TIP3     H1       HT       0.417000       1.00800           0
     16067 TIP3     1195     TIP3     H2       HT       0.417000       1.00800           0
     16068 TIP3     1196     TIP3     OH2      OT      -0.834000       15.9994           0
     16069 TIP3     1196     TIP3     H1       HT       0.417000       1.00800           0
     16070 TIP3     1196     TIP3     H2       HT       0.417000       1.00800           0
     16071 TIP3     1197     TIP3     OH2      OT      -0.834000       15.9994           0
     16072 TIP3     1197     TIP3     H1       HT       0.417000       1.00800           0
     16073 TIP3     1197     TIP3     H2       HT       0.417000       1.00800           0
     16074 TIP3     1198     TIP3     OH2      OT      -0.834000       15.9994           0
     16075 TIP3     1198     TIP3     H1       HT       0.417000       1.00800           0
     16076 TIP3     1198     TIP3     H2       HT       0.417000       1.00800           0
     16077 TIP3     1199     TIP3     OH2      OT      -0.834000       15.9994           0
     16078 TIP3     1199     TIP3     H1       HT       0.417000       1.00800           0
     16079 TIP3     1199     TIP3     H2       HT       0.417000       1.00800           0
     16080 TIP3     1200     TIP3     OH2      OT      -0.834000       15.9994           0
     16081 TIP3     1200     TIP3     H1       HT       0.417000       1.00800           0
     16082 TIP3     1200     TIP3     H2       HT       0.417000       1.00800           0
     16083 TIP3     1201     TIP3     OH2      OT      -0.834000       15.9994           0
     16084 TIP3     1201     TIP3     H1       HT       0.417000       1.00800           0
     16085 TIP3     1201     TIP3     H2       HT       0.417000       1.00800           0
     16086 TIP3     1202     TIP3     OH2      OT      -0.834000       15.9994           0
     16087 TIP3     1202     TIP3     H1       HT       0.417000       1.00800           0
     16088 TIP3     1202     TIP3     H2       HT       0.417000       1.00800           0
     16089 TIP3     1203     TIP3     OH2      OT      -0.834000       15.9994           0
     16090 TIP3     1203     TIP3     H1       HT       0.417000       1.00800           0
     16091 TIP3     1203     TIP3     H2       HT       0.417000       1.00800           0
     16092 TIP3     1204     TIP3     OH2      OT      -0.834000       15.9994           0
     16093 TIP3     1204     TIP3     H1       HT       0.417000       1.00800           0
     16094 TIP3     1204     TIP3     H2       HT       0.417000       1.00800           0
     16095 TIP3     1205     TIP3     OH2      OT      -0.834000       15.9994           0
     16096 TIP3     1205     TIP3     H1       HT       0.417000       1.00800           0
     16097 TIP3     1205     TIP3     H2       HT       0.417000       1.00800           0
     16098 TIP3     1206     TIP3     OH2      OT      -0.834000       15.9994           0
     16099 TIP3     1206     TIP3     H1       HT       0.417000       1.00800           0
     16100 TIP3     1206     TIP3     H2       HT       0.417000       1.00800           0
     16101 TIP3     1207     TIP3     OH2      OT      -0.834000       15.9994           0
     16102 TIP3     1207     TIP3     H1       HT       0.417000       1.00800           0
     16103 TIP3     1207     TIP3     H2       HT       0.417000       1.00800           0
     16104 TIP3     1208     TIP3     OH2      OT      -0.834000       15.9994           0
     16105 TIP3     1208     TIP3     H1       HT       0.417000       1.00800           0
     16106 TIP3     1208     TIP3     H2       HT       0.417000       1.00800           0
     16107 TIP3     1209     TIP3     OH2      OT      -0.834000       15.9994           0
     16108 TIP3     1209     TIP3     H1       HT       0.417000       1.00800           0
     16109 TIP3     1209     TIP3     H2       HT       0.417000       1.00800           0
     16110 TIP3     1210     TIP3     OH2      OT      -0.834000       15.9994           0
     16111 TIP3     1210     TIP3     H1       HT       0.417000       1.00800           0
     16112 TIP3     1210     TIP3     H2       HT       0.417000       1.00800           0
     16113 TIP3     1211     TIP3     OH2      OT      -0.834000       15.9994           0
     16114 TIP3     1211     TIP3     H1       HT       0.417000       1.00800           0
     16115 TIP3     1211     TIP3     H2       HT       0.417000       1.00800           0
     16116 TIP3     1212     TIP3     OH2      OT      -0.834000       15.9994           0
     16117 TIP3     1212     TIP3     H1       HT       0.417000       1.00800           0
     16118 TIP3     1212     TIP3     H2       HT       0.417000       1.00800           0
     16119 TIP3     1213     TIP3     OH2      OT      -0.834000       15.9994           0
     16120 TIP3     1213     TIP3     H1       HT       0.417000       1.00800           0
     16121 TIP3     1213     TIP3     H2       HT       0.417000       1.00800           0
     16122 TIP3     1214     TIP3     OH2      OT      -0.834000       15.9994           0
     16123 TIP3     1214     TIP3     H1       HT       0.417000       1.00800           0
     16124 TIP3     1214     TIP3     H2       HT       0.417000       1.00800           0
     16125 TIP3     1215     TIP3     OH2      OT      -0.834000       15.9994           0
     16126 TIP3     1215     TIP3     H1       HT       0.417000       1.00800           0
     16127 TIP3     1215     TIP3     H2       HT       0.417000       1.00800           0
     16128 TIP3     1216     TIP3     OH2      OT      -0.834000       15.9994           0
     16129 TIP3     1216     TIP3     H1       HT       0.417000       1.00800           0
     16130 TIP3     1216     TIP3     H2       HT       0.417000       1.00800           0
     16131 TIP3     1217     TIP3     OH2      OT      -0.834000       15.9994           0
     16132 TIP3     1217     TIP3     H1       HT       0.417000       1.00800           0
     16133 TIP3     1217     TIP3     H2       HT       0.417000       1.00800           0
     16134 TIP3     1218     TIP3     OH2      OT      -0.834000       15.9994           0
     16135 TIP3     1218     TIP3     H1       HT       0.417000       1.00800           0
     16136 TIP3     1218     TIP3     H2       HT       0.417000       1.00800           0
     16137 TIP3     1219     TIP3     OH2      OT      -0.834000       15.9994           0
     16138 TIP3     1219     TIP3     H1       HT       0.417000       1.00800           0
     16139 TIP3     1219     TIP3     H2       HT       0.417000       1.00800           0
     16140 TIP3     1220     TIP3     OH2      OT      -0.834000       15.9994           0
     16141 TIP3     1220     TIP3     H1       HT       0.417000       1.00800           0
     16142 TIP3     1220     TIP3     H2       HT       0.417000       1.00800           0
     16143 TIP3     1221     TIP3     OH2      OT      -0.834000       15.9994           0
     16144 TIP3     1221     TIP3     H1       HT       0.417000       1.00800           0
     16145 TIP3     1221     TIP3     H2       HT       0.417000       1.00800           0
     16146 TIP3     1222     TIP3     OH2      OT      -0.834000       15.9994           0
     16147 TIP3     1222     TIP3     H1       HT       0.417000       1.00800           0
     16148 TIP3     1222     TIP3     H2       HT       0.417000       1.00800           0
     16149 TIP3     1223     TIP3     OH2      OT      -0.834000       15.9994           0
     16150 TIP3     1223     TIP3     H1       HT       0.417000       1.00800           0
     16151 TIP3     1223     TIP3     H2       HT       0.417000       1.00800           0
     16152 TIP3     1224     TIP3     OH2      OT      -0.834000       15.9994           0
     16153 TIP3     1224     TIP3     H1       HT       0.417000       1.00800           0
     16154 TIP3     1224     TIP3     H2       HT       0.417000       1.00800           0
     16155 TIP3     1225     TIP3     OH2      OT      -0.834000       15.9994           0
     16156 TIP3     1225     TIP3     H1       HT       0.417000       1.00800           0
     16157 TIP3     1225     TIP3     H2       HT       0.417000       1.00800           0
     16158 TIP3     1226     TIP3     OH2      OT      -0.834000       15.9994           0
     16159 TIP3     1226     TIP3     H1       HT       0.417000       1.00800           0
     16160 TIP3     1226     TIP3     H2       HT       0.417000       1.00800           0
     16161 TIP3     1227     TIP3     OH2      OT      -0.834000       15.9994           0
     16162 TIP3     1227     TIP3     H1       HT       0.417000       1.00800           0
     16163 TIP3     1227     TIP3     H2       HT       0.417000       1.00800           0
     16164 TIP3     1228     TIP3     OH2      OT      -0.834000       15.9994           0
     16165 TIP3     1228     TIP3     H1       HT       0.417000       1.00800           0
     16166 TIP3     1228     TIP3     H2       HT       0.417000       1.00800           0
     16167 TIP3     1229     TIP3     OH2      OT      -0.834000       15.9994           0
     16168 TIP3     1229     TIP3     H1       HT       0.417000       1.00800           0
     16169 TIP3     1229     TIP3     H2       HT       0.417000       1.00800           0
     16170 TIP3     1230     TIP3     OH2      OT      -0.834000       15.9994           0
     16171 TIP3     1230     TIP3     H1       HT       0.417000       1.00800           0
     16172 TIP3     1230     TIP3     H2       HT       0.417000       1.00800           0
     16173 TIP3     1231     TIP3     OH2      OT      -0.834000       15.9994           0
     16174 TIP3     1231     TIP3     H1       HT       0.417000       1.00800           0
     16175 TIP3     1231     TIP3     H2       HT       0.417000       1.00800           0
     16176 TIP3     1232     TIP3     OH2      OT      -0.834000       15.9994           0
     16177 TIP3     1232     TIP3     H1       HT       0.417000       1.00800           0
     16178 TIP3     1232     TIP3     H2       HT       0.417000       1.00800           0
     16179 TIP3     1233     TIP3     OH2      OT      -0.834000       15.9994           0
     16180 TIP3     1233     TIP3     H1       HT       0.417000       1.00800           0
     16181 TIP3     1233     TIP3     H2       HT       0.417000       1.00800           0
     16182 TIP3     1234     TIP3     OH2      OT      -0.834000       15.9994           0
     16183 TIP3     1234     TIP3     H1       HT       0.417000       1.00800           0
     16184 TIP3     1234     TIP3     H2       HT       0.417000       1.00800           0
     16185 TIP3     1235     TIP3     OH2      OT      -0.834000       15.9994           0
     16186 TIP3     1235     TIP3     H1       HT       0.417000       1.00800           0
     16187 TIP3     1235     TIP3     H2       HT       0.417000       1.00800           0
     16188 TIP3     1236     TIP3     OH2      OT      -0.834000       15.9994           0
     16189 TIP3     1236     TIP3     H1       HT       0.417000       1.00800           0
     16190 TIP3     1236     TIP3     H2       HT       0.417000       1.00800           0
     16191 TIP3     1237     TIP3     OH2      OT      -0.834000       15.9994           0
     16192 TIP3     1237     TIP3     H1       HT       0.417000       1.00800           0
     16193 TIP3     1237     TIP3     H2       HT       0.417000       1.00800           0
     16194 TIP3     1238     TIP3     OH2      OT      -0.834000       15.9994           0
     16195 TIP3     1238     TIP3     H1       HT       0.417000       1.00800           0
     16196 TIP3     1238     TIP3     H2       HT       0.417000       1.00800           0
     16197 TIP3     1239     TIP3     OH2      OT      -0.834000       15.9994           0
     16198 TIP3     1239     TIP3     H1       HT       0.417000       1.00800           0
     16199 TIP3     1239     TIP3     H2       HT       0.417000       1.00800           0
     16200 TIP3     1240     TIP3     OH2      OT      -0.834000       15.9994           0
     16201 TIP3     1240     TIP3     H1       HT       0.417000       1.00800           0
     16202 TIP3     1240     TIP3     H2       HT       0.417000       1.00800           0
     16203 TIP3     1241     TIP3     OH2      OT      -0.834000       15.9994           0
     16204 TIP3     1241     TIP3     H1       HT       0.417000       1.00800           0
     16205 TIP3     1241     TIP3     H2       HT       0.417000       1.00800           0
     16206 TIP3     1242     TIP3     OH2      OT      -0.834000       15.9994           0
     16207 TIP3     1242     TIP3     H1       HT       0.417000       1.00800           0
     16208 TIP3     1242     TIP3     H2       HT       0.417000       1.00800           0
     16209 TIP3     1243     TIP3     OH2      OT      -0.834000       15.9994           0
     16210 TIP3     1243     TIP3     H1       HT       0.417000       1.00800           0
     16211 TIP3     1243     TIP3     H2       HT       0.417000       1.00800           0
     16212 TIP3     1244     TIP3     OH2      OT      -0.834000       15.9994           0
     16213 TIP3     1244     TIP3     H1       HT       0.417000       1.00800           0
     16214 TIP3     1244     TIP3     H2       HT       0.417000       1.00800           0
     16215 TIP3     1245     TIP3     OH2      OT      -0.834000       15.9994           0
     16216 TIP3     1245     TIP3     H1       HT       0.417000       1.00800           0
     16217 TIP3     1245     TIP3     H2       HT       0.417000       1.00800           0
     16218 TIP3     1246     TIP3     OH2      OT      -0.834000       15.9994           0
     16219 TIP3     1246     TIP3     H1       HT       0.417000       1.00800           0
     16220 TIP3     1246     TIP3     H2       HT       0.417000       1.00800           0
     16221 TIP3     1247     TIP3     OH2      OT      -0.834000       15.9994           0
     16222 TIP3     1247     TIP3     H1       HT       0.417000       1.00800           0
     16223 TIP3     1247     TIP3     H2       HT       0.417000       1.00800           0
     16224 TIP3     1248     TIP3     OH2      OT      -0.834000       15.9994           0
     16225 TIP3     1248     TIP3     H1       HT       0.417000       1.00800           0
     16226 TIP3     1248     TIP3     H2       HT       0.417000       1.00800           0
     16227 TIP3     1249     TIP3     OH2      OT      -0.834000       15.9994           0
     16228 TIP3     1249     TIP3     H1       HT       0.417000       1.00800           0
     16229 TIP3     1249     TIP3     H2       HT       0.417000       1.00800           0
     16230 TIP3     1250     TIP3     OH2      OT      -0.834000       15.9994           0
     16231 TIP3     1250     TIP3     H1       HT       0.417000       1.00800           0
     16232 TIP3     1250     TIP3     H2       HT       0.417000       1.00800           0
     16233 TIP3     1251     TIP3     OH2      OT      -0.834000       15.9994           0
     16234 TIP3     1251     TIP3     H1       HT       0.417000       1.00800           0
     16235 TIP3     1251     TIP3     H2       HT       0.417000       1.00800           0
     16236 TIP3     1252     TIP3     OH2      OT      -0.834000       15.9994           0
     16237 TIP3     1252     TIP3     H1       HT       0.417000       1.00800           0
     16238 TIP3     1252     TIP3     H2       HT       0.417000       1.00800           0
     16239 TIP3     1253     TIP3     OH2      OT      -0.834000       15.9994           0
     16240 TIP3     1253     TIP3     H1       HT       0.417000       1.00800           0
     16241 TIP3     1253     TIP3     H2       HT       0.417000       1.00800           0
     16242 TIP3     1254     TIP3     OH2      OT      -0.834000       15.9994           0
     16243 TIP3     1254     TIP3     H1       HT       0.417000       1.00800           0
     16244 TIP3     1254     TIP3     H2       HT       0.417000       1.00800           0
     16245 TIP3     1255     TIP3     OH2      OT      -0.834000       15.9994           0
     16246 TIP3     1255     TIP3     H1       HT       0.417000       1.00800           0
     16247 TIP3     1255     TIP3     H2       HT       0.417000       1.00800           0
     16248 TIP3     1256     TIP3     OH2      OT      -0.834000       15.9994           0
     16249 TIP3     1256     TIP3     H1       HT       0.417000       1.00800           0
     16250 TIP3     1256     TIP3     H2       HT       0.417000       1.00800           0
     16251 TIP3     1257     TIP3     OH2      OT      -0.834000       15.9994           0
     16252 TIP3     1257     TIP3     H1       HT       0.417000       1.00800           0
     16253 TIP3     1257     TIP3     H2       HT       0.417000       1.00800           0
     16254 TIP3     1258     TIP3     OH2      OT      -0.834000       15.9994           0
     16255 TIP3     1258     TIP3     H1       HT       0.417000       1.00800           0
     16256 TIP3     1258     TIP3     H2       HT       0.417000       1.00800           0
     16257 TIP3     1259     TIP3     OH2      OT      -0.834000       15.9994           0
     16258 TIP3     1259     TIP3     H1       HT       0.417000       1.00800           0
     16259 TIP3     1259     TIP3     H2       HT       0.417000       1.00800           0
     16260 TIP3     1260     TIP3     OH2      OT      -0.834000       15.9994           0
     16261 TIP3     1260     TIP3     H1       HT       0.417000       1.00800           0
     16262 TIP3     1260     TIP3     H2       HT       0.417000       1.00800           0
     16263 TIP3     1261     TIP3     OH2      OT      -0.834000       15.9994           0
     16264 TIP3     1261     TIP3     H1       HT       0.417000       1.00800           0
     16265 TIP3     1261     TIP3     H2       HT       0.417000       1.00800           0
     16266 TIP3     1262     TIP3     OH2      OT      -0.834000       15.9994           0
     16267 TIP3     1262     TIP3     H1       HT       0.417000       1.00800           0
     16268 TIP3     1262     TIP3     H2       HT       0.417000       1.00800           0
     16269 TIP3     1263     TIP3     OH2      OT      -0.834000       15.9994           0
     16270 TIP3     1263     TIP3     H1       HT       0.417000       1.00800           0
     16271 TIP3     1263     TIP3     H2       HT       0.417000       1.00800           0
     16272 TIP3     1264     TIP3     OH2      OT      -0.834000       15.9994           0
     16273 TIP3     1264     TIP3     H1       HT       0.417000       1.00800           0
     16274 TIP3     1264     TIP3     H2       HT       0.417000       1.00800           0
     16275 TIP3     1265     TIP3     OH2      OT      -0.834000       15.9994           0
     16276 TIP3     1265     TIP3     H1       HT       0.417000       1.00800           0
     16277 TIP3     1265     TIP3     H2       HT       0.417000       1.00800           0
     16278 TIP3     1266     TIP3     OH2      OT      -0.834000       15.9994           0
     16279 TIP3     1266     TIP3     H1       HT       0.417000       1.00800           0
     16280 TIP3     1266     TIP3     H2       HT       0.417000       1.00800           0
     16281 TIP3     1267     TIP3     OH2      OT      -0.834000       15.9994           0
     16282 TIP3     1267     TIP3     H1       HT       0.417000       1.00800           0
     16283 TIP3     1267     TIP3     H2       HT       0.417000       1.00800           0
     16284 TIP3     1268     TIP3     OH2      OT      -0.834000       15.9994           0
     16285 TIP3     1268     TIP3     H1       HT       0.417000       1.00800           0
     16286 TIP3     1268     TIP3     H2       HT       0.417000       1.00800           0
     16287 TIP3     1269     TIP3     OH2      OT      -0.834000       15.9994           0
     16288 TIP3     1269     TIP3     H1       HT       0.417000       1.00800           0
     16289 TIP3     1269     TIP3     H2       HT       0.417000       1.00800           0
     16290 TIP3     1270     TIP3     OH2      OT      -0.834000       15.9994           0
     16291 TIP3     1270     TIP3     H1       HT       0.417000       1.00800           0
     16292 TIP3     1270     TIP3     H2       HT       0.417000       1.00800           0
     16293 TIP3     1271     TIP3     OH2      OT      -0.834000       15.9994           0
     16294 TIP3     1271     TIP3     H1       HT       0.417000       1.00800           0
     16295 TIP3     1271     TIP3     H2       HT       0.417000       1.00800           0
     16296 TIP3     1272     TIP3     OH2      OT      -0.834000       15.9994           0
     16297 TIP3     1272     TIP3     H1       HT       0.417000       1.00800           0
     16298 TIP3     1272     TIP3     H2       HT       0.417000       1.00800           0
     16299 TIP3     1273     TIP3     OH2      OT      -0.834000       15.9994           0
     16300 TIP3     1273     TIP3     H1       HT       0.417000       1.00800           0
     16301 TIP3     1273     TIP3     H2       HT       0.417000       1.00800           0
     16302 TIP3     1274     TIP3     OH2      OT      -0.834000       15.9994           0
     16303 TIP3     1274     TIP3     H1       HT       0.417000       1.00800           0
     16304 TIP3     1274     TIP3     H2       HT       0.417000       1.00800           0
     16305 TIP3     1275     TIP3     OH2      OT      -0.834000       15.9994           0
     16306 TIP3     1275     TIP3     H1       HT       0.417000       1.00800           0
     16307 TIP3     1275     TIP3     H2       HT       0.417000       1.00800           0
     16308 TIP3     1276     TIP3     OH2      OT      -0.834000       15.9994           0
     16309 TIP3     1276     TIP3     H1       HT       0.417000       1.00800           0
     16310 TIP3     1276     TIP3     H2       HT       0.417000       1.00800           0
     16311 TIP3     1277     TIP3     OH2      OT      -0.834000       15.9994           0
     16312 TIP3     1277     TIP3     H1       HT       0.417000       1.00800           0
     16313 TIP3     1277     TIP3     H2       HT       0.417000       1.00800           0
     16314 TIP3     1278     TIP3     OH2      OT      -0.834000       15.9994           0
     16315 TIP3     1278     TIP3     H1       HT       0.417000       1.00800           0
     16316 TIP3     1278     TIP3     H2       HT       0.417000       1.00800           0
     16317 TIP3     1279     TIP3     OH2      OT      -0.834000       15.9994           0
     16318 TIP3     1279     TIP3     H1       HT       0.417000       1.00800           0
     16319 TIP3     1279     TIP3     H2       HT       0.417000       1.00800           0
     16320 TIP3     1280     TIP3     OH2      OT      -0.834000       15.9994           0
     16321 TIP3     1280     TIP3     H1       HT       0.417000       1.00800           0
     16322 TIP3     1280     TIP3     H2       HT       0.417000       1.00800           0
     16323 TIP3     1281     TIP3     OH2      OT      -0.834000       15.9994           0
     16324 TIP3     1281     TIP3     H1       HT       0.417000       1.00800           0
     16325 TIP3     1281     TIP3     H2       HT       0.417000       1.00800           0
     16326 TIP3     1282     TIP3     OH2      OT      -0.834000       15.9994           0
     16327 TIP3     1282     TIP3     H1       HT       0.417000       1.00800           0
     16328 TIP3     1282     TIP3     H2       HT       0.417000       1.00800           0
     16329 TIP3     1283     TIP3     OH2      OT      -0.834000       15.9994           0
     16330 TIP3     1283     TIP3     H1       HT       0.417000       1.00800           0
     16331 TIP3     1283     TIP3     H2       HT       0.417000       1.00800           0
     16332 TIP3     1284     TIP3     OH2      OT      -0.834000       15.9994           0
     16333 TIP3     1284     TIP3     H1       HT       0.417000       1.00800           0
     16334 TIP3     1284     TIP3     H2       HT       0.417000       1.00800           0
     16335 TIP3     1285     TIP3     OH2      OT      -0.834000       15.9994           0
     16336 TIP3     1285     TIP3     H1       HT       0.417000       1.00800           0
     16337 TIP3     1285     TIP3     H2       HT       0.417000       1.00800           0
     16338 TIP3     1286     TIP3     OH2      OT      -0.834000       15.9994           0
     16339 TIP3     1286     TIP3     H1       HT       0.417000       1.00800           0
     16340 TIP3     1286     TIP3     H2       HT       0.417000       1.00800           0
     16341 TIP3     1287     TIP3     OH2      OT      -0.834000       15.9994           0
     16342 TIP3     1287     TIP3     H1       HT       0.417000       1.00800           0
     16343 TIP3     1287     TIP3     H2       HT       0.417000       1.00800           0
     16344 TIP3     1288     TIP3     OH2      OT      -0.834000       15.9994           0
     16345 TIP3     1288     TIP3     H1       HT       0.417000       1.00800           0
     16346 TIP3     1288     TIP3     H2       HT       0.417000       1.00800           0
     16347 TIP3     1289     TIP3     OH2      OT      -0.834000       15.9994           0
     16348 TIP3     1289     TIP3     H1       HT       0.417000       1.00800           0
     16349 TIP3     1289     TIP3     H2       HT       0.417000       1.00800           0
     16350 TIP3     1290     TIP3     OH2      OT      -0.834000       15.9994           0
     16351 TIP3     1290     TIP3     H1       HT       0.417000       1.00800           0
     16352 TIP3     1290     TIP3     H2       HT       0.417000       1.00800           0
     16353 TIP3     1291     TIP3     OH2      OT      -0.834000       15.9994           0
     16354 TIP3     1291     TIP3     H1       HT       0.417000       1.00800           0
     16355 TIP3     1291     TIP3     H2       HT       0.417000       1.00800           0
     16356 TIP3     1292     TIP3     OH2      OT      -0.834000       15.9994           0
     16357 TIP3     1292     TIP3     H1       HT       0.417000       1.00800           0
     16358 TIP3     1292     TIP3     H2       HT       0.417000       1.00800           0
     16359 TIP3     1293     TIP3     OH2      OT      -0.834000       15.9994           0
     16360 TIP3     1293     TIP3     H1       HT       0.417000       1.00800           0
     16361 TIP3     1293     TIP3     H2       HT       0.417000       1.00800           0
     16362 TIP3     1294     TIP3     OH2      OT      -0.834000       15.9994           0
     16363 TIP3     1294     TIP3     H1       HT       0.417000       1.00800           0
     16364 TIP3     1294     TIP3     H2       HT       0.417000       1.00800           0
     16365 TIP3     1295     TIP3     OH2      OT      -0.834000       15.9994           0
     16366 TIP3     1295     TIP3     H1       HT       0.417000       1.00800           0
     16367 TIP3     1295     TIP3     H2       HT       0.417000       1.00800           0
     16368 TIP3     1296     TIP3     OH2      OT      -0.834000       15.9994           0
     16369 TIP3     1296     TIP3     H1       HT       0.417000       1.00800           0
     16370 TIP3     1296     TIP3     H2       HT       0.417000       1.00800           0
     16371 TIP3     1297     TIP3     OH2      OT      -0.834000       15.9994           0
     16372 TIP3     1297     TIP3     H1       HT       0.417000       1.00800           0
     16373 TIP3     1297     TIP3     H2       HT       0.417000       1.00800           0
     16374 TIP3     1298     TIP3     OH2      OT      -0.834000       15.9994           0
     16375 TIP3     1298     TIP3     H1       HT       0.417000       1.00800           0
     16376 TIP3     1298     TIP3     H2       HT       0.417000       1.00800           0
     16377 TIP3     1299     TIP3     OH2      OT      -0.834000       15.9994           0
     16378 TIP3     1299     TIP3     H1       HT       0.417000       1.00800           0
     16379 TIP3     1299     TIP3     H2       HT       0.417000       1.00800           0
     16380 TIP3     1300     TIP3     OH2      OT      -0.834000       15.9994           0
     16381 TIP3     1300     TIP3     H1       HT       0.417000       1.00800           0
     16382 TIP3     1300     TIP3     H2       HT       0.417000       1.00800           0
     16383 TIP3     1301     TIP3     OH2      OT      -0.834000       15.9994           0
     16384 TIP3     1301     TIP3     H1       HT       0.417000       1.00800           0
     16385 TIP3     1301     TIP3     H2       HT       0.417000       1.00800           0
     16386 TIP3     1302     TIP3     OH2      OT      -0.834000       15.9994           0
     16387 TIP3     1302     TIP3     H1       HT       0.417000       1.00800           0
     16388 TIP3     1302     TIP3     H2       HT       0.417000       1.00800           0
     16389 TIP3     1303     TIP3     OH2      OT      -0.834000       15.9994           0
     16390 TIP3     1303     TIP3     H1       HT       0.417000       1.00800           0
     16391 TIP3     1303     TIP3     H2       HT       0.417000       1.00800           0
     16392 TIP3     1304     TIP3     OH2      OT      -0.834000       15.9994           0
     16393 TIP3     1304     TIP3     H1       HT       0.417000       1.00800           0
     16394 TIP3     1304     TIP3     H2       HT       0.417000       1.00800           0
     16395 TIP3     1305     TIP3     OH2      OT      -0.834000       15.9994           0
     16396 TIP3     1305     TIP3     H1       HT       0.417000       1.00800           0
     16397 TIP3     1305     TIP3     H2       HT       0.417000       1.00800           0
     16398 TIP3     1306     TIP3     OH2      OT      -0.834000       15.9994           0
     16399 TIP3     1306     TIP3     H1       HT       0.417000       1.00800           0
     16400 TIP3     1306     TIP3     H2       HT       0.417000       1.00800           0
     16401 TIP3     1307     TIP3     OH2      OT      -0.834000       15.9994           0
     16402 TIP3     1307     TIP3     H1       HT       0.417000       1.00800           0
     16403 TIP3     1307     TIP3     H2       HT       0.417000       1.00800           0
     16404 TIP3     1308     TIP3     OH2      OT      -0.834000       15.9994           0
     16405 TIP3     1308     TIP3     H1       HT       0.417000       1.00800           0
     16406 TIP3     1308     TIP3     H2       HT       0.417000       1.00800           0
     16407 TIP3     1309     TIP3     OH2      OT      -0.834000       15.9994           0
     16408 TIP3     1309     TIP3     H1       HT       0.417000       1.00800           0
     16409 TIP3     1309     TIP3     H2       HT       0.417000       1.00800           0
     16410 TIP3     1310     TIP3     OH2      OT      -0.834000       15.9994           0
     16411 TIP3     1310     TIP3     H1       HT       0.417000       1.00800           0
     16412 TIP3     1310     TIP3     H2       HT       0.417000       1.00800           0
     16413 TIP3     1311     TIP3     OH2      OT      -0.834000       15.9994           0
     16414 TIP3     1311     TIP3     H1       HT       0.417000       1.00800           0
     16415 TIP3     1311     TIP3     H2       HT       0.417000       1.00800           0
     16416 TIP3     1312     TIP3     OH2      OT      -0.834000       15.9994           0
     16417 TIP3     1312     TIP3     H1       HT       0.417000       1.00800           0
     16418 TIP3     1312     TIP3     H2       HT       0.417000       1.00800           0
     16419 TIP3     1313     TIP3     OH2      OT      -0.834000       15.9994           0
     16420 TIP3     1313     TIP3     H1       HT       0.417000       1.00800           0
     16421 TIP3     1313     TIP3     H2       HT       0.417000       1.00800           0
     16422 TIP3     1314     TIP3     OH2      OT      -0.834000       15.9994           0
     16423 TIP3     1314     TIP3     H1       HT       0.417000       1.00800           0
     16424 TIP3     1314     TIP3     H2       HT       0.417000       1.00800           0
     16425 TIP3     1315     TIP3     OH2      OT      -0.834000       15.9994           0
     16426 TIP3     1315     TIP3     H1       HT       0.417000       1.00800           0
     16427 TIP3     1315     TIP3     H2       HT       0.417000       1.00800           0
     16428 TIP3     1316     TIP3     OH2      OT      -0.834000       15.9994           0
     16429 TIP3     1316     TIP3     H1       HT       0.417000       1.00800           0
     16430 TIP3     1316     TIP3     H2       HT       0.417000       1.00800           0
     16431 TIP3     1317     TIP3     OH2      OT      -0.834000       15.9994           0
     16432 TIP3     1317     TIP3     H1       HT       0.417000       1.00800           0
     16433 TIP3     1317     TIP3     H2       HT       0.417000       1.00800           0
     16434 TIP3     1318     TIP3     OH2      OT      -0.834000       15.9994           0
     16435 TIP3     1318     TIP3     H1       HT       0.417000       1.00800           0
     16436 TIP3     1318     TIP3     H2       HT       0.417000       1.00800           0
     16437 TIP3     1319     TIP3     OH2      OT      -0.834000       15.9994           0
     16438 TIP3     1319     TIP3     H1       HT       0.417000       1.00800           0
     16439 TIP3     1319     TIP3     H2       HT       0.417000       1.00800           0
     16440 TIP3     1320     TIP3     OH2      OT      -0.834000       15.9994           0
     16441 TIP3     1320     TIP3     H1       HT       0.417000       1.00800           0
     16442 TIP3     1320     TIP3     H2       HT       0.417000       1.00800           0
     16443 TIP3     1321     TIP3     OH2      OT      -0.834000       15.9994           0
     16444 TIP3     1321     TIP3     H1       HT       0.417000       1.00800           0
     16445 TIP3     1321     TIP3     H2       HT       0.417000       1.00800           0
     16446 TIP3     1322     TIP3     OH2      OT      -0.834000       15.9994           0
     16447 TIP3     1322     TIP3     H1       HT       0.417000       1.00800           0
     16448 TIP3     1322     TIP3     H2       HT       0.417000       1.00800           0
     16449 TIP3     1323     TIP3     OH2      OT      -0.834000       15.9994           0
     16450 TIP3     1323     TIP3     H1       HT       0.417000       1.00800           0
     16451 TIP3     1323     TIP3     H2       HT       0.417000       1.00800           0
     16452 TIP3     1324     TIP3     OH2      OT      -0.834000       15.9994           0
     16453 TIP3     1324     TIP3     H1       HT       0.417000       1.00800           0
     16454 TIP3     1324     TIP3     H2       HT       0.417000       1.00800           0
     16455 TIP3     1325     TIP3     OH2      OT      -0.834000       15.9994           0
     16456 TIP3     1325     TIP3     H1       HT       0.417000       1.00800           0
     16457 TIP3     1325     TIP3     H2       HT       0.417000       1.00800           0
     16458 TIP3     1326     TIP3     OH2      OT      -0.834000       15.9994           0
     16459 TIP3     1326     TIP3     H1       HT       0.417000       1.00800           0
     16460 TIP3     1326     TIP3     H2       HT       0.417000       1.00800           0
     16461 TIP3     1327     TIP3     OH2      OT      -0.834000       15.9994           0
     16462 TIP3     1327     TIP3     H1       HT       0.417000       1.00800           0
     16463 TIP3     1327     TIP3     H2       HT       0.417000       1.00800           0
     16464 TIP3     1328     TIP3     OH2      OT      -0.834000       15.9994           0
     16465 TIP3     1328     TIP3     H1       HT       0.417000       1.00800           0
     16466 TIP3     1328     TIP3     H2       HT       0.417000       1.00800           0
     16467 TIP3     1329     TIP3     OH2      OT      -0.834000       15.9994           0
     16468 TIP3     1329     TIP3     H1       HT       0.417000       1.00800           0
     16469 TIP3     1329     TIP3     H2       HT       0.417000       1.00800           0
     16470 TIP3     1330     TIP3     OH2      OT      -0.834000       15.9994           0
     16471 TIP3     1330     TIP3     H1       HT       0.417000       1.00800           0
     16472 TIP3     1330     TIP3     H2       HT       0.417000       1.00800           0
     16473 TIP3     1331     TIP3     OH2      OT      -0.834000       15.9994           0
     16474 TIP3     1331     TIP3     H1       HT       0.417000       1.00800           0
     16475 TIP3     1331     TIP3     H2       HT       0.417000       1.00800           0
     16476 TIP3     1332     TIP3     OH2      OT      -0.834000       15.9994           0
     16477 TIP3     1332     TIP3     H1       HT       0.417000       1.00800           0
     16478 TIP3     1332     TIP3     H2       HT       0.417000       1.00800           0
     16479 TIP3     1333     TIP3     OH2      OT      -0.834000       15.9994           0
     16480 TIP3     1333     TIP3     H1       HT       0.417000       1.00800           0
     16481 TIP3     1333     TIP3     H2       HT       0.417000       1.00800           0
     16482 TIP3     1334     TIP3     OH2      OT      -0.834000       15.9994           0
     16483 TIP3     1334     TIP3     H1       HT       0.417000       1.00800           0
     16484 TIP3     1334     TIP3     H2       HT       0.417000       1.00800           0
     16485 TIP3     1335     TIP3     OH2      OT      -0.834000       15.9994           0
     16486 TIP3     1335     TIP3     H1       HT       0.417000       1.00800           0
     16487 TIP3     1335     TIP3     H2       HT       0.417000       1.00800           0
     16488 TIP3     1336     TIP3     OH2      OT      -0.834000       15.9994           0
     16489 TIP3     1336     TIP3     H1       HT       0.417000       1.00800           0
     16490 TIP3     1336     TIP3     H2       HT       0.417000       1.00800           0
     16491 TIP3     1337     TIP3     OH2      OT      -0.834000       15.9994           0
     16492 TIP3     1337     TIP3     H1       HT       0.417000       1.00800           0
     16493 TIP3     1337     TIP3     H2       HT       0.417000       1.00800           0
     16494 TIP3     1338     TIP3     OH2      OT      -0.834000       15.9994           0
     16495 TIP3     1338     TIP3     H1       HT       0.417000       1.00800           0
     16496 TIP3     1338     TIP3     H2       HT       0.417000       1.00800           0
     16497 TIP3     1339     TIP3     OH2      OT      -0.834000       15.9994           0
     16498 TIP3     1339     TIP3     H1       HT       0.417000       1.00800           0
     16499 TIP3     1339     TIP3     H2       HT       0.417000       1.00800           0
     16500 TIP3     1340     TIP3     OH2      OT      -0.834000       15.9994           0
     16501 TIP3     1340     TIP3     H1       HT       0.417000       1.00800           0
     16502 TIP3     1340     TIP3     H2       HT       0.417000       1.00800           0
     16503 TIP3     1341     TIP3     OH2      OT      -0.834000       15.9994           0
     16504 TIP3     1341     TIP3     H1       HT       0.417000       1.00800           0
     16505 TIP3     1341     TIP3     H2       HT       0.417000       1.00800           0
     16506 TIP3     1342     TIP3     OH2      OT      -0.834000       15.9994           0
     16507 TIP3     1342     TIP3     H1       HT       0.417000       1.00800           0
     16508 TIP3     1342     TIP3     H2       HT       0.417000       1.00800           0
     16509 TIP3     1343     TIP3     OH2      OT      -0.834000       15.9994           0
     16510 TIP3     1343     TIP3     H1       HT       0.417000       1.00800           0
     16511 TIP3     1343     TIP3     H2       HT       0.417000       1.00800           0
     16512 TIP3     1344     TIP3     OH2      OT      -0.834000       15.9994           0
     16513 TIP3     1344     TIP3     H1       HT       0.417000       1.00800           0
     16514 TIP3     1344     TIP3     H2       HT       0.417000       1.00800           0
     16515 TIP3     1345     TIP3     OH2      OT      -0.834000       15.9994           0
     16516 TIP3     1345     TIP3     H1       HT       0.417000       1.00800           0
     16517 TIP3     1345     TIP3     H2       HT       0.417000       1.00800           0
     16518 TIP3     1346     TIP3     OH2      OT      -0.834000       15.9994           0
     16519 TIP3     1346     TIP3     H1       HT       0.417000       1.00800           0
     16520 TIP3     1346     TIP3     H2       HT       0.417000       1.00800           0
     16521 TIP3     1347     TIP3     OH2      OT      -0.834000       15.9994           0
     16522 TIP3     1347     TIP3     H1       HT       0.417000       1.00800           0
     16523 TIP3     1347     TIP3     H2       HT       0.417000       1.00800           0
     16524 TIP3     1348     TIP3     OH2      OT      -0.834000       15.9994           0
     16525 TIP3     1348     TIP3     H1       HT       0.417000       1.00800           0
     16526 TIP3     1348     TIP3     H2       HT       0.417000       1.00800           0
     16527 TIP3     1349     TIP3     OH2      OT      -0.834000       15.9994           0
     16528 TIP3     1349     TIP3     H1       HT       0.417000       1.00800           0
     16529 TIP3     1349     TIP3     H2       HT       0.417000       1.00800           0
     16530 TIP3     1350     TIP3     OH2      OT      -0.834000       15.9994           0
     16531 TIP3     1350     TIP3     H1       HT       0.417000       1.00800           0
     16532 TIP3     1350     TIP3     H2       HT       0.417000       1.00800           0
     16533 TIP3     1351     TIP3     OH2      OT      -0.834000       15.9994           0
     16534 TIP3     1351     TIP3     H1       HT       0.417000       1.00800           0
     16535 TIP3     1351     TIP3     H2       HT       0.417000       1.00800           0
     16536 TIP3     1352     TIP3     OH2      OT      -0.834000       15.9994           0
     16537 TIP3     1352     TIP3     H1       HT       0.417000       1.00800           0
     16538 TIP3     1352     TIP3     H2       HT       0.417000       1.00800           0
     16539 TIP3     1353     TIP3     OH2      OT      -0.834000       15.9994           0
     16540 TIP3     1353     TIP3     H1       HT       0.417000       1.00800           0
     16541 TIP3     1353     TIP3     H2       HT       0.417000       1.00800           0
     16542 TIP3     1354     TIP3     OH2      OT      -0.834000       15.9994           0
     16543 TIP3     1354     TIP3     H1       HT       0.417000       1.00800           0
     16544 TIP3     1354     TIP3     H2       HT       0.417000       1.00800           0
     16545 TIP3     1355     TIP3     OH2      OT      -0.834000       15.9994           0
     16546 TIP3     1355     TIP3     H1       HT       0.417000       1.00800           0
     16547 TIP3     1355     TIP3     H2       HT       0.417000       1.00800           0
     16548 TIP3     1356     TIP3     OH2      OT      -0.834000       15.9994           0
     16549 TIP3     1356     TIP3     H1       HT       0.417000       1.00800           0
     16550 TIP3     1356     TIP3     H2       HT       0.417000       1.00800           0
     16551 TIP3     1357     TIP3     OH2      OT      -0.834000       15.9994           0
     16552 TIP3     1357     TIP3     H1       HT       0.417000       1.00800           0
     16553 TIP3     1357     TIP3     H2       HT       0.417000       1.00800           0
     16554 TIP3     1358     TIP3     OH2      OT      -0.834000       15.9994           0
     16555 TIP3     1358     TIP3     H1       HT       0.417000       1.00800           0
     16556 TIP3     1358     TIP3     H2       HT       0.417000       1.00800           0
     16557 TIP3     1359     TIP3     OH2      OT      -0.834000       15.9994           0
     16558 TIP3     1359     TIP3     H1       HT       0.417000       1.00800           0
     16559 TIP3     1359     TIP3     H2       HT       0.417000       1.00800           0
     16560 TIP3     1360     TIP3     OH2      OT      -0.834000       15.9994           0
     16561 TIP3     1360     TIP3     H1       HT       0.417000       1.00800           0
     16562 TIP3     1360     TIP3     H2       HT       0.417000       1.00800           0
     16563 TIP3     1361     TIP3     OH2      OT      -0.834000       15.9994           0
     16564 TIP3     1361     TIP3     H1       HT       0.417000       1.00800           0
     16565 TIP3     1361     TIP3     H2       HT       0.417000       1.00800           0
     16566 TIP3     1362     TIP3     OH2      OT      -0.834000       15.9994           0
     16567 TIP3     1362     TIP3     H1       HT       0.417000       1.00800           0
     16568 TIP3     1362     TIP3     H2       HT       0.417000       1.00800           0
     16569 TIP3     1363     TIP3     OH2      OT      -0.834000       15.9994           0
     16570 TIP3     1363     TIP3     H1       HT       0.417000       1.00800           0
     16571 TIP3     1363     TIP3     H2       HT       0.417000       1.00800           0
     16572 TIP3     1364     TIP3     OH2      OT      -0.834000       15.9994           0
     16573 TIP3     1364     TIP3     H1       HT       0.417000       1.00800           0
     16574 TIP3     1364     TIP3     H2       HT       0.417000       1.00800           0
     16575 TIP3     1365     TIP3     OH2      OT      -0.834000       15.9994           0
     16576 TIP3     1365     TIP3     H1       HT       0.417000       1.00800           0
     16577 TIP3     1365     TIP3     H2       HT       0.417000       1.00800           0
     16578 TIP3     1366     TIP3     OH2      OT      -0.834000       15.9994           0
     16579 TIP3     1366     TIP3     H1       HT       0.417000       1.00800           0
     16580 TIP3     1366     TIP3     H2       HT       0.417000       1.00800           0
     16581 TIP3     1367     TIP3     OH2      OT      -0.834000       15.9994           0
     16582 TIP3     1367     TIP3     H1       HT       0.417000       1.00800           0
     16583 TIP3     1367     TIP3     H2       HT       0.417000       1.00800           0
     16584 TIP3     1368     TIP3     OH2      OT      -0.834000       15.9994           0
     16585 TIP3     1368     TIP3     H1       HT       0.417000       1.00800           0
     16586 TIP3     1368     TIP3     H2       HT       0.417000       1.00800           0
     16587 TIP3     1369     TIP3     OH2      OT      -0.834000       15.9994           0
     16588 TIP3     1369     TIP3     H1       HT       0.417000       1.00800           0
     16589 TIP3     1369     TIP3     H2       HT       0.417000       1.00800           0
     16590 TIP3     1370     TIP3     OH2      OT      -0.834000       15.9994           0
     16591 TIP3     1370     TIP3     H1       HT       0.417000       1.00800           0
     16592 TIP3     1370     TIP3     H2       HT       0.417000       1.00800           0
     16593 TIP3     1371     TIP3     OH2      OT      -0.834000       15.9994           0
     16594 TIP3     1371     TIP3     H1       HT       0.417000       1.00800           0
     16595 TIP3     1371     TIP3     H2       HT       0.417000       1.00800           0
     16596 TIP3     1372     TIP3     OH2      OT      -0.834000       15.9994           0
     16597 TIP3     1372     TIP3     H1       HT       0.417000       1.00800           0
     16598 TIP3     1372     TIP3     H2       HT       0.417000       1.00800           0
     16599 TIP3     1373     TIP3     OH2      OT      -0.834000       15.9994           0
     16600 TIP3     1373     TIP3     H1       HT       0.417000       1.00800           0
     16601 TIP3     1373     TIP3     H2       HT       0.417000       1.00800           0
     16602 TIP3     1374     TIP3     OH2      OT      -0.834000       15.9994           0
     16603 TIP3     1374     TIP3     H1       HT       0.417000       1.00800           0
     16604 TIP3     1374     TIP3     H2       HT       0.417000       1.00800           0
     16605 TIP3     1375     TIP3     OH2      OT      -0.834000       15.9994           0
     16606 TIP3     1375     TIP3     H1       HT       0.417000       1.00800           0
     16607 TIP3     1375     TIP3     H2       HT       0.417000       1.00800           0
     16608 TIP3     1376     TIP3     OH2      OT      -0.834000       15.9994           0
     16609 TIP3     1376     TIP3     H1       HT       0.417000       1.00800           0
     16610 TIP3     1376     TIP3     H2       HT       0.417000       1.00800           0
     16611 TIP3     1377     TIP3     OH2      OT      -0.834000       15.9994           0
     16612 TIP3     1377     TIP3     H1       HT       0.417000       1.00800           0
     16613 TIP3     1377     TIP3     H2       HT       0.417000       1.00800           0
     16614 TIP3     1378     TIP3     OH2      OT      -0.834000       15.9994           0
     16615 TIP3     1378     TIP3     H1       HT       0.417000       1.00800           0
     16616 TIP3     1378     TIP3     H2       HT       0.417000       1.00800           0
     16617 TIP3     1379     TIP3     OH2      OT      -0.834000       15.9994           0
     16618 TIP3     1379     TIP3     H1       HT       0.417000       1.00800           0
     16619 TIP3     1379     TIP3     H2       HT       0.417000       1.00800           0
     16620 TIP3     1380     TIP3     OH2      OT      -0.834000       15.9994           0
     16621 TIP3     1380     TIP3     H1       HT       0.417000       1.00800           0
     16622 TIP3     1380     TIP3     H2       HT       0.417000       1.00800           0
     16623 TIP3     1381     TIP3     OH2      OT      -0.834000       15.9994           0
     16624 TIP3     1381     TIP3     H1       HT       0.417000       1.00800           0
     16625 TIP3     1381     TIP3     H2       HT       0.417000       1.00800           0
     16626 TIP3     1382     TIP3     OH2      OT      -0.834000       15.9994           0
     16627 TIP3     1382     TIP3     H1       HT       0.417000       1.00800           0
     16628 TIP3     1382     TIP3     H2       HT       0.417000       1.00800           0
     16629 TIP3     1383     TIP3     OH2      OT      -0.834000       15.9994           0
     16630 TIP3     1383     TIP3     H1       HT       0.417000       1.00800           0
     16631 TIP3     1383     TIP3     H2       HT       0.417000       1.00800           0
     16632 TIP3     1384     TIP3     OH2      OT      -0.834000       15.9994           0
     16633 TIP3     1384     TIP3     H1       HT       0.417000       1.00800           0
     16634 TIP3     1384     TIP3     H2       HT       0.417000       1.00800           0
     16635 TIP3     1385     TIP3     OH2      OT      -0.834000       15.9994           0
     16636 TIP3     1385     TIP3     H1       HT       0.417000       1.00800           0
     16637 TIP3     1385     TIP3     H2       HT       0.417000       1.00800           0
     16638 TIP3     1386     TIP3     OH2      OT      -0.834000       15.9994           0
     16639 TIP3     1386     TIP3     H1       HT       0.417000       1.00800           0
     16640 TIP3     1386     TIP3     H2       HT       0.417000       1.00800           0
     16641 TIP3     1387     TIP3     OH2      OT      -0.834000       15.9994           0
     16642 TIP3     1387     TIP3     H1       HT       0.417000       1.00800           0
     16643 TIP3     1387     TIP3     H2       HT       0.417000       1.00800           0
     16644 TIP3     1388     TIP3     OH2      OT      -0.834000       15.9994           0
     16645 TIP3     1388     TIP3     H1       HT       0.417000       1.00800           0
     16646 TIP3     1388     TIP3     H2       HT       0.417000       1.00800           0
     16647 TIP3     1389     TIP3     OH2      OT      -0.834000       15.9994           0
     16648 TIP3     1389     TIP3     H1       HT       0.417000       1.00800           0
     16649 TIP3     1389     TIP3     H2       HT       0.417000       1.00800           0
     16650 TIP3     1390     TIP3     OH2      OT      -0.834000       15.9994           0
     16651 TIP3     1390     TIP3     H1       HT       0.417000       1.00800           0
     16652 TIP3     1390     TIP3     H2       HT       0.417000       1.00800           0
     16653 TIP3     1391     TIP3     OH2      OT      -0.834000       15.9994           0
     16654 TIP3     1391     TIP3     H1       HT       0.417000       1.00800           0
     16655 TIP3     1391     TIP3     H2       HT       0.417000       1.00800           0
     16656 TIP3     1392     TIP3     OH2      OT      -0.834000       15.9994           0
     16657 TIP3     1392     TIP3     H1       HT       0.417000       1.00800           0
     16658 TIP3     1392     TIP3     H2       HT       0.417000       1.00800           0
     16659 TIP3     1393     TIP3     OH2      OT      -0.834000       15.9994           0
     16660 TIP3     1393     TIP3     H1       HT       0.417000       1.00800           0
     16661 TIP3     1393     TIP3     H2       HT       0.417000       1.00800           0
     16662 TIP3     1394     TIP3     OH2      OT      -0.834000       15.9994           0
     16663 TIP3     1394     TIP3     H1       HT       0.417000       1.00800           0
     16664 TIP3     1394     TIP3     H2       HT       0.417000       1.00800           0
     16665 TIP3     1395     TIP3     OH2      OT      -0.834000       15.9994           0
     16666 TIP3     1395     TIP3     H1       HT       0.417000       1.00800           0
     16667 TIP3     1395     TIP3     H2       HT       0.417000       1.00800           0
     16668 TIP3     1396     TIP3     OH2      OT      -0.834000       15.9994           0
     16669 TIP3     1396     TIP3     H1       HT       0.417000       1.00800           0
     16670 TIP3     1396     TIP3     H2       HT       0.417000       1.00800           0
     16671 TIP3     1397     TIP3     OH2      OT      -0.834000       15.9994           0
     16672 TIP3     1397     TIP3     H1       HT       0.417000       1.00800           0
     16673 TIP3     1397     TIP3     H2       HT       0.417000       1.00800           0
     16674 TIP3     1398     TIP3     OH2      OT      -0.834000       15.9994           0
     16675 TIP3     1398     TIP3     H1       HT       0.417000       1.00800           0
     16676 TIP3     1398     TIP3     H2       HT       0.417000       1.00800           0
     16677 TIP3     1399     TIP3     OH2      OT      -0.834000       15.9994           0
     16678 TIP3     1399     TIP3     H1       HT       0.417000       1.00800           0
     16679 TIP3     1399     TIP3     H2       HT       0.417000       1.00800           0
     16680 TIP3     1400     TIP3     OH2      OT      -0.834000       15.9994           0
     16681 TIP3     1400     TIP3     H1       HT       0.417000       1.00800           0
     16682 TIP3     1400     TIP3     H2       HT       0.417000       1.00800           0
     16683 TIP3     1401     TIP3     OH2      OT      -0.834000       15.9994           0
     16684 TIP3     1401     TIP3     H1       HT       0.417000       1.00800           0
     16685 TIP3     1401     TIP3     H2       HT       0.417000       1.00800           0
     16686 TIP3     1402     TIP3     OH2      OT      -0.834000       15.9994           0
     16687 TIP3     1402     TIP3     H1       HT       0.417000       1.00800           0
     16688 TIP3     1402     TIP3     H2       HT       0.417000       1.00800           0
     16689 TIP3     1403     TIP3     OH2      OT      -0.834000       15.9994           0
     16690 TIP3     1403     TIP3     H1       HT       0.417000       1.00800           0
     16691 TIP3     1403     TIP3     H2       HT       0.417000       1.00800           0
     16692 TIP3     1404     TIP3     OH2      OT      -0.834000       15.9994           0
     16693 TIP3     1404     TIP3     H1       HT       0.417000       1.00800           0
     16694 TIP3     1404     TIP3     H2       HT       0.417000       1.00800           0
     16695 TIP3     1405     TIP3     OH2      OT      -0.834000       15.9994           0
     16696 TIP3     1405     TIP3     H1       HT       0.417000       1.00800           0
     16697 TIP3     1405     TIP3     H2       HT       0.417000       1.00800           0
     16698 TIP3     1406     TIP3     OH2      OT      -0.834000       15.9994           0
     16699 TIP3     1406     TIP3     H1       HT       0.417000       1.00800           0
     16700 TIP3     1406     TIP3     H2       HT       0.417000       1.00800           0
     16701 TIP3     1407     TIP3     OH2      OT      -0.834000       15.9994           0
     16702 TIP3     1407     TIP3     H1       HT       0.417000       1.00800           0
     16703 TIP3     1407     TIP3     H2       HT       0.417000       1.00800           0
     16704 TIP3     1408     TIP3     OH2      OT      -0.834000       15.9994           0
     16705 TIP3     1408     TIP3     H1       HT       0.417000       1.00800           0
     16706 TIP3     1408     TIP3     H2       HT       0.417000       1.00800           0
     16707 TIP3     1409     TIP3     OH2      OT      -0.834000       15.9994           0
     16708 TIP3     1409     TIP3     H1       HT       0.417000       1.00800           0
     16709 TIP3     1409     TIP3     H2       HT       0.417000       1.00800           0
     16710 TIP3     1410     TIP3     OH2      OT      -0.834000       15.9994           0
     16711 TIP3     1410     TIP3     H1       HT       0.417000       1.00800           0
     16712 TIP3     1410     TIP3     H2       HT       0.417000       1.00800           0
     16713 TIP3     1411     TIP3     OH2      OT      -0.834000       15.9994           0
     16714 TIP3     1411     TIP3     H1       HT       0.417000       1.00800           0
     16715 TIP3     1411     TIP3     H2       HT       0.417000       1.00800           0
     16716 TIP3     1412     TIP3     OH2      OT      -0.834000       15.9994           0
     16717 TIP3     1412     TIP3     H1       HT       0.417000       1.00800           0
     16718 TIP3     1412     TIP3     H2       HT       0.417000       1.00800           0
     16719 TIP3     1413     TIP3     OH2      OT      -0.834000       15.9994           0
     16720 TIP3     1413     TIP3     H1       HT       0.417000       1.00800           0
     16721 TIP3     1413     TIP3     H2       HT       0.417000       1.00800           0
     16722 TIP3     1414     TIP3     OH2      OT      -0.834000       15.9994           0
     16723 TIP3     1414     TIP3     H1       HT       0.417000       1.00800           0
     16724 TIP3     1414     TIP3     H2       HT       0.417000       1.00800           0
     16725 TIP3     1415     TIP3     OH2      OT      -0.834000       15.9994           0
     16726 TIP3     1415     TIP3     H1       HT       0.417000       1.00800           0
     16727 TIP3     1415     TIP3     H2       HT       0.417000       1.00800           0
     16728 TIP3     1416     TIP3     OH2      OT      -0.834000       15.9994           0
     16729 TIP3     1416     TIP3     H1       HT       0.417000       1.00800           0
     16730 TIP3     1416     TIP3     H2       HT       0.417000       1.00800           0
     16731 TIP3     1417     TIP3     OH2      OT      -0.834000       15.9994           0
     16732 TIP3     1417     TIP3     H1       HT       0.417000       1.00800           0
     16733 TIP3     1417     TIP3     H2       HT       0.417000       1.00800           0
     16734 TIP3     1418     TIP3     OH2      OT      -0.834000       15.9994           0
     16735 TIP3     1418     TIP3     H1       HT       0.417000       1.00800           0
     16736 TIP3     1418     TIP3     H2       HT       0.417000       1.00800           0
     16737 TIP3     1419     TIP3     OH2      OT      -0.834000       15.9994           0
     16738 TIP3     1419     TIP3     H1       HT       0.417000       1.00800           0
     16739 TIP3     1419     TIP3     H2       HT       0.417000       1.00800           0
     16740 TIP3     1420     TIP3     OH2      OT      -0.834000       15.9994           0
     16741 TIP3     1420     TIP3     H1       HT       0.417000       1.00800           0
     16742 TIP3     1420     TIP3     H2       HT       0.417000       1.00800           0
     16743 TIP3     1421     TIP3     OH2      OT      -0.834000       15.9994           0
     16744 TIP3     1421     TIP3     H1       HT       0.417000       1.00800           0
     16745 TIP3     1421     TIP3     H2       HT       0.417000       1.00800           0
     16746 TIP3     1422     TIP3     OH2      OT      -0.834000       15.9994           0
     16747 TIP3     1422     TIP3     H1       HT       0.417000       1.00800           0
     16748 TIP3     1422     TIP3     H2       HT       0.417000       1.00800           0
     16749 TIP3     1423     TIP3     OH2      OT      -0.834000       15.9994           0
     16750 TIP3     1423     TIP3     H1       HT       0.417000       1.00800           0
     16751 TIP3     1423     TIP3     H2       HT       0.417000       1.00800           0
     16752 TIP3     1424     TIP3     OH2      OT      -0.834000       15.9994           0
     16753 TIP3     1424     TIP3     H1       HT       0.417000       1.00800           0
     16754 TIP3     1424     TIP3     H2       HT       0.417000       1.00800           0
     16755 TIP3     1425     TIP3     OH2      OT      -0.834000       15.9994           0
     16756 TIP3     1425     TIP3     H1       HT       0.417000       1.00800           0
     16757 TIP3     1425     TIP3     H2       HT       0.417000       1.00800           0
     16758 TIP3     1426     TIP3     OH2      OT      -0.834000       15.9994           0
     16759 TIP3     1426     TIP3     H1       HT       0.417000       1.00800           0
     16760 TIP3     1426     TIP3     H2       HT       0.417000       1.00800           0
     16761 TIP3     1427     TIP3     OH2      OT      -0.834000       15.9994           0
     16762 TIP3     1427     TIP3     H1       HT       0.417000       1.00800           0
     16763 TIP3     1427     TIP3     H2       HT       0.417000       1.00800           0
     16764 TIP3     1428     TIP3     OH2      OT      -0.834000       15.9994           0
     16765 TIP3     1428     TIP3     H1       HT       0.417000       1.00800           0
     16766 TIP3     1428     TIP3     H2       HT       0.417000       1.00800           0
     16767 TIP3     1429     TIP3     OH2      OT      -0.834000       15.9994           0
     16768 TIP3     1429     TIP3     H1       HT       0.417000       1.00800           0
     16769 TIP3     1429     TIP3     H2       HT       0.417000       1.00800           0
     16770 TIP3     1430     TIP3     OH2      OT      -0.834000       15.9994           0
     16771 TIP3     1430     TIP3     H1       HT       0.417000       1.00800           0
     16772 TIP3     1430     TIP3     H2       HT       0.417000       1.00800           0
     16773 TIP3     1431     TIP3     OH2      OT      -0.834000       15.9994           0
     16774 TIP3     1431     TIP3     H1       HT       0.417000       1.00800           0
     16775 TIP3     1431     TIP3     H2       HT       0.417000       1.00800           0
     16776 TIP3     1432     TIP3     OH2      OT      -0.834000       15.9994           0
     16777 TIP3     1432     TIP3     H1       HT       0.417000       1.00800           0
     16778 TIP3     1432     TIP3     H2       HT       0.417000       1.00800           0
     16779 TIP3     1433     TIP3     OH2      OT      -0.834000       15.9994           0
     16780 TIP3     1433     TIP3     H1       HT       0.417000       1.00800           0
     16781 TIP3     1433     TIP3     H2       HT       0.417000       1.00800           0
     16782 TIP3     1434     TIP3     OH2      OT      -0.834000       15.9994           0
     16783 TIP3     1434     TIP3     H1       HT       0.417000       1.00800           0
     16784 TIP3     1434     TIP3     H2       HT       0.417000       1.00800           0
     16785 TIP3     1435     TIP3     OH2      OT      -0.834000       15.9994           0
     16786 TIP3     1435     TIP3     H1       HT       0.417000       1.00800           0
     16787 TIP3     1435     TIP3     H2       HT       0.417000       1.00800           0
     16788 TIP3     1436     TIP3     OH2      OT      -0.834000       15.9994           0
     16789 TIP3     1436     TIP3     H1       HT       0.417000       1.00800           0
     16790 TIP3     1436     TIP3     H2       HT       0.417000       1.00800           0
     16791 TIP3     1437     TIP3     OH2      OT      -0.834000       15.9994           0
     16792 TIP3     1437     TIP3     H1       HT       0.417000       1.00800           0
     16793 TIP3     1437     TIP3     H2       HT       0.417000       1.00800           0
     16794 TIP3     1438     TIP3     OH2      OT      -0.834000       15.9994           0
     16795 TIP3     1438     TIP3     H1       HT       0.417000       1.00800           0
     16796 TIP3     1438     TIP3     H2       HT       0.417000       1.00800           0
     16797 TIP3     1439     TIP3     OH2      OT      -0.834000       15.9994           0
     16798 TIP3     1439     TIP3     H1       HT       0.417000       1.00800           0
     16799 TIP3     1439     TIP3     H2       HT       0.417000       1.00800           0
     16800 TIP3     1440     TIP3     OH2      OT      -0.834000       15.9994           0
     16801 TIP3     1440     TIP3     H1       HT       0.417000       1.00800           0
     16802 TIP3     1440     TIP3     H2       HT       0.417000       1.00800           0
     16803 TIP3     1441     TIP3     OH2      OT      -0.834000       15.9994           0
     16804 TIP3     1441     TIP3     H1       HT       0.417000       1.00800           0
     16805 TIP3     1441     TIP3     H2       HT       0.417000       1.00800           0
     16806 TIP3     1442     TIP3     OH2      OT      -0.834000       15.9994           0
     16807 TIP3     1442     TIP3     H1       HT       0.417000       1.00800           0
     16808 TIP3     1442     TIP3     H2       HT       0.417000       1.00800           0
     16809 TIP3     1443     TIP3     OH2      OT      -0.834000       15.9994           0
     16810 TIP3     1443     TIP3     H1       HT       0.417000       1.00800           0
     16811 TIP3     1443     TIP3     H2       HT       0.417000       1.00800           0
     16812 TIP3     1444     TIP3     OH2      OT      -0.834000       15.9994           0
     16813 TIP3     1444     TIP3     H1       HT       0.417000       1.00800           0
     16814 TIP3     1444     TIP3     H2       HT       0.417000       1.00800           0
     16815 TIP3     1445     TIP3     OH2      OT      -0.834000       15.9994           0
     16816 TIP3     1445     TIP3     H1       HT       0.417000       1.00800           0
     16817 TIP3     1445     TIP3     H2       HT       0.417000       1.00800           0
     16818 TIP3     1446     TIP3     OH2      OT      -0.834000       15.9994           0
     16819 TIP3     1446     TIP3     H1       HT       0.417000       1.00800           0
     16820 TIP3     1446     TIP3     H2       HT       0.417000       1.00800           0
     16821 TIP3     1447     TIP3     OH2      OT      -0.834000       15.9994           0
     16822 TIP3     1447     TIP3     H1       HT       0.417000       1.00800           0
     16823 TIP3     1447     TIP3     H2       HT       0.417000       1.00800           0
     16824 TIP3     1448     TIP3     OH2      OT      -0.834000       15.9994           0
     16825 TIP3     1448     TIP3     H1       HT       0.417000       1.00800           0
     16826 TIP3     1448     TIP3     H2       HT       0.417000       1.00800           0
     16827 TIP3     1449     TIP3     OH2      OT      -0.834000       15.9994           0
     16828 TIP3     1449     TIP3     H1       HT       0.417000       1.00800           0
     16829 TIP3     1449     TIP3     H2       HT       0.417000       1.00800           0
     16830 TIP3     1450     TIP3     OH2      OT      -0.834000       15.9994           0
     16831 TIP3     1450     TIP3     H1       HT       0.417000       1.00800           0
     16832 TIP3     1450     TIP3     H2       HT       0.417000       1.00800           0
     16833 TIP3     1451     TIP3     OH2      OT      -0.834000       15.9994           0
     16834 TIP3     1451     TIP3     H1       HT       0.417000       1.00800           0
     16835 TIP3     1451     TIP3     H2       HT       0.417000       1.00800           0
     16836 TIP3     1452     TIP3     OH2      OT      -0.834000       15.9994           0
     16837 TIP3     1452     TIP3     H1       HT       0.417000       1.00800           0
     16838 TIP3     1452     TIP3     H2       HT       0.417000       1.00800           0
     16839 TIP3     1453     TIP3     OH2      OT      -0.834000       15.9994           0
     16840 TIP3     1453     TIP3     H1       HT       0.417000       1.00800           0
     16841 TIP3     1453     TIP3     H2       HT       0.417000       1.00800           0
     16842 TIP3     1454     TIP3     OH2      OT      -0.834000       15.9994           0
     16843 TIP3     1454     TIP3     H1       HT       0.417000       1.00800           0
     16844 TIP3     1454     TIP3     H2       HT       0.417000       1.00800           0
     16845 TIP3     1455     TIP3     OH2      OT      -0.834000       15.9994           0
     16846 TIP3     1455     TIP3     H1       HT       0.417000       1.00800           0
     16847 TIP3     1455     TIP3     H2       HT       0.417000       1.00800           0
     16848 TIP3     1456     TIP3     OH2      OT      -0.834000       15.9994           0
     16849 TIP3     1456     TIP3     H1       HT       0.417000       1.00800           0
     16850 TIP3     1456     TIP3     H2       HT       0.417000       1.00800           0
     16851 TIP3     1457     TIP3     OH2      OT      -0.834000       15.9994           0
     16852 TIP3     1457     TIP3     H1       HT       0.417000       1.00800           0
     16853 TIP3     1457     TIP3     H2       HT       0.417000       1.00800           0
     16854 TIP3     1458     TIP3     OH2      OT      -0.834000       15.9994           0
     16855 TIP3     1458     TIP3     H1       HT       0.417000       1.00800           0
     16856 TIP3     1458     TIP3     H2       HT       0.417000       1.00800           0
     16857 TIP3     1459     TIP3     OH2      OT      -0.834000       15.9994           0
     16858 TIP3     1459     TIP3     H1       HT       0.417000       1.00800           0
     16859 TIP3     1459     TIP3     H2       HT       0.417000       1.00800           0
     16860 TIP3     1460     TIP3     OH2      OT      -0.834000       15.9994           0
     16861 TIP3     1460     TIP3     H1       HT       0.417000       1.00800           0
     16862 TIP3     1460     TIP3     H2       HT       0.417000       1.00800           0
     16863 TIP3     1461     TIP3     OH2      OT      -0.834000       15.9994           0
     16864 TIP3     1461     TIP3     H1       HT       0.417000       1.00800           0
     16865 TIP3     1461     TIP3     H2       HT       0.417000       1.00800           0
     16866 TIP3     1462     TIP3     OH2      OT      -0.834000       15.9994           0
     16867 TIP3     1462     TIP3     H1       HT       0.417000       1.00800           0
     16868 TIP3     1462     TIP3     H2       HT       0.417000       1.00800           0
     16869 TIP3     1463     TIP3     OH2      OT      -0.834000       15.9994           0
     16870 TIP3     1463     TIP3     H1       HT       0.417000       1.00800           0
     16871 TIP3     1463     TIP3     H2       HT       0.417000       1.00800           0
     16872 TIP3     1464     TIP3     OH2      OT      -0.834000       15.9994           0
     16873 TIP3     1464     TIP3     H1       HT       0.417000       1.00800           0
     16874 TIP3     1464     TIP3     H2       HT       0.417000       1.00800           0
     16875 TIP3     1465     TIP3     OH2      OT      -0.834000       15.9994           0
     16876 TIP3     1465     TIP3     H1       HT       0.417000       1.00800           0
     16877 TIP3     1465     TIP3     H2       HT       0.417000       1.00800           0
     16878 TIP3     1466     TIP3     OH2      OT      -0.834000       15.9994           0
     16879 TIP3     1466     TIP3     H1       HT       0.417000       1.00800           0
     16880 TIP3     1466     TIP3     H2       HT       0.417000       1.00800           0
     16881 TIP3     1467     TIP3     OH2      OT      -0.834000       15.9994           0
     16882 TIP3     1467     TIP3     H1       HT       0.417000       1.00800           0
     16883 TIP3     1467     TIP3     H2       HT       0.417000       1.00800           0
     16884 TIP3     1468     TIP3     OH2      OT      -0.834000       15.9994           0
     16885 TIP3     1468     TIP3     H1       HT       0.417000       1.00800           0
     16886 TIP3     1468     TIP3     H2       HT       0.417000       1.00800           0
     16887 TIP3     1469     TIP3     OH2      OT      -0.834000       15.9994           0
     16888 TIP3     1469     TIP3     H1       HT       0.417000       1.00800           0
     16889 TIP3     1469     TIP3     H2       HT       0.417000       1.00800           0
     16890 TIP3     1470     TIP3     OH2      OT      -0.834000       15.9994           0
     16891 TIP3     1470     TIP3     H1       HT       0.417000       1.00800           0
     16892 TIP3     1470     TIP3     H2       HT       0.417000       1.00800           0
     16893 TIP3     1471     TIP3     OH2      OT      -0.834000       15.9994           0
     16894 TIP3     1471     TIP3     H1       HT       0.417000       1.00800           0
     16895 TIP3     1471     TIP3     H2       HT       0.417000       1.00800           0
     16896 TIP3     1472     TIP3     OH2      OT      -0.834000       15.9994           0
     16897 TIP3     1472     TIP3     H1       HT       0.417000       1.00800           0
     16898 TIP3     1472     TIP3     H2       HT       0.417000       1.00800           0
     16899 TIP3     1473     TIP3     OH2      OT      -0.834000       15.9994           0
     16900 TIP3     1473     TIP3     H1       HT       0.417000       1.00800           0
     16901 TIP3     1473     TIP3     H2       HT       0.417000       1.00800           0
     16902 TIP3     1474     TIP3     OH2      OT      -0.834000       15.9994           0
     16903 TIP3     1474     TIP3     H1       HT       0.417000       1.00800           0
     16904 TIP3     1474     TIP3     H2       HT       0.417000       1.00800           0
     16905 TIP3     1475     TIP3     OH2      OT      -0.834000       15.9994           0
     16906 TIP3     1475     TIP3     H1       HT       0.417000       1.00800           0
     16907 TIP3     1475     TIP3     H2       HT       0.417000       1.00800           0
     16908 TIP3     1476     TIP3     OH2      OT      -0.834000       15.9994           0
     16909 TIP3     1476     TIP3     H1       HT       0.417000       1.00800           0
     16910 TIP3     1476     TIP3     H2       HT       0.417000       1.00800           0
     16911 TIP3     1477     TIP3     OH2      OT      -0.834000       15.9994           0
     16912 TIP3     1477     TIP3     H1       HT       0.417000       1.00800           0
     16913 TIP3     1477     TIP3     H2       HT       0.417000       1.00800           0
     16914 TIP3     1478     TIP3     OH2      OT      -0.834000       15.9994           0
     16915 TIP3     1478     TIP3     H1       HT       0.417000       1.00800           0
     16916 TIP3     1478     TIP3     H2       HT       0.417000       1.00800           0
     16917 TIP3     1479     TIP3     OH2      OT      -0.834000       15.9994           0
     16918 TIP3     1479     TIP3     H1       HT       0.417000       1.00800           0
     16919 TIP3     1479     TIP3     H2       HT       0.417000       1.00800           0
     16920 TIP3     1480     TIP3     OH2      OT      -0.834000       15.9994           0
     16921 TIP3     1480     TIP3     H1       HT       0.417000       1.00800           0
     16922 TIP3     1480     TIP3     H2       HT       0.417000       1.00800           0
     16923 TIP3     1481     TIP3     OH2      OT      -0.834000       15.9994           0
     16924 TIP3     1481     TIP3     H1       HT       0.417000       1.00800           0
     16925 TIP3     1481     TIP3     H2       HT       0.417000       1.00800           0
     16926 TIP3     1482     TIP3     OH2      OT      -0.834000       15.9994           0
     16927 TIP3     1482     TIP3     H1       HT       0.417000       1.00800           0
     16928 TIP3     1482     TIP3     H2       HT       0.417000       1.00800           0
     16929 TIP3     1483     TIP3     OH2      OT      -0.834000       15.9994           0
     16930 TIP3     1483     TIP3     H1       HT       0.417000       1.00800           0
     16931 TIP3     1483     TIP3     H2       HT       0.417000       1.00800           0
     16932 TIP3     1484     TIP3     OH2      OT      -0.834000       15.9994           0
     16933 TIP3     1484     TIP3     H1       HT       0.417000       1.00800           0
     16934 TIP3     1484     TIP3     H2       HT       0.417000       1.00800           0
     16935 TIP3     1485     TIP3     OH2      OT      -0.834000       15.9994           0
     16936 TIP3     1485     TIP3     H1       HT       0.417000       1.00800           0
     16937 TIP3     1485     TIP3     H2       HT       0.417000       1.00800           0
     16938 TIP3     1486     TIP3     OH2      OT      -0.834000       15.9994           0
     16939 TIP3     1486     TIP3     H1       HT       0.417000       1.00800           0
     16940 TIP3     1486     TIP3     H2       HT       0.417000       1.00800           0
     16941 TIP3     1487     TIP3     OH2      OT      -0.834000       15.9994           0
     16942 TIP3     1487     TIP3     H1       HT       0.417000       1.00800           0
     16943 TIP3     1487     TIP3     H2       HT       0.417000       1.00800           0
     16944 TIP3     1488     TIP3     OH2      OT      -0.834000       15.9994           0
     16945 TIP3     1488     TIP3     H1       HT       0.417000       1.00800           0
     16946 TIP3     1488     TIP3     H2       HT       0.417000       1.00800           0
     16947 TIP3     1489     TIP3     OH2      OT      -0.834000       15.9994           0
     16948 TIP3     1489     TIP3     H1       HT       0.417000       1.00800           0
     16949 TIP3     1489     TIP3     H2       HT       0.417000       1.00800           0
     16950 TIP3     1490     TIP3     OH2      OT      -0.834000       15.9994           0
     16951 TIP3     1490     TIP3     H1       HT       0.417000       1.00800           0
     16952 TIP3     1490     TIP3     H2       HT       0.417000       1.00800           0
     16953 TIP3     1491     TIP3     OH2      OT      -0.834000       15.9994           0
     16954 TIP3     1491     TIP3     H1       HT       0.417000       1.00800           0
     16955 TIP3     1491     TIP3     H2       HT       0.417000       1.00800           0
     16956 TIP3     1492     TIP3     OH2      OT      -0.834000       15.9994           0
     16957 TIP3     1492     TIP3     H1       HT       0.417000       1.00800           0
     16958 TIP3     1492     TIP3     H2       HT       0.417000       1.00800           0
     16959 TIP3     1493     TIP3     OH2      OT      -0.834000       15.9994           0
     16960 TIP3     1493     TIP3     H1       HT       0.417000       1.00800           0
     16961 TIP3     1493     TIP3     H2       HT       0.417000       1.00800           0
     16962 TIP3     1494     TIP3     OH2      OT      -0.834000       15.9994           0
     16963 TIP3     1494     TIP3     H1       HT       0.417000       1.00800           0
     16964 TIP3     1494     TIP3     H2       HT       0.417000       1.00800           0
     16965 TIP3     1495     TIP3     OH2      OT      -0.834000       15.9994           0
     16966 TIP3     1495     TIP3     H1       HT       0.417000       1.00800           0
     16967 TIP3     1495     TIP3     H2       HT       0.417000       1.00800           0
     16968 TIP3     1496     TIP3     OH2      OT      -0.834000       15.9994           0
     16969 TIP3     1496     TIP3     H1       HT       0.417000       1.00800           0
     16970 TIP3     1496     TIP3     H2       HT       0.417000       1.00800           0
     16971 TIP3     1497     TIP3     OH2      OT      -0.834000       15.9994           0
     16972 TIP3     1497     TIP3     H1       HT       0.417000       1.00800           0
     16973 TIP3     1497     TIP3     H2       HT       0.417000       1.00800           0
     16974 TIP3     1498     TIP3     OH2      OT      -0.834000       15.9994           0
     16975 TIP3     1498     TIP3     H1       HT       0.417000       1.00800           0
     16976 TIP3     1498     TIP3     H2       HT       0.417000       1.00800           0
     16977 TIP3     1499     TIP3     OH2      OT      -0.834000       15.9994           0
     16978 TIP3     1499     TIP3     H1       HT       0.417000       1.00800           0
     16979 TIP3     1499     TIP3     H2       HT       0.417000       1.00800           0
     16980 TIP3     1500     TIP3     OH2      OT      -0.834000       15.9994           0
     16981 TIP3     1500     TIP3     H1       HT       0.417000       1.00800           0
     16982 TIP3     1500     TIP3     H2       HT       0.417000       1.00800           0
     16983 TIP3     1501     TIP3     OH2      OT      -0.834000       15.9994           0
     16984 TIP3     1501     TIP3     H1       HT       0.417000       1.00800           0
     16985 TIP3     1501     TIP3     H2       HT       0.417000       1.00800           0
     16986 TIP3     1502     TIP3     OH2      OT      -0.834000       15.9994           0
     16987 TIP3     1502     TIP3     H1       HT       0.417000       1.00800           0
     16988 TIP3     1502     TIP3     H2       HT       0.417000       1.00800           0
     16989 TIP3     1503     TIP3     OH2      OT      -0.834000       15.9994           0
     16990 TIP3     1503     TIP3     H1       HT       0.417000       1.00800           0
     16991 TIP3     1503     TIP3     H2       HT       0.417000       1.00800           0
     16992 TIP3     1504     TIP3     OH2      OT      -0.834000       15.9994           0
     16993 TIP3     1504     TIP3     H1       HT       0.417000       1.00800           0
     16994 TIP3     1504     TIP3     H2       HT       0.417000       1.00800           0
     16995 TIP3     1505     TIP3     OH2      OT      -0.834000       15.9994           0
     16996 TIP3     1505     TIP3     H1       HT       0.417000       1.00800           0
     16997 TIP3     1505     TIP3     H2       HT       0.417000       1.00800           0
     16998 TIP3     1506     TIP3     OH2      OT      -0.834000       15.9994           0
     16999 TIP3     1506     TIP3     H1       HT       0.417000       1.00800           0
     17000 TIP3     1506     TIP3     H2       HT       0.417000       1.00800           0
     17001 TIP3     1507     TIP3     OH2      OT      -0.834000       15.9994           0
     17002 TIP3     1507     TIP3     H1       HT       0.417000       1.00800           0
     17003 TIP3     1507     TIP3     H2       HT       0.417000       1.00800           0
     17004 TIP3     1508     TIP3     OH2      OT      -0.834000       15.9994           0
     17005 TIP3     1508     TIP3     H1       HT       0.417000       1.00800           0
     17006 TIP3     1508     TIP3     H2       HT       0.417000       1.00800           0
     17007 TIP3     1509     TIP3     OH2      OT      -0.834000       15.9994           0
     17008 TIP3     1509     TIP3     H1       HT       0.417000       1.00800           0
     17009 TIP3     1509     TIP3     H2       HT       0.417000       1.00800           0
     17010 TIP3     1510     TIP3     OH2      OT      -0.834000       15.9994           0
     17011 TIP3     1510     TIP3     H1       HT       0.417000       1.00800           0
     17012 TIP3     1510     TIP3     H2       HT       0.417000       1.00800           0
     17013 TIP3     1511     TIP3     OH2      OT      -0.834000       15.9994           0
     17014 TIP3     1511     TIP3     H1       HT       0.417000       1.00800           0
     17015 TIP3     1511     TIP3     H2       HT       0.417000       1.00800           0
     17016 TIP3     1512     TIP3     OH2      OT      -0.834000       15.9994           0
     17017 TIP3     1512     TIP3     H1       HT       0.417000       1.00800           0
     17018 TIP3     1512     TIP3     H2       HT       0.417000       1.00800           0
     17019 TIP3     1513     TIP3     OH2      OT      -0.834000       15.9994           0
     17020 TIP3     1513     TIP3     H1       HT       0.417000       1.00800           0
     17021 TIP3     1513     TIP3     H2       HT       0.417000       1.00800           0
     17022 TIP3     1514     TIP3     OH2      OT      -0.834000       15.9994           0
     17023 TIP3     1514     TIP3     H1       HT       0.417000       1.00800           0
     17024 TIP3     1514     TIP3     H2       HT       0.417000       1.00800           0
     17025 TIP3     1515     TIP3     OH2      OT      -0.834000       15.9994           0
     17026 TIP3     1515     TIP3     H1       HT       0.417000       1.00800           0
     17027 TIP3     1515     TIP3     H2       HT       0.417000       1.00800           0
     17028 TIP3     1516     TIP3     OH2      OT      -0.834000       15.9994           0
     17029 TIP3     1516     TIP3     H1       HT       0.417000       1.00800           0
     17030 TIP3     1516     TIP3     H2       HT       0.417000       1.00800           0
     17031 TIP3     1517     TIP3     OH2      OT      -0.834000       15.9994           0
     17032 TIP3     1517     TIP3     H1       HT       0.417000       1.00800           0
     17033 TIP3     1517     TIP3     H2       HT       0.417000       1.00800           0
     17034 TIP3     1518     TIP3     OH2      OT      -0.834000       15.9994           0
     17035 TIP3     1518     TIP3     H1       HT       0.417000       1.00800           0
     17036 TIP3     1518     TIP3     H2       HT       0.417000       1.00800           0
     17037 TIP3     1519     TIP3     OH2      OT      -0.834000       15.9994           0
     17038 TIP3     1519     TIP3     H1       HT       0.417000       1.00800           0
     17039 TIP3     1519     TIP3     H2       HT       0.417000       1.00800           0
     17040 TIP3     1520     TIP3     OH2      OT      -0.834000       15.9994           0
     17041 TIP3     1520     TIP3     H1       HT       0.417000       1.00800           0
     17042 TIP3     1520     TIP3     H2       HT       0.417000       1.00800           0
     17043 TIP3     1521     TIP3     OH2      OT      -0.834000       15.9994           0
     17044 TIP3     1521     TIP3     H1       HT       0.417000       1.00800           0
     17045 TIP3     1521     TIP3     H2       HT       0.417000       1.00800           0
     17046 TIP3     1522     TIP3     OH2      OT      -0.834000       15.9994           0
     17047 TIP3     1522     TIP3     H1       HT       0.417000       1.00800           0
     17048 TIP3     1522     TIP3     H2       HT       0.417000       1.00800           0
     17049 TIP3     1523     TIP3     OH2      OT      -0.834000       15.9994           0
     17050 TIP3     1523     TIP3     H1       HT       0.417000       1.00800           0
     17051 TIP3     1523     TIP3     H2       HT       0.417000       1.00800           0
     17052 TIP3     1524     TIP3     OH2      OT      -0.834000       15.9994           0
     17053 TIP3     1524     TIP3     H1       HT       0.417000       1.00800           0
     17054 TIP3     1524     TIP3     H2       HT       0.417000       1.00800           0
     17055 TIP3     1525     TIP3     OH2      OT      -0.834000       15.9994           0
     17056 TIP3     1525     TIP3     H1       HT       0.417000       1.00800           0
     17057 TIP3     1525     TIP3     H2       HT       0.417000       1.00800           0
     17058 TIP3     1526     TIP3     OH2      OT      -0.834000       15.9994           0
     17059 TIP3     1526     TIP3     H1       HT       0.417000       1.00800           0
     17060 TIP3     1526     TIP3     H2       HT       0.417000       1.00800           0
     17061 TIP3     1527     TIP3     OH2      OT      -0.834000       15.9994           0
     17062 TIP3     1527     TIP3     H1       HT       0.417000       1.00800           0
     17063 TIP3     1527     TIP3     H2       HT       0.417000       1.00800           0
     17064 TIP3     1528     TIP3     OH2      OT      -0.834000       15.9994           0
     17065 TIP3     1528     TIP3     H1       HT       0.417000       1.00800           0
     17066 TIP3     1528     TIP3     H2       HT       0.417000       1.00800           0
     17067 TIP3     1529     TIP3     OH2      OT      -0.834000       15.9994           0
     17068 TIP3     1529     TIP3     H1       HT       0.417000       1.00800           0
     17069 TIP3     1529     TIP3     H2       HT       0.417000       1.00800           0
     17070 TIP3     1530     TIP3     OH2      OT      -0.834000       15.9994           0
     17071 TIP3     1530     TIP3     H1       HT       0.417000       1.00800           0
     17072 TIP3     1530     TIP3     H2       HT       0.417000       1.00800           0
     17073 TIP3     1531     TIP3     OH2      OT      -0.834000       15.9994           0
     17074 TIP3     1531     TIP3     H1       HT       0.417000       1.00800           0
     17075 TIP3     1531     TIP3     H2       HT       0.417000       1.00800           0
     17076 TIP3     1532     TIP3     OH2      OT      -0.834000       15.9994           0
     17077 TIP3     1532     TIP3     H1       HT       0.417000       1.00800           0
     17078 TIP3     1532     TIP3     H2       HT       0.417000       1.00800           0
     17079 TIP3     1533     TIP3     OH2      OT      -0.834000       15.9994           0
     17080 TIP3     1533     TIP3     H1       HT       0.417000       1.00800           0
     17081 TIP3     1533     TIP3     H2       HT       0.417000       1.00800           0
     17082 TIP3     1534     TIP3     OH2      OT      -0.834000       15.9994           0
     17083 TIP3     1534     TIP3     H1       HT       0.417000       1.00800           0
     17084 TIP3     1534     TIP3     H2       HT       0.417000       1.00800           0
     17085 TIP3     1535     TIP3     OH2      OT      -0.834000       15.9994           0
     17086 TIP3     1535     TIP3     H1       HT       0.417000       1.00800           0
     17087 TIP3     1535     TIP3     H2       HT       0.417000       1.00800           0
     17088 TIP3     1536     TIP3     OH2      OT      -0.834000       15.9994           0
     17089 TIP3     1536     TIP3     H1       HT       0.417000       1.00800           0
     17090 TIP3     1536     TIP3     H2       HT       0.417000       1.00800           0
     17091 TIP3     1537     TIP3     OH2      OT      -0.834000       15.9994           0
     17092 TIP3     1537     TIP3     H1       HT       0.417000       1.00800           0
     17093 TIP3     1537     TIP3     H2       HT       0.417000       1.00800           0
     17094 TIP3     1538     TIP3     OH2      OT      -0.834000       15.9994           0
     17095 TIP3     1538     TIP3     H1       HT       0.417000       1.00800           0
     17096 TIP3     1538     TIP3     H2       HT       0.417000       1.00800           0
     17097 TIP3     1539     TIP3     OH2      OT      -0.834000       15.9994           0
     17098 TIP3     1539     TIP3     H1       HT       0.417000       1.00800           0
     17099 TIP3     1539     TIP3     H2       HT       0.417000       1.00800           0
     17100 TIP3     1540     TIP3     OH2      OT      -0.834000       15.9994           0
     17101 TIP3     1540     TIP3     H1       HT       0.417000       1.00800           0
     17102 TIP3     1540     TIP3     H2       HT       0.417000       1.00800           0
     17103 TIP3     1541     TIP3     OH2      OT      -0.834000       15.9994           0
     17104 TIP3     1541     TIP3     H1       HT       0.417000       1.00800           0
     17105 TIP3     1541     TIP3     H2       HT       0.417000       1.00800           0
     17106 TIP3     1542     TIP3     OH2      OT      -0.834000       15.9994           0
     17107 TIP3     1542     TIP3     H1       HT       0.417000       1.00800           0
     17108 TIP3     1542     TIP3     H2       HT       0.417000       1.00800           0
     17109 TIP3     1543     TIP3     OH2      OT      -0.834000       15.9994           0
     17110 TIP3     1543     TIP3     H1       HT       0.417000       1.00800           0
     17111 TIP3     1543     TIP3     H2       HT       0.417000       1.00800           0
     17112 TIP3     1544     TIP3     OH2      OT      -0.834000       15.9994           0
     17113 TIP3     1544     TIP3     H1       HT       0.417000       1.00800           0
     17114 TIP3     1544     TIP3     H2       HT       0.417000       1.00800           0
     17115 TIP3     1545     TIP3     OH2      OT      -0.834000       15.9994           0
     17116 TIP3     1545     TIP3     H1       HT       0.417000       1.00800           0
     17117 TIP3     1545     TIP3     H2       HT       0.417000       1.00800           0
     17118 TIP3     1546     TIP3     OH2      OT      -0.834000       15.9994           0
     17119 TIP3     1546     TIP3     H1       HT       0.417000       1.00800           0
     17120 TIP3     1546     TIP3     H2       HT       0.417000       1.00800           0
     17121 TIP3     1547     TIP3     OH2      OT      -0.834000       15.9994           0
     17122 TIP3     1547     TIP3     H1       HT       0.417000       1.00800           0
     17123 TIP3     1547     TIP3     H2       HT       0.417000       1.00800           0
     17124 TIP3     1548     TIP3     OH2      OT      -0.834000       15.9994           0
     17125 TIP3     1548     TIP3     H1       HT       0.417000       1.00800           0
     17126 TIP3     1548     TIP3     H2       HT       0.417000       1.00800           0
     17127 TIP3     1549     TIP3     OH2      OT      -0.834000       15.9994           0
     17128 TIP3     1549     TIP3     H1       HT       0.417000       1.00800           0
     17129 TIP3     1549     TIP3     H2       HT       0.417000       1.00800           0
     17130 TIP3     1550     TIP3     OH2      OT      -0.834000       15.9994           0
     17131 TIP3     1550     TIP3     H1       HT       0.417000       1.00800           0
     17132 TIP3     1550     TIP3     H2       HT       0.417000       1.00800           0
     17133 TIP3     1551     TIP3     OH2      OT      -0.834000       15.9994           0
     17134 TIP3     1551     TIP3     H1       HT       0.417000       1.00800           0
     17135 TIP3     1551     TIP3     H2       HT       0.417000       1.00800           0
     17136 TIP3     1552     TIP3     OH2      OT      -0.834000       15.9994           0
     17137 TIP3     1552     TIP3     H1       HT       0.417000       1.00800           0
     17138 TIP3     1552     TIP3     H2       HT       0.417000       1.00800           0
     17139 TIP3     1553     TIP3     OH2      OT      -0.834000       15.9994           0
     17140 TIP3     1553     TIP3     H1       HT       0.417000       1.00800           0
     17141 TIP3     1553     TIP3     H2       HT       0.417000       1.00800           0
     17142 TIP3     1554     TIP3     OH2      OT      -0.834000       15.9994           0
     17143 TIP3     1554     TIP3     H1       HT       0.417000       1.00800           0
     17144 TIP3     1554     TIP3     H2       HT       0.417000       1.00800           0
     17145 TIP3     1555     TIP3     OH2      OT      -0.834000       15.9994           0
     17146 TIP3     1555     TIP3     H1       HT       0.417000       1.00800           0
     17147 TIP3     1555     TIP3     H2       HT       0.417000       1.00800           0
     17148 TIP3     1556     TIP3     OH2      OT      -0.834000       15.9994           0
     17149 TIP3     1556     TIP3     H1       HT       0.417000       1.00800           0
     17150 TIP3     1556     TIP3     H2       HT       0.417000       1.00800           0
     17151 TIP3     1557     TIP3     OH2      OT      -0.834000       15.9994           0
     17152 TIP3     1557     TIP3     H1       HT       0.417000       1.00800           0
     17153 TIP3     1557     TIP3     H2       HT       0.417000       1.00800           0
     17154 TIP3     1558     TIP3     OH2      OT      -0.834000       15.9994           0
     17155 TIP3     1558     TIP3     H1       HT       0.417000       1.00800           0
     17156 TIP3     1558     TIP3     H2       HT       0.417000       1.00800           0
     17157 TIP3     1559     TIP3     OH2      OT      -0.834000       15.9994           0
     17158 TIP3     1559     TIP3     H1       HT       0.417000       1.00800           0
     17159 TIP3     1559     TIP3     H2       HT       0.417000       1.00800           0
     17160 TIP3     1560     TIP3     OH2      OT      -0.834000       15.9994           0
     17161 TIP3     1560     TIP3     H1       HT       0.417000       1.00800           0
     17162 TIP3     1560     TIP3     H2       HT       0.417000       1.00800           0
     17163 TIP3     1561     TIP3     OH2      OT      -0.834000       15.9994           0
     17164 TIP3     1561     TIP3     H1       HT       0.417000       1.00800           0
     17165 TIP3     1561     TIP3     H2       HT       0.417000       1.00800           0
     17166 TIP3     1562     TIP3     OH2      OT      -0.834000       15.9994           0
     17167 TIP3     1562     TIP3     H1       HT       0.417000       1.00800           0
     17168 TIP3     1562     TIP3     H2       HT       0.417000       1.00800           0
     17169 TIP3     1563     TIP3     OH2      OT      -0.834000       15.9994           0
     17170 TIP3     1563     TIP3     H1       HT       0.417000       1.00800           0
     17171 TIP3     1563     TIP3     H2       HT       0.417000       1.00800           0
     17172 TIP3     1564     TIP3     OH2      OT      -0.834000       15.9994           0
     17173 TIP3     1564     TIP3     H1       HT       0.417000       1.00800           0
     17174 TIP3     1564     TIP3     H2       HT       0.417000       1.00800           0
     17175 TIP3     1565     TIP3     OH2      OT      -0.834000       15.9994           0
     17176 TIP3     1565     TIP3     H1       HT       0.417000       1.00800           0
     17177 TIP3     1565     TIP3     H2       HT       0.417000       1.00800           0
     17178 TIP3     1566     TIP3     OH2      OT      -0.834000       15.9994           0
     17179 TIP3     1566     TIP3     H1       HT       0.417000       1.00800           0
     17180 TIP3     1566     TIP3     H2       HT       0.417000       1.00800           0
     17181 TIP3     1567     TIP3     OH2      OT      -0.834000       15.9994           0
     17182 TIP3     1567     TIP3     H1       HT       0.417000       1.00800           0
     17183 TIP3     1567     TIP3     H2       HT       0.417000       1.00800           0
     17184 TIP3     1568     TIP3     OH2      OT      -0.834000       15.9994           0
     17185 TIP3     1568     TIP3     H1       HT       0.417000       1.00800           0
     17186 TIP3     1568     TIP3     H2       HT       0.417000       1.00800           0
     17187 TIP3     1569     TIP3     OH2      OT      -0.834000       15.9994           0
     17188 TIP3     1569     TIP3     H1       HT       0.417000       1.00800           0
     17189 TIP3     1569     TIP3     H2       HT       0.417000       1.00800           0
     17190 TIP3     1570     TIP3     OH2      OT      -0.834000       15.9994           0
     17191 TIP3     1570     TIP3     H1       HT       0.417000       1.00800           0
     17192 TIP3     1570     TIP3     H2       HT       0.417000       1.00800           0
     17193 TIP3     1571     TIP3     OH2      OT      -0.834000       15.9994           0
     17194 TIP3     1571     TIP3     H1       HT       0.417000       1.00800           0
     17195 TIP3     1571     TIP3     H2       HT       0.417000       1.00800           0
     17196 TIP3     1572     TIP3     OH2      OT      -0.834000       15.9994           0
     17197 TIP3     1572     TIP3     H1       HT       0.417000       1.00800           0
     17198 TIP3     1572     TIP3     H2       HT       0.417000       1.00800           0
     17199 TIP3     1573     TIP3     OH2      OT      -0.834000       15.9994           0
     17200 TIP3     1573     TIP3     H1       HT       0.417000       1.00800           0
     17201 TIP3     1573     TIP3     H2       HT       0.417000       1.00800           0
     17202 TIP3     1574     TIP3     OH2      OT      -0.834000       15.9994           0
     17203 TIP3     1574     TIP3     H1       HT       0.417000       1.00800           0
     17204 TIP3     1574     TIP3     H2       HT       0.417000       1.00800           0
     17205 TIP3     1575     TIP3     OH2      OT      -0.834000       15.9994           0
     17206 TIP3     1575     TIP3     H1       HT       0.417000       1.00800           0
     17207 TIP3     1575     TIP3     H2       HT       0.417000       1.00800           0
     17208 TIP3     1576     TIP3     OH2      OT      -0.834000       15.9994           0
     17209 TIP3     1576     TIP3     H1       HT       0.417000       1.00800           0
     17210 TIP3     1576     TIP3     H2       HT       0.417000       1.00800           0
     17211 TIP3     1577     TIP3     OH2      OT      -0.834000       15.9994           0
     17212 TIP3     1577     TIP3     H1       HT       0.417000       1.00800           0
     17213 TIP3     1577     TIP3     H2       HT       0.417000       1.00800           0
     17214 TIP3     1578     TIP3     OH2      OT      -0.834000       15.9994           0
     17215 TIP3     1578     TIP3     H1       HT       0.417000       1.00800           0
     17216 TIP3     1578     TIP3     H2       HT       0.417000       1.00800           0
     17217 TIP3     1579     TIP3     OH2      OT      -0.834000       15.9994           0
     17218 TIP3     1579     TIP3     H1       HT       0.417000       1.00800           0
     17219 TIP3     1579     TIP3     H2       HT       0.417000       1.00800           0
     17220 TIP3     1580     TIP3     OH2      OT      -0.834000       15.9994           0
     17221 TIP3     1580     TIP3     H1       HT       0.417000       1.00800           0
     17222 TIP3     1580     TIP3     H2       HT       0.417000       1.00800           0
     17223 TIP3     1581     TIP3     OH2      OT      -0.834000       15.9994           0
     17224 TIP3     1581     TIP3     H1       HT       0.417000       1.00800           0
     17225 TIP3     1581     TIP3     H2       HT       0.417000       1.00800           0
     17226 TIP3     1582     TIP3     OH2      OT      -0.834000       15.9994           0
     17227 TIP3     1582     TIP3     H1       HT       0.417000       1.00800           0
     17228 TIP3     1582     TIP3     H2       HT       0.417000       1.00800           0
     17229 TIP3     1583     TIP3     OH2      OT      -0.834000       15.9994           0
     17230 TIP3     1583     TIP3     H1       HT       0.417000       1.00800           0
     17231 TIP3     1583     TIP3     H2       HT       0.417000       1.00800           0
     17232 TIP3     1584     TIP3     OH2      OT      -0.834000       15.9994           0
     17233 TIP3     1584     TIP3     H1       HT       0.417000       1.00800           0
     17234 TIP3     1584     TIP3     H2       HT       0.417000       1.00800           0
     17235 TIP3     1585     TIP3     OH2      OT      -0.834000       15.9994           0
     17236 TIP3     1585     TIP3     H1       HT       0.417000       1.00800           0
     17237 TIP3     1585     TIP3     H2       HT       0.417000       1.00800           0
     17238 TIP3     1586     TIP3     OH2      OT      -0.834000       15.9994           0
     17239 TIP3     1586     TIP3     H1       HT       0.417000       1.00800           0
     17240 TIP3     1586     TIP3     H2       HT       0.417000       1.00800           0
     17241 TIP3     1587     TIP3     OH2      OT      -0.834000       15.9994           0
     17242 TIP3     1587     TIP3     H1       HT       0.417000       1.00800           0
     17243 TIP3     1587     TIP3     H2       HT       0.417000       1.00800           0
     17244 TIP3     1588     TIP3     OH2      OT      -0.834000       15.9994           0
     17245 TIP3     1588     TIP3     H1       HT       0.417000       1.00800           0
     17246 TIP3     1588     TIP3     H2       HT       0.417000       1.00800           0
     17247 TIP3     1589     TIP3     OH2      OT      -0.834000       15.9994           0
     17248 TIP3     1589     TIP3     H1       HT       0.417000       1.00800           0
     17249 TIP3     1589     TIP3     H2       HT       0.417000       1.00800           0
     17250 TIP3     1590     TIP3     OH2      OT      -0.834000       15.9994           0
     17251 TIP3     1590     TIP3     H1       HT       0.417000       1.00800           0
     17252 TIP3     1590     TIP3     H2       HT       0.417000       1.00800           0
     17253 TIP3     1591     TIP3     OH2      OT      -0.834000       15.9994           0
     17254 TIP3     1591     TIP3     H1       HT       0.417000       1.00800           0
     17255 TIP3     1591     TIP3     H2       HT       0.417000       1.00800           0
     17256 TIP3     1592     TIP3     OH2      OT      -0.834000       15.9994           0
     17257 TIP3     1592     TIP3     H1       HT       0.417000       1.00800           0
     17258 TIP3     1592     TIP3     H2       HT       0.417000       1.00800           0
     17259 TIP3     1593     TIP3     OH2      OT      -0.834000       15.9994           0
     17260 TIP3     1593     TIP3     H1       HT       0.417000       1.00800           0
     17261 TIP3     1593     TIP3     H2       HT       0.417000       1.00800           0
     17262 TIP3     1594     TIP3     OH2      OT      -0.834000       15.9994           0
     17263 TIP3     1594     TIP3     H1       HT       0.417000       1.00800           0
     17264 TIP3     1594     TIP3     H2       HT       0.417000       1.00800           0
     17265 TIP3     1595     TIP3     OH2      OT      -0.834000       15.9994           0
     17266 TIP3     1595     TIP3     H1       HT       0.417000       1.00800           0
     17267 TIP3     1595     TIP3     H2       HT       0.417000       1.00800           0
     17268 TIP3     1596     TIP3     OH2      OT      -0.834000       15.9994           0
     17269 TIP3     1596     TIP3     H1       HT       0.417000       1.00800           0
     17270 TIP3     1596     TIP3     H2       HT       0.417000       1.00800           0
     17271 TIP3     1597     TIP3     OH2      OT      -0.834000       15.9994           0
     17272 TIP3     1597     TIP3     H1       HT       0.417000       1.00800           0
     17273 TIP3     1597     TIP3     H2       HT       0.417000       1.00800           0
     17274 TIP3     1598     TIP3     OH2      OT      -0.834000       15.9994           0
     17275 TIP3     1598     TIP3     H1       HT       0.417000       1.00800           0
     17276 TIP3     1598     TIP3     H2       HT       0.417000       1.00800           0
     17277 TIP3     1599     TIP3     OH2      OT      -0.834000       15.9994           0
     17278 TIP3     1599     TIP3     H1       HT       0.417000       1.00800           0
     17279 TIP3     1599     TIP3     H2       HT       0.417000       1.00800           0
     17280 TIP3     1600     TIP3     OH2      OT      -0.834000       15.9994           0
     17281 TIP3     1600     TIP3     H1       HT       0.417000       1.00800           0
     17282 TIP3     1600     TIP3     H2       HT       0.417000       1.00800           0
     17283 TIP3     1601     TIP3     OH2      OT      -0.834000       15.9994           0
     17284 TIP3     1601     TIP3     H1       HT       0.417000       1.00800           0
     17285 TIP3     1601     TIP3     H2       HT       0.417000       1.00800           0
     17286 TIP3     1602     TIP3     OH2      OT      -0.834000       15.9994           0
     17287 TIP3     1602     TIP3     H1       HT       0.417000       1.00800           0
     17288 TIP3     1602     TIP3     H2       HT       0.417000       1.00800           0
     17289 TIP3     1603     TIP3     OH2      OT      -0.834000       15.9994           0
     17290 TIP3     1603     TIP3     H1       HT       0.417000       1.00800           0
     17291 TIP3     1603     TIP3     H2       HT       0.417000       1.00800           0
     17292 TIP3     1604     TIP3     OH2      OT      -0.834000       15.9994           0
     17293 TIP3     1604     TIP3     H1       HT       0.417000       1.00800           0
     17294 TIP3     1604     TIP3     H2       HT       0.417000       1.00800           0
     17295 TIP3     1605     TIP3     OH2      OT      -0.834000       15.9994           0
     17296 TIP3     1605     TIP3     H1       HT       0.417000       1.00800           0
     17297 TIP3     1605     TIP3     H2       HT       0.417000       1.00800           0
     17298 TIP3     1606     TIP3     OH2      OT      -0.834000       15.9994           0
     17299 TIP3     1606     TIP3     H1       HT       0.417000       1.00800           0
     17300 TIP3     1606     TIP3     H2       HT       0.417000       1.00800           0
     17301 TIP3     1607     TIP3     OH2      OT      -0.834000       15.9994           0
     17302 TIP3     1607     TIP3     H1       HT       0.417000       1.00800           0
     17303 TIP3     1607     TIP3     H2       HT       0.417000       1.00800           0
     17304 TIP3     1608     TIP3     OH2      OT      -0.834000       15.9994           0
     17305 TIP3     1608     TIP3     H1       HT       0.417000       1.00800           0
     17306 TIP3     1608     TIP3     H2       HT       0.417000       1.00800           0
     17307 TIP3     1609     TIP3     OH2      OT      -0.834000       15.9994           0
     17308 TIP3     1609     TIP3     H1       HT       0.417000       1.00800           0
     17309 TIP3     1609     TIP3     H2       HT       0.417000       1.00800           0
     17310 TIP3     1610     TIP3     OH2      OT      -0.834000       15.9994           0
     17311 TIP3     1610     TIP3     H1       HT       0.417000       1.00800           0
     17312 TIP3     1610     TIP3     H2       HT       0.417000       1.00800           0
     17313 TIP3     1611     TIP3     OH2      OT      -0.834000       15.9994           0
     17314 TIP3     1611     TIP3     H1       HT       0.417000       1.00800           0
     17315 TIP3     1611     TIP3     H2       HT       0.417000       1.00800           0
     17316 TIP3     1612     TIP3     OH2      OT      -0.834000       15.9994           0
     17317 TIP3     1612     TIP3     H1       HT       0.417000       1.00800           0
     17318 TIP3     1612     TIP3     H2       HT       0.417000       1.00800           0
     17319 TIP3     1613     TIP3     OH2      OT      -0.834000       15.9994           0
     17320 TIP3     1613     TIP3     H1       HT       0.417000       1.00800           0
     17321 TIP3     1613     TIP3     H2       HT       0.417000       1.00800           0
     17322 TIP3     1614     TIP3     OH2      OT      -0.834000       15.9994           0
     17323 TIP3     1614     TIP3     H1       HT       0.417000       1.00800           0
     17324 TIP3     1614     TIP3     H2       HT       0.417000       1.00800           0
     17325 TIP3     1615     TIP3     OH2      OT      -0.834000       15.9994           0
     17326 TIP3     1615     TIP3     H1       HT       0.417000       1.00800           0
     17327 TIP3     1615     TIP3     H2       HT       0.417000       1.00800           0
     17328 TIP3     1616     TIP3     OH2      OT      -0.834000       15.9994           0
     17329 TIP3     1616     TIP3     H1       HT       0.417000       1.00800           0
     17330 TIP3     1616     TIP3     H2       HT       0.417000       1.00800           0
     17331 TIP3     1617     TIP3     OH2      OT      -0.834000       15.9994           0
     17332 TIP3     1617     TIP3     H1       HT       0.417000       1.00800           0
     17333 TIP3     1617     TIP3     H2       HT       0.417000       1.00800           0
     17334 TIP3     1618     TIP3     OH2      OT      -0.834000       15.9994           0
     17335 TIP3     1618     TIP3     H1       HT       0.417000       1.00800           0
     17336 TIP3     1618     TIP3     H2       HT       0.417000       1.00800           0
     17337 TIP3     1619     TIP3     OH2      OT      -0.834000       15.9994           0
     17338 TIP3     1619     TIP3     H1       HT       0.417000       1.00800           0
     17339 TIP3     1619     TIP3     H2       HT       0.417000       1.00800           0
     17340 TIP3     1620     TIP3     OH2      OT      -0.834000       15.9994           0
     17341 TIP3     1620     TIP3     H1       HT       0.417000       1.00800           0
     17342 TIP3     1620     TIP3     H2       HT       0.417000       1.00800           0
     17343 TIP3     1621     TIP3     OH2      OT      -0.834000       15.9994           0
     17344 TIP3     1621     TIP3     H1       HT       0.417000       1.00800           0
     17345 TIP3     1621     TIP3     H2       HT       0.417000       1.00800           0
     17346 TIP3     1622     TIP3     OH2      OT      -0.834000       15.9994           0
     17347 TIP3     1622     TIP3     H1       HT       0.417000       1.00800           0
     17348 TIP3     1622     TIP3     H2       HT       0.417000       1.00800           0
     17349 TIP3     1623     TIP3     OH2      OT      -0.834000       15.9994           0
     17350 TIP3     1623     TIP3     H1       HT       0.417000       1.00800           0
     17351 TIP3     1623     TIP3     H2       HT       0.417000       1.00800           0
     17352 TIP3     1624     TIP3     OH2      OT      -0.834000       15.9994           0
     17353 TIP3     1624     TIP3     H1       HT       0.417000       1.00800           0
     17354 TIP3     1624     TIP3     H2       HT       0.417000       1.00800           0
     17355 TIP3     1625     TIP3     OH2      OT      -0.834000       15.9994           0
     17356 TIP3     1625     TIP3     H1       HT       0.417000       1.00800           0
     17357 TIP3     1625     TIP3     H2       HT       0.417000       1.00800           0
     17358 TIP3     1626     TIP3     OH2      OT      -0.834000       15.9994           0
     17359 TIP3     1626     TIP3     H1       HT       0.417000       1.00800           0
     17360 TIP3     1626     TIP3     H2       HT       0.417000       1.00800           0
     17361 TIP3     1627     TIP3     OH2      OT      -0.834000       15.9994           0
     17362 TIP3     1627     TIP3     H1       HT       0.417000       1.00800           0
     17363 TIP3     1627     TIP3     H2       HT       0.417000       1.00800           0
     17364 TIP3     1628     TIP3     OH2      OT      -0.834000       15.9994           0
     17365 TIP3     1628     TIP3     H1       HT       0.417000       1.00800           0
     17366 TIP3     1628     TIP3     H2       HT       0.417000       1.00800           0
     17367 TIP3     1629     TIP3     OH2      OT      -0.834000       15.9994           0
     17368 TIP3     1629     TIP3     H1       HT       0.417000       1.00800           0
     17369 TIP3     1629     TIP3     H2       HT       0.417000       1.00800           0
     17370 TIP3     1630     TIP3     OH2      OT      -0.834000       15.9994           0
     17371 TIP3     1630     TIP3     H1       HT       0.417000       1.00800           0
     17372 TIP3     1630     TIP3     H2       HT       0.417000       1.00800           0
     17373 TIP3     1631     TIP3     OH2      OT      -0.834000       15.9994           0
     17374 TIP3     1631     TIP3     H1       HT       0.417000       1.00800           0
     17375 TIP3     1631     TIP3     H2       HT       0.417000       1.00800           0
     17376 TIP3     1632     TIP3     OH2      OT      -0.834000       15.9994           0
     17377 TIP3     1632     TIP3     H1       HT       0.417000       1.00800           0
     17378 TIP3     1632     TIP3     H2       HT       0.417000       1.00800           0
     17379 TIP3     1633     TIP3     OH2      OT      -0.834000       15.9994           0
     17380 TIP3     1633     TIP3     H1       HT       0.417000       1.00800           0
     17381 TIP3     1633     TIP3     H2       HT       0.417000       1.00800           0
     17382 TIP3     1634     TIP3     OH2      OT      -0.834000       15.9994           0
     17383 TIP3     1634     TIP3     H1       HT       0.417000       1.00800           0
     17384 TIP3     1634     TIP3     H2       HT       0.417000       1.00800           0
     17385 TIP3     1635     TIP3     OH2      OT      -0.834000       15.9994           0
     17386 TIP3     1635     TIP3     H1       HT       0.417000       1.00800           0
     17387 TIP3     1635     TIP3     H2       HT       0.417000       1.00800           0
     17388 TIP3     1636     TIP3     OH2      OT      -0.834000       15.9994           0
     17389 TIP3     1636     TIP3     H1       HT       0.417000       1.00800           0
     17390 TIP3     1636     TIP3     H2       HT       0.417000       1.00800           0
     17391 TIP3     1637     TIP3     OH2      OT      -0.834000       15.9994           0
     17392 TIP3     1637     TIP3     H1       HT       0.417000       1.00800           0
     17393 TIP3     1637     TIP3     H2       HT       0.417000       1.00800           0
     17394 TIP3     1638     TIP3     OH2      OT      -0.834000       15.9994           0
     17395 TIP3     1638     TIP3     H1       HT       0.417000       1.00800           0
     17396 TIP3     1638     TIP3     H2       HT       0.417000       1.00800           0
     17397 TIP3     1639     TIP3     OH2      OT      -0.834000       15.9994           0
     17398 TIP3     1639     TIP3     H1       HT       0.417000       1.00800           0
     17399 TIP3     1639     TIP3     H2       HT       0.417000       1.00800           0
     17400 TIP3     1640     TIP3     OH2      OT      -0.834000       15.9994           0
     17401 TIP3     1640     TIP3     H1       HT       0.417000       1.00800           0
     17402 TIP3     1640     TIP3     H2       HT       0.417000       1.00800           0
     17403 TIP3     1641     TIP3     OH2      OT      -0.834000       15.9994           0
     17404 TIP3     1641     TIP3     H1       HT       0.417000       1.00800           0
     17405 TIP3     1641     TIP3     H2       HT       0.417000       1.00800           0
     17406 TIP3     1642     TIP3     OH2      OT      -0.834000       15.9994           0
     17407 TIP3     1642     TIP3     H1       HT       0.417000       1.00800           0
     17408 TIP3     1642     TIP3     H2       HT       0.417000       1.00800           0
     17409 TIP3     1643     TIP3     OH2      OT      -0.834000       15.9994           0
     17410 TIP3     1643     TIP3     H1       HT       0.417000       1.00800           0
     17411 TIP3     1643     TIP3     H2       HT       0.417000       1.00800           0
     17412 TIP3     1644     TIP3     OH2      OT      -0.834000       15.9994           0
     17413 TIP3     1644     TIP3     H1       HT       0.417000       1.00800           0
     17414 TIP3     1644     TIP3     H2       HT       0.417000       1.00800           0
     17415 TIP3     1645     TIP3     OH2      OT      -0.834000       15.9994           0
     17416 TIP3     1645     TIP3     H1       HT       0.417000       1.00800           0
     17417 TIP3     1645     TIP3     H2       HT       0.417000       1.00800           0
     17418 TIP3     1646     TIP3     OH2      OT      -0.834000       15.9994           0
     17419 TIP3     1646     TIP3     H1       HT       0.417000       1.00800           0
     17420 TIP3     1646     TIP3     H2       HT       0.417000       1.00800           0
     17421 TIP3     1647     TIP3     OH2      OT      -0.834000       15.9994           0
     17422 TIP3     1647     TIP3     H1       HT       0.417000       1.00800           0
     17423 TIP3     1647     TIP3     H2       HT       0.417000       1.00800           0
     17424 TIP3     1648     TIP3     OH2      OT      -0.834000       15.9994           0
     17425 TIP3     1648     TIP3     H1       HT       0.417000       1.00800           0
     17426 TIP3     1648     TIP3     H2       HT       0.417000       1.00800           0
     17427 TIP3     1649     TIP3     OH2      OT      -0.834000       15.9994           0
     17428 TIP3     1649     TIP3     H1       HT       0.417000       1.00800           0
     17429 TIP3     1649     TIP3     H2       HT       0.417000       1.00800           0
     17430 TIP3     1650     TIP3     OH2      OT      -0.834000       15.9994           0
     17431 TIP3     1650     TIP3     H1       HT       0.417000       1.00800           0
     17432 TIP3     1650     TIP3     H2       HT       0.417000       1.00800           0
     17433 TIP3     1651     TIP3     OH2      OT      -0.834000       15.9994           0
     17434 TIP3     1651     TIP3     H1       HT       0.417000       1.00800           0
     17435 TIP3     1651     TIP3     H2       HT       0.417000       1.00800           0
     17436 TIP3     1652     TIP3     OH2      OT      -0.834000       15.9994           0
     17437 TIP3     1652     TIP3     H1       HT       0.417000       1.00800           0
     17438 TIP3     1652     TIP3     H2       HT       0.417000       1.00800           0
     17439 TIP3     1653     TIP3     OH2      OT      -0.834000       15.9994           0
     17440 TIP3     1653     TIP3     H1       HT       0.417000       1.00800           0
     17441 TIP3     1653     TIP3     H2       HT       0.417000       1.00800           0
     17442 TIP3     1654     TIP3     OH2      OT      -0.834000       15.9994           0
     17443 TIP3     1654     TIP3     H1       HT       0.417000       1.00800           0
     17444 TIP3     1654     TIP3     H2       HT       0.417000       1.00800           0
     17445 TIP3     1655     TIP3     OH2      OT      -0.834000       15.9994           0
     17446 TIP3     1655     TIP3     H1       HT       0.417000       1.00800           0
     17447 TIP3     1655     TIP3     H2       HT       0.417000       1.00800           0
     17448 TIP3     1656     TIP3     OH2      OT      -0.834000       15.9994           0
     17449 TIP3     1656     TIP3     H1       HT       0.417000       1.00800           0
     17450 TIP3     1656     TIP3     H2       HT       0.417000       1.00800           0
     17451 TIP3     1657     TIP3     OH2      OT      -0.834000       15.9994           0
     17452 TIP3     1657     TIP3     H1       HT       0.417000       1.00800           0
     17453 TIP3     1657     TIP3     H2       HT       0.417000       1.00800           0
     17454 TIP3     1658     TIP3     OH2      OT      -0.834000       15.9994           0
     17455 TIP3     1658     TIP3     H1       HT       0.417000       1.00800           0
     17456 TIP3     1658     TIP3     H2       HT       0.417000       1.00800           0
     17457 TIP3     1659     TIP3     OH2      OT      -0.834000       15.9994           0
     17458 TIP3     1659     TIP3     H1       HT       0.417000       1.00800           0
     17459 TIP3     1659     TIP3     H2       HT       0.417000       1.00800           0
     17460 TIP3     1660     TIP3     OH2      OT      -0.834000       15.9994           0
     17461 TIP3     1660     TIP3     H1       HT       0.417000       1.00800           0
     17462 TIP3     1660     TIP3     H2       HT       0.417000       1.00800           0
     17463 TIP3     1661     TIP3     OH2      OT      -0.834000       15.9994           0
     17464 TIP3     1661     TIP3     H1       HT       0.417000       1.00800           0
     17465 TIP3     1661     TIP3     H2       HT       0.417000       1.00800           0
     17466 TIP3     1662     TIP3     OH2      OT      -0.834000       15.9994           0
     17467 TIP3     1662     TIP3     H1       HT       0.417000       1.00800           0
     17468 TIP3     1662     TIP3     H2       HT       0.417000       1.00800           0
     17469 TIP3     1663     TIP3     OH2      OT      -0.834000       15.9994           0
     17470 TIP3     1663     TIP3     H1       HT       0.417000       1.00800           0
     17471 TIP3     1663     TIP3     H2       HT       0.417000       1.00800           0
     17472 TIP3     1664     TIP3     OH2      OT      -0.834000       15.9994           0
     17473 TIP3     1664     TIP3     H1       HT       0.417000       1.00800           0
     17474 TIP3     1664     TIP3     H2       HT       0.417000       1.00800           0
     17475 TIP3     1665     TIP3     OH2      OT      -0.834000       15.9994           0
     17476 TIP3     1665     TIP3     H1       HT       0.417000       1.00800           0
     17477 TIP3     1665     TIP3     H2       HT       0.417000       1.00800           0
     17478 TIP3     1666     TIP3     OH2      OT      -0.834000       15.9994           0
     17479 TIP3     1666     TIP3     H1       HT       0.417000       1.00800           0
     17480 TIP3     1666     TIP3     H2       HT       0.417000       1.00800           0
     17481 TIP3     1667     TIP3     OH2      OT      -0.834000       15.9994           0
     17482 TIP3     1667     TIP3     H1       HT       0.417000       1.00800           0
     17483 TIP3     1667     TIP3     H2       HT       0.417000       1.00800           0
     17484 TIP3     1668     TIP3     OH2      OT      -0.834000       15.9994           0
     17485 TIP3     1668     TIP3     H1       HT       0.417000       1.00800           0
     17486 TIP3     1668     TIP3     H2       HT       0.417000       1.00800           0
     17487 TIP3     1669     TIP3     OH2      OT      -0.834000       15.9994           0
     17488 TIP3     1669     TIP3     H1       HT       0.417000       1.00800           0
     17489 TIP3     1669     TIP3     H2       HT       0.417000       1.00800           0
     17490 TIP3     1670     TIP3     OH2      OT      -0.834000       15.9994           0
     17491 TIP3     1670     TIP3     H1       HT       0.417000       1.00800           0
     17492 TIP3     1670     TIP3     H2       HT       0.417000       1.00800           0
     17493 TIP3     1671     TIP3     OH2      OT      -0.834000       15.9994           0
     17494 TIP3     1671     TIP3     H1       HT       0.417000       1.00800           0
     17495 TIP3     1671     TIP3     H2       HT       0.417000       1.00800           0
     17496 TIP3     1672     TIP3     OH2      OT      -0.834000       15.9994           0
     17497 TIP3     1672     TIP3     H1       HT       0.417000       1.00800           0
     17498 TIP3     1672     TIP3     H2       HT       0.417000       1.00800           0
     17499 TIP3     1673     TIP3     OH2      OT      -0.834000       15.9994           0
     17500 TIP3     1673     TIP3     H1       HT       0.417000       1.00800           0
     17501 TIP3     1673     TIP3     H2       HT       0.417000       1.00800           0
     17502 TIP3     1674     TIP3     OH2      OT      -0.834000       15.9994           0
     17503 TIP3     1674     TIP3     H1       HT       0.417000       1.00800           0
     17504 TIP3     1674     TIP3     H2       HT       0.417000       1.00800           0
     17505 TIP3     1675     TIP3     OH2      OT      -0.834000       15.9994           0
     17506 TIP3     1675     TIP3     H1       HT       0.417000       1.00800           0
     17507 TIP3     1675     TIP3     H2       HT       0.417000       1.00800           0
     17508 TIP3     1676     TIP3     OH2      OT      -0.834000       15.9994           0
     17509 TIP3     1676     TIP3     H1       HT       0.417000       1.00800           0
     17510 TIP3     1676     TIP3     H2       HT       0.417000       1.00800           0
     17511 TIP3     1677     TIP3     OH2      OT      -0.834000       15.9994           0
     17512 TIP3     1677     TIP3     H1       HT       0.417000       1.00800           0
     17513 TIP3     1677     TIP3     H2       HT       0.417000       1.00800           0
     17514 TIP3     1678     TIP3     OH2      OT      -0.834000       15.9994           0
     17515 TIP3     1678     TIP3     H1       HT       0.417000       1.00800           0
     17516 TIP3     1678     TIP3     H2       HT       0.417000       1.00800           0
     17517 TIP3     1679     TIP3     OH2      OT      -0.834000       15.9994           0
     17518 TIP3     1679     TIP3     H1       HT       0.417000       1.00800           0
     17519 TIP3     1679     TIP3     H2       HT       0.417000       1.00800           0
     17520 TIP3     1680     TIP3     OH2      OT      -0.834000       15.9994           0
     17521 TIP3     1680     TIP3     H1       HT       0.417000       1.00800           0
     17522 TIP3     1680     TIP3     H2       HT       0.417000       1.00800           0
     17523 TIP3     1681     TIP3     OH2      OT      -0.834000       15.9994           0
     17524 TIP3     1681     TIP3     H1       HT       0.417000       1.00800           0
     17525 TIP3     1681     TIP3     H2       HT       0.417000       1.00800           0
     17526 TIP3     1682     TIP3     OH2      OT      -0.834000       15.9994           0
     17527 TIP3     1682     TIP3     H1       HT       0.417000       1.00800           0
     17528 TIP3     1682     TIP3     H2       HT       0.417000       1.00800           0
     17529 TIP3     1683     TIP3     OH2      OT      -0.834000       15.9994           0
     17530 TIP3     1683     TIP3     H1       HT       0.417000       1.00800           0
     17531 TIP3     1683     TIP3     H2       HT       0.417000       1.00800           0
     17532 TIP3     1684     TIP3     OH2      OT      -0.834000       15.9994           0
     17533 TIP3     1684     TIP3     H1       HT       0.417000       1.00800           0
     17534 TIP3     1684     TIP3     H2       HT       0.417000       1.00800           0
     17535 TIP3     1685     TIP3     OH2      OT      -0.834000       15.9994           0
     17536 TIP3     1685     TIP3     H1       HT       0.417000       1.00800           0
     17537 TIP3     1685     TIP3     H2       HT       0.417000       1.00800           0
     17538 TIP3     1686     TIP3     OH2      OT      -0.834000       15.9994           0
     17539 TIP3     1686     TIP3     H1       HT       0.417000       1.00800           0
     17540 TIP3     1686     TIP3     H2       HT       0.417000       1.00800           0
     17541 TIP3     1687     TIP3     OH2      OT      -0.834000       15.9994           0
     17542 TIP3     1687     TIP3     H1       HT       0.417000       1.00800           0
     17543 TIP3     1687     TIP3     H2       HT       0.417000       1.00800           0
     17544 TIP3     1688     TIP3     OH2      OT      -0.834000       15.9994           0
     17545 TIP3     1688     TIP3     H1       HT       0.417000       1.00800           0
     17546 TIP3     1688     TIP3     H2       HT       0.417000       1.00800           0
     17547 TIP3     1689     TIP3     OH2      OT      -0.834000       15.9994           0
     17548 TIP3     1689     TIP3     H1       HT       0.417000       1.00800           0
     17549 TIP3     1689     TIP3     H2       HT       0.417000       1.00800           0
     17550 TIP3     1690     TIP3     OH2      OT      -0.834000       15.9994           0
     17551 TIP3     1690     TIP3     H1       HT       0.417000       1.00800           0
     17552 TIP3     1690     TIP3     H2       HT       0.417000       1.00800           0
     17553 TIP3     1691     TIP3     OH2      OT      -0.834000       15.9994           0
     17554 TIP3     1691     TIP3     H1       HT       0.417000       1.00800           0
     17555 TIP3     1691     TIP3     H2       HT       0.417000       1.00800           0
     17556 TIP3     1692     TIP3     OH2      OT      -0.834000       15.9994           0
     17557 TIP3     1692     TIP3     H1       HT       0.417000       1.00800           0
     17558 TIP3     1692     TIP3     H2       HT       0.417000       1.00800           0
     17559 TIP3     1693     TIP3     OH2      OT      -0.834000       15.9994           0
     17560 TIP3     1693     TIP3     H1       HT       0.417000       1.00800           0
     17561 TIP3     1693     TIP3     H2       HT       0.417000       1.00800           0
     17562 TIP3     1694     TIP3     OH2      OT      -0.834000       15.9994           0
     17563 TIP3     1694     TIP3     H1       HT       0.417000       1.00800           0
     17564 TIP3     1694     TIP3     H2       HT       0.417000       1.00800           0
     17565 TIP3     1695     TIP3     OH2      OT      -0.834000       15.9994           0
     17566 TIP3     1695     TIP3     H1       HT       0.417000       1.00800           0
     17567 TIP3     1695     TIP3     H2       HT       0.417000       1.00800           0
     17568 TIP3     1696     TIP3     OH2      OT      -0.834000       15.9994           0
     17569 TIP3     1696     TIP3     H1       HT       0.417000       1.00800           0
     17570 TIP3     1696     TIP3     H2       HT       0.417000       1.00800           0
     17571 TIP3     1697     TIP3     OH2      OT      -0.834000       15.9994           0
     17572 TIP3     1697     TIP3     H1       HT       0.417000       1.00800           0
     17573 TIP3     1697     TIP3     H2       HT       0.417000       1.00800           0
     17574 TIP3     1698     TIP3     OH2      OT      -0.834000       15.9994           0
     17575 TIP3     1698     TIP3     H1       HT       0.417000       1.00800           0
     17576 TIP3     1698     TIP3     H2       HT       0.417000       1.00800           0
     17577 TIP3     1699     TIP3     OH2      OT      -0.834000       15.9994           0
     17578 TIP3     1699     TIP3     H1       HT       0.417000       1.00800           0
     17579 TIP3     1699     TIP3     H2       HT       0.417000       1.00800           0
     17580 TIP3     1700     TIP3     OH2      OT      -0.834000       15.9994           0
     17581 TIP3     1700     TIP3     H1       HT       0.417000       1.00800           0
     17582 TIP3     1700     TIP3     H2       HT       0.417000       1.00800           0
     17583 TIP3     1701     TIP3     OH2      OT      -0.834000       15.9994           0
     17584 TIP3     1701     TIP3     H1       HT       0.417000       1.00800           0
     17585 TIP3     1701     TIP3     H2       HT       0.417000       1.00800           0
     17586 TIP3     1702     TIP3     OH2      OT      -0.834000       15.9994           0
     17587 TIP3     1702     TIP3     H1       HT       0.417000       1.00800           0
     17588 TIP3     1702     TIP3     H2       HT       0.417000       1.00800           0
     17589 TIP3     1703     TIP3     OH2      OT      -0.834000       15.9994           0
     17590 TIP3     1703     TIP3     H1       HT       0.417000       1.00800           0
     17591 TIP3     1703     TIP3     H2       HT       0.417000       1.00800           0
     17592 TIP3     1704     TIP3     OH2      OT      -0.834000       15.9994           0
     17593 TIP3     1704     TIP3     H1       HT       0.417000       1.00800           0
     17594 TIP3     1704     TIP3     H2       HT       0.417000       1.00800           0
     17595 TIP3     1705     TIP3     OH2      OT      -0.834000       15.9994           0
     17596 TIP3     1705     TIP3     H1       HT       0.417000       1.00800           0
     17597 TIP3     1705     TIP3     H2       HT       0.417000       1.00800           0
     17598 TIP3     1706     TIP3     OH2      OT      -0.834000       15.9994           0
     17599 TIP3     1706     TIP3     H1       HT       0.417000       1.00800           0
     17600 TIP3     1706     TIP3     H2       HT       0.417000       1.00800           0
     17601 TIP3     1707     TIP3     OH2      OT      -0.834000       15.9994           0
     17602 TIP3     1707     TIP3     H1       HT       0.417000       1.00800           0
     17603 TIP3     1707     TIP3     H2       HT       0.417000       1.00800           0
     17604 TIP3     1708     TIP3     OH2      OT      -0.834000       15.9994           0
     17605 TIP3     1708     TIP3     H1       HT       0.417000       1.00800           0
     17606 TIP3     1708     TIP3     H2       HT       0.417000       1.00800           0
     17607 TIP3     1709     TIP3     OH2      OT      -0.834000       15.9994           0
     17608 TIP3     1709     TIP3     H1       HT       0.417000       1.00800           0
     17609 TIP3     1709     TIP3     H2       HT       0.417000       1.00800           0
     17610 TIP3     1710     TIP3     OH2      OT      -0.834000       15.9994           0
     17611 TIP3     1710     TIP3     H1       HT       0.417000       1.00800           0
     17612 TIP3     1710     TIP3     H2       HT       0.417000       1.00800           0
     17613 TIP3     1711     TIP3     OH2      OT      -0.834000       15.9994           0
     17614 TIP3     1711     TIP3     H1       HT       0.417000       1.00800           0
     17615 TIP3     1711     TIP3     H2       HT       0.417000       1.00800           0
     17616 TIP3     1712     TIP3     OH2      OT      -0.834000       15.9994           0
     17617 TIP3     1712     TIP3     H1       HT       0.417000       1.00800           0
     17618 TIP3     1712     TIP3     H2       HT       0.417000       1.00800           0
     17619 TIP3     1713     TIP3     OH2      OT      -0.834000       15.9994           0
     17620 TIP3     1713     TIP3     H1       HT       0.417000       1.00800           0
     17621 TIP3     1713     TIP3     H2       HT       0.417000       1.00800           0
     17622 TIP3     1714     TIP3     OH2      OT      -0.834000       15.9994           0
     17623 TIP3     1714     TIP3     H1       HT       0.417000       1.00800           0
     17624 TIP3     1714     TIP3     H2       HT       0.417000       1.00800           0
     17625 TIP3     1715     TIP3     OH2      OT      -0.834000       15.9994           0
     17626 TIP3     1715     TIP3     H1       HT       0.417000       1.00800           0
     17627 TIP3     1715     TIP3     H2       HT       0.417000       1.00800           0
     17628 TIP3     1716     TIP3     OH2      OT      -0.834000       15.9994           0
     17629 TIP3     1716     TIP3     H1       HT       0.417000       1.00800           0
     17630 TIP3     1716     TIP3     H2       HT       0.417000       1.00800           0
     17631 TIP3     1717     TIP3     OH2      OT      -0.834000       15.9994           0
     17632 TIP3     1717     TIP3     H1       HT       0.417000       1.00800           0
     17633 TIP3     1717     TIP3     H2       HT       0.417000       1.00800           0
     17634 TIP3     1718     TIP3     OH2      OT      -0.834000       15.9994           0
     17635 TIP3     1718     TIP3     H1       HT       0.417000       1.00800           0
     17636 TIP3     1718     TIP3     H2       HT       0.417000       1.00800           0
     17637 TIP3     1719     TIP3     OH2      OT      -0.834000       15.9994           0
     17638 TIP3     1719     TIP3     H1       HT       0.417000       1.00800           0
     17639 TIP3     1719     TIP3     H2       HT       0.417000       1.00800           0
     17640 TIP3     1720     TIP3     OH2      OT      -0.834000       15.9994           0
     17641 TIP3     1720     TIP3     H1       HT       0.417000       1.00800           0
     17642 TIP3     1720     TIP3     H2       HT       0.417000       1.00800           0
     17643 TIP3     1721     TIP3     OH2      OT      -0.834000       15.9994           0
     17644 TIP3     1721     TIP3     H1       HT       0.417000       1.00800           0
     17645 TIP3     1721     TIP3     H2       HT       0.417000       1.00800           0
     17646 TIP3     1722     TIP3     OH2      OT      -0.834000       15.9994           0
     17647 TIP3     1722     TIP3     H1       HT       0.417000       1.00800           0
     17648 TIP3     1722     TIP3     H2       HT       0.417000       1.00800           0
     17649 TIP3     1723     TIP3     OH2      OT      -0.834000       15.9994           0
     17650 TIP3     1723     TIP3     H1       HT       0.417000       1.00800           0
     17651 TIP3     1723     TIP3     H2       HT       0.417000       1.00800           0
     17652 TIP3     1724     TIP3     OH2      OT      -0.834000       15.9994           0
     17653 TIP3     1724     TIP3     H1       HT       0.417000       1.00800           0
     17654 TIP3     1724     TIP3     H2       HT       0.417000       1.00800           0
     17655 TIP3     1725     TIP3     OH2      OT      -0.834000       15.9994           0
     17656 TIP3     1725     TIP3     H1       HT       0.417000       1.00800           0
     17657 TIP3     1725     TIP3     H2       HT       0.417000       1.00800           0
     17658 TIP3     1726     TIP3     OH2      OT      -0.834000       15.9994           0
     17659 TIP3     1726     TIP3     H1       HT       0.417000       1.00800           0
     17660 TIP3     1726     TIP3     H2       HT       0.417000       1.00800           0
     17661 TIP3     1727     TIP3     OH2      OT      -0.834000       15.9994           0
     17662 TIP3     1727     TIP3     H1       HT       0.417000       1.00800           0
     17663 TIP3     1727     TIP3     H2       HT       0.417000       1.00800           0
     17664 TIP3     1728     TIP3     OH2      OT      -0.834000       15.9994           0
     17665 TIP3     1728     TIP3     H1       HT       0.417000       1.00800           0
     17666 TIP3     1728     TIP3     H2       HT       0.417000       1.00800           0
     17667 TIP3     1729     TIP3     OH2      OT      -0.834000       15.9994           0
     17668 TIP3     1729     TIP3     H1       HT       0.417000       1.00800           0
     17669 TIP3     1729     TIP3     H2       HT       0.417000       1.00800           0
     17670 TIP3     1730     TIP3     OH2      OT      -0.834000       15.9994           0
     17671 TIP3     1730     TIP3     H1       HT       0.417000       1.00800           0
     17672 TIP3     1730     TIP3     H2       HT       0.417000       1.00800           0
     17673 TIP3     1731     TIP3     OH2      OT      -0.834000       15.9994           0
     17674 TIP3     1731     TIP3     H1       HT       0.417000       1.00800           0
     17675 TIP3     1731     TIP3     H2       HT       0.417000       1.00800           0
     17676 TIP3     1732     TIP3     OH2      OT      -0.834000       15.9994           0
     17677 TIP3     1732     TIP3     H1       HT       0.417000       1.00800           0
     17678 TIP3     1732     TIP3     H2       HT       0.417000       1.00800           0
     17679 TIP3     1733     TIP3     OH2      OT      -0.834000       15.9994           0
     17680 TIP3     1733     TIP3     H1       HT       0.417000       1.00800           0
     17681 TIP3     1733     TIP3     H2       HT       0.417000       1.00800           0
     17682 TIP3     1734     TIP3     OH2      OT      -0.834000       15.9994           0
     17683 TIP3     1734     TIP3     H1       HT       0.417000       1.00800           0
     17684 TIP3     1734     TIP3     H2       HT       0.417000       1.00800           0
     17685 TIP3     1735     TIP3     OH2      OT      -0.834000       15.9994           0
     17686 TIP3     1735     TIP3     H1       HT       0.417000       1.00800           0
     17687 TIP3     1735     TIP3     H2       HT       0.417000       1.00800           0
     17688 TIP3     1736     TIP3     OH2      OT      -0.834000       15.9994           0
     17689 TIP3     1736     TIP3     H1       HT       0.417000       1.00800           0
     17690 TIP3     1736     TIP3     H2       HT       0.417000       1.00800           0
     17691 TIP3     1737     TIP3     OH2      OT      -0.834000       15.9994           0
     17692 TIP3     1737     TIP3     H1       HT       0.417000       1.00800           0
     17693 TIP3     1737     TIP3     H2       HT       0.417000       1.00800           0
     17694 TIP3     1738     TIP3     OH2      OT      -0.834000       15.9994           0
     17695 TIP3     1738     TIP3     H1       HT       0.417000       1.00800           0
     17696 TIP3     1738     TIP3     H2       HT       0.417000       1.00800           0
     17697 TIP3     1739     TIP3     OH2      OT      -0.834000       15.9994           0
     17698 TIP3     1739     TIP3     H1       HT       0.417000       1.00800           0
     17699 TIP3     1739     TIP3     H2       HT       0.417000       1.00800           0
     17700 TIP3     1740     TIP3     OH2      OT      -0.834000       15.9994           0
     17701 TIP3     1740     TIP3     H1       HT       0.417000       1.00800           0
     17702 TIP3     1740     TIP3     H2       HT       0.417000       1.00800           0
     17703 TIP3     1741     TIP3     OH2      OT      -0.834000       15.9994           0
     17704 TIP3     1741     TIP3     H1       HT       0.417000       1.00800           0
     17705 TIP3     1741     TIP3     H2       HT       0.417000       1.00800           0
     17706 TIP3     1742     TIP3     OH2      OT      -0.834000       15.9994           0
     17707 TIP3     1742     TIP3     H1       HT       0.417000       1.00800           0
     17708 TIP3     1742     TIP3     H2       HT       0.417000       1.00800           0
     17709 TIP3     1743     TIP3     OH2      OT      -0.834000       15.9994           0
     17710 TIP3     1743     TIP3     H1       HT       0.417000       1.00800           0
     17711 TIP3     1743     TIP3     H2       HT       0.417000       1.00800           0
     17712 TIP3     1744     TIP3     OH2      OT      -0.834000       15.9994           0
     17713 TIP3     1744     TIP3     H1       HT       0.417000       1.00800           0
     17714 TIP3     1744     TIP3     H2       HT       0.417000       1.00800           0
     17715 TIP3     1745     TIP3     OH2      OT      -0.834000       15.9994           0
     17716 TIP3     1745     TIP3     H1       HT       0.417000       1.00800           0
     17717 TIP3     1745     TIP3     H2       HT       0.417000       1.00800           0
     17718 TIP3     1746     TIP3     OH2      OT      -0.834000       15.9994           0
     17719 TIP3     1746     TIP3     H1       HT       0.417000       1.00800           0
     17720 TIP3     1746     TIP3     H2       HT       0.417000       1.00800           0
     17721 TIP3     1747     TIP3     OH2      OT      -0.834000       15.9994           0
     17722 TIP3     1747     TIP3     H1       HT       0.417000       1.00800           0
     17723 TIP3     1747     TIP3     H2       HT       0.417000       1.00800           0
     17724 TIP3     1748     TIP3     OH2      OT      -0.834000       15.9994           0
     17725 TIP3     1748     TIP3     H1       HT       0.417000       1.00800           0
     17726 TIP3     1748     TIP3     H2       HT       0.417000       1.00800           0
     17727 TIP3     1749     TIP3     OH2      OT      -0.834000       15.9994           0
     17728 TIP3     1749     TIP3     H1       HT       0.417000       1.00800           0
     17729 TIP3     1749     TIP3     H2       HT       0.417000       1.00800           0
     17730 TIP3     1750     TIP3     OH2      OT      -0.834000       15.9994           0
     17731 TIP3     1750     TIP3     H1       HT       0.417000       1.00800           0
     17732 TIP3     1750     TIP3     H2       HT       0.417000       1.00800           0
     17733 TIP3     1751     TIP3     OH2      OT      -0.834000       15.9994           0
     17734 TIP3     1751     TIP3     H1       HT       0.417000       1.00800           0
     17735 TIP3     1751     TIP3     H2       HT       0.417000       1.00800           0
     17736 TIP3     1752     TIP3     OH2      OT      -0.834000       15.9994           0
     17737 TIP3     1752     TIP3     H1       HT       0.417000       1.00800           0
     17738 TIP3     1752     TIP3     H2       HT       0.417000       1.00800           0
     17739 TIP3     1753     TIP3     OH2      OT      -0.834000       15.9994           0
     17740 TIP3     1753     TIP3     H1       HT       0.417000       1.00800           0
     17741 TIP3     1753     TIP3     H2       HT       0.417000       1.00800           0
     17742 TIP3     1754     TIP3     OH2      OT      -0.834000       15.9994           0
     17743 TIP3     1754     TIP3     H1       HT       0.417000       1.00800           0
     17744 TIP3     1754     TIP3     H2       HT       0.417000       1.00800           0
     17745 TIP3     1755     TIP3     OH2      OT      -0.834000       15.9994           0
     17746 TIP3     1755     TIP3     H1       HT       0.417000       1.00800           0
     17747 TIP3     1755     TIP3     H2       HT       0.417000       1.00800           0
     17748 TIP3     1756     TIP3     OH2      OT      -0.834000       15.9994           0
     17749 TIP3     1756     TIP3     H1       HT       0.417000       1.00800           0
     17750 TIP3     1756     TIP3     H2       HT       0.417000       1.00800           0
     17751 TIP3     1757     TIP3     OH2      OT      -0.834000       15.9994           0
     17752 TIP3     1757     TIP3     H1       HT       0.417000       1.00800           0
     17753 TIP3     1757     TIP3     H2       HT       0.417000       1.00800           0
     17754 TIP3     1758     TIP3     OH2      OT      -0.834000       15.9994           0
     17755 TIP3     1758     TIP3     H1       HT       0.417000       1.00800           0
     17756 TIP3     1758     TIP3     H2       HT       0.417000       1.00800           0
     17757 TIP3     1759     TIP3     OH2      OT      -0.834000       15.9994           0
     17758 TIP3     1759     TIP3     H1       HT       0.417000       1.00800           0
     17759 TIP3     1759     TIP3     H2       HT       0.417000       1.00800           0
     17760 TIP3     1760     TIP3     OH2      OT      -0.834000       15.9994           0
     17761 TIP3     1760     TIP3     H1       HT       0.417000       1.00800           0
     17762 TIP3     1760     TIP3     H2       HT       0.417000       1.00800           0
     17763 TIP3     1761     TIP3     OH2      OT      -0.834000       15.9994           0
     17764 TIP3     1761     TIP3     H1       HT       0.417000       1.00800           0
     17765 TIP3     1761     TIP3     H2       HT       0.417000       1.00800           0
     17766 TIP3     1762     TIP3     OH2      OT      -0.834000       15.9994           0
     17767 TIP3     1762     TIP3     H1       HT       0.417000       1.00800           0
     17768 TIP3     1762     TIP3     H2       HT       0.417000       1.00800           0
     17769 TIP3     1763     TIP3     OH2      OT      -0.834000       15.9994           0
     17770 TIP3     1763     TIP3     H1       HT       0.417000       1.00800           0
     17771 TIP3     1763     TIP3     H2       HT       0.417000       1.00800           0
     17772 TIP3     1764     TIP3     OH2      OT      -0.834000       15.9994           0
     17773 TIP3     1764     TIP3     H1       HT       0.417000       1.00800           0
     17774 TIP3     1764     TIP3     H2       HT       0.417000       1.00800           0
     17775 TIP3     1765     TIP3     OH2      OT      -0.834000       15.9994           0
     17776 TIP3     1765     TIP3     H1       HT       0.417000       1.00800           0
     17777 TIP3     1765     TIP3     H2       HT       0.417000       1.00800           0
     17778 TIP3     1766     TIP3     OH2      OT      -0.834000       15.9994           0
     17779 TIP3     1766     TIP3     H1       HT       0.417000       1.00800           0
     17780 TIP3     1766     TIP3     H2       HT       0.417000       1.00800           0
     17781 TIP3     1767     TIP3     OH2      OT      -0.834000       15.9994           0
     17782 TIP3     1767     TIP3     H1       HT       0.417000       1.00800           0
     17783 TIP3     1767     TIP3     H2       HT       0.417000       1.00800           0
     17784 TIP3     1768     TIP3     OH2      OT      -0.834000       15.9994           0
     17785 TIP3     1768     TIP3     H1       HT       0.417000       1.00800           0
     17786 TIP3     1768     TIP3     H2       HT       0.417000       1.00800           0
     17787 TIP3     1769     TIP3     OH2      OT      -0.834000       15.9994           0
     17788 TIP3     1769     TIP3     H1       HT       0.417000       1.00800           0
     17789 TIP3     1769     TIP3     H2       HT       0.417000       1.00800           0
     17790 TIP3     1770     TIP3     OH2      OT      -0.834000       15.9994           0
     17791 TIP3     1770     TIP3     H1       HT       0.417000       1.00800           0
     17792 TIP3     1770     TIP3     H2       HT       0.417000       1.00800           0
     17793 TIP3     1771     TIP3     OH2      OT      -0.834000       15.9994           0
     17794 TIP3     1771     TIP3     H1       HT       0.417000       1.00800           0
     17795 TIP3     1771     TIP3     H2       HT       0.417000       1.00800           0
     17796 TIP3     1772     TIP3     OH2      OT      -0.834000       15.9994           0
     17797 TIP3     1772     TIP3     H1       HT       0.417000       1.00800           0
     17798 TIP3     1772     TIP3     H2       HT       0.417000       1.00800           0
     17799 TIP3     1773     TIP3     OH2      OT      -0.834000       15.9994           0
     17800 TIP3     1773     TIP3     H1       HT       0.417000       1.00800           0
     17801 TIP3     1773     TIP3     H2       HT       0.417000       1.00800           0
     17802 TIP3     1774     TIP3     OH2      OT      -0.834000       15.9994           0
     17803 TIP3     1774     TIP3     H1       HT       0.417000       1.00800           0
     17804 TIP3     1774     TIP3     H2       HT       0.417000       1.00800           0
     17805 TIP3     1775     TIP3     OH2      OT      -0.834000       15.9994           0
     17806 TIP3     1775     TIP3     H1       HT       0.417000       1.00800           0
     17807 TIP3     1775     TIP3     H2       HT       0.417000       1.00800           0
     17808 TIP3     1776     TIP3     OH2      OT      -0.834000       15.9994           0
     17809 TIP3     1776     TIP3     H1       HT       0.417000       1.00800           0
     17810 TIP3     1776     TIP3     H2       HT       0.417000       1.00800           0
     17811 TIP3     1777     TIP3     OH2      OT      -0.834000       15.9994           0
     17812 TIP3     1777     TIP3     H1       HT       0.417000       1.00800           0
     17813 TIP3     1777     TIP3     H2       HT       0.417000       1.00800           0
     17814 TIP3     1778     TIP3     OH2      OT      -0.834000       15.9994           0
     17815 TIP3     1778     TIP3     H1       HT       0.417000       1.00800           0
     17816 TIP3     1778     TIP3     H2       HT       0.417000       1.00800           0
     17817 TIP3     1779     TIP3     OH2      OT      -0.834000       15.9994           0
     17818 TIP3     1779     TIP3     H1       HT       0.417000       1.00800           0
     17819 TIP3     1779     TIP3     H2       HT       0.417000       1.00800           0
     17820 TIP3     1780     TIP3     OH2      OT      -0.834000       15.9994           0
     17821 TIP3     1780     TIP3     H1       HT       0.417000       1.00800           0
     17822 TIP3     1780     TIP3     H2       HT       0.417000       1.00800           0
     17823 TIP3     1781     TIP3     OH2      OT      -0.834000       15.9994           0
     17824 TIP3     1781     TIP3     H1       HT       0.417000       1.00800           0
     17825 TIP3     1781     TIP3     H2       HT       0.417000       1.00800           0
     17826 TIP3     1782     TIP3     OH2      OT      -0.834000       15.9994           0
     17827 TIP3     1782     TIP3     H1       HT       0.417000       1.00800           0
     17828 TIP3     1782     TIP3     H2       HT       0.417000       1.00800           0
     17829 TIP3     1783     TIP3     OH2      OT      -0.834000       15.9994           0
     17830 TIP3     1783     TIP3     H1       HT       0.417000       1.00800           0
     17831 TIP3     1783     TIP3     H2       HT       0.417000       1.00800           0
     17832 TIP3     1784     TIP3     OH2      OT      -0.834000       15.9994           0
     17833 TIP3     1784     TIP3     H1       HT       0.417000       1.00800           0
     17834 TIP3     1784     TIP3     H2       HT       0.417000       1.00800           0
     17835 TIP3     1785     TIP3     OH2      OT      -0.834000       15.9994           0
     17836 TIP3     1785     TIP3     H1       HT       0.417000       1.00800           0
     17837 TIP3     1785     TIP3     H2       HT       0.417000       1.00800           0
     17838 TIP3     1786     TIP3     OH2      OT      -0.834000       15.9994           0
     17839 TIP3     1786     TIP3     H1       HT       0.417000       1.00800           0
     17840 TIP3     1786     TIP3     H2       HT       0.417000       1.00800           0
     17841 TIP3     1787     TIP3     OH2      OT      -0.834000       15.9994           0
     17842 TIP3     1787     TIP3     H1       HT       0.417000       1.00800           0
     17843 TIP3     1787     TIP3     H2       HT       0.417000       1.00800           0
     17844 TIP3     1788     TIP3     OH2      OT      -0.834000       15.9994           0
     17845 TIP3     1788     TIP3     H1       HT       0.417000       1.00800           0
     17846 TIP3     1788     TIP3     H2       HT       0.417000       1.00800           0
     17847 TIP3     1789     TIP3     OH2      OT      -0.834000       15.9994           0
     17848 TIP3     1789     TIP3     H1       HT       0.417000       1.00800           0
     17849 TIP3     1789     TIP3     H2       HT       0.417000       1.00800           0
     17850 TIP3     1790     TIP3     OH2      OT      -0.834000       15.9994           0
     17851 TIP3     1790     TIP3     H1       HT       0.417000       1.00800           0
     17852 TIP3     1790     TIP3     H2       HT       0.417000       1.00800           0
     17853 TIP3     1791     TIP3     OH2      OT      -0.834000       15.9994           0
     17854 TIP3     1791     TIP3     H1       HT       0.417000       1.00800           0
     17855 TIP3     1791     TIP3     H2       HT       0.417000       1.00800           0
     17856 TIP3     1792     TIP3     OH2      OT      -0.834000       15.9994           0
     17857 TIP3     1792     TIP3     H1       HT       0.417000       1.00800           0
     17858 TIP3     1792     TIP3     H2       HT       0.417000       1.00800           0
     17859 TIP3     1793     TIP3     OH2      OT      -0.834000       15.9994           0
     17860 TIP3     1793     TIP3     H1       HT       0.417000       1.00800           0
     17861 TIP3     1793     TIP3     H2       HT       0.417000       1.00800           0
     17862 TIP3     1794     TIP3     OH2      OT      -0.834000       15.9994           0
     17863 TIP3     1794     TIP3     H1       HT       0.417000       1.00800           0
     17864 TIP3     1794     TIP3     H2       HT       0.417000       1.00800           0
     17865 TIP3     1795     TIP3     OH2      OT      -0.834000       15.9994           0
     17866 TIP3     1795     TIP3     H1       HT       0.417000       1.00800           0
     17867 TIP3     1795     TIP3     H2       HT       0.417000       1.00800           0
     17868 TIP3     1796     TIP3     OH2      OT      -0.834000       15.9994           0
     17869 TIP3     1796     TIP3     H1       HT       0.417000       1.00800           0
     17870 TIP3     1796     TIP3     H2       HT       0.417000       1.00800           0
     17871 TIP3     1797     TIP3     OH2      OT      -0.834000       15.9994           0
     17872 TIP3     1797     TIP3     H1       HT       0.417000       1.00800           0
     17873 TIP3     1797     TIP3     H2       HT       0.417000       1.00800           0
     17874 TIP3     1798     TIP3     OH2      OT      -0.834000       15.9994           0
     17875 TIP3     1798     TIP3     H1       HT       0.417000       1.00800           0
     17876 TIP3     1798     TIP3     H2       HT       0.417000       1.00800           0
     17877 TIP3     1799     TIP3     OH2      OT      -0.834000       15.9994           0
     17878 TIP3     1799     TIP3     H1       HT       0.417000       1.00800           0
     17879 TIP3     1799     TIP3     H2       HT       0.417000       1.00800           0
     17880 TIP3     1800     TIP3     OH2      OT      -0.834000       15.9994           0
     17881 TIP3     1800     TIP3     H1       HT       0.417000       1.00800           0
     17882 TIP3     1800     TIP3     H2       HT       0.417000       1.00800           0
     17883 TIP3     1801     TIP3     OH2      OT      -0.834000       15.9994           0
     17884 TIP3     1801     TIP3     H1       HT       0.417000       1.00800           0
     17885 TIP3     1801     TIP3     H2       HT       0.417000       1.00800           0
     17886 TIP3     1802     TIP3     OH2      OT      -0.834000       15.9994           0
     17887 TIP3     1802     TIP3     H1       HT       0.417000       1.00800           0
     17888 TIP3     1802     TIP3     H2       HT       0.417000       1.00800           0
     17889 TIP3     1803     TIP3     OH2      OT      -0.834000       15.9994           0
     17890 TIP3     1803     TIP3     H1       HT       0.417000       1.00800           0
     17891 TIP3     1803     TIP3     H2       HT       0.417000       1.00800           0
     17892 TIP3     1804     TIP3     OH2      OT      -0.834000       15.9994           0
     17893 TIP3     1804     TIP3     H1       HT       0.417000       1.00800           0
     17894 TIP3     1804     TIP3     H2       HT       0.417000       1.00800           0
     17895 TIP3     1805     TIP3     OH2      OT      -0.834000       15.9994           0
     17896 TIP3     1805     TIP3     H1       HT       0.417000       1.00800           0
     17897 TIP3     1805     TIP3     H2       HT       0.417000       1.00800           0
     17898 TIP3     1806     TIP3     OH2      OT      -0.834000       15.9994           0
     17899 TIP3     1806     TIP3     H1       HT       0.417000       1.00800           0
     17900 TIP3     1806     TIP3     H2       HT       0.417000       1.00800           0
     17901 TIP3     1807     TIP3     OH2      OT      -0.834000       15.9994           0
     17902 TIP3     1807     TIP3     H1       HT       0.417000       1.00800           0
     17903 TIP3     1807     TIP3     H2       HT       0.417000       1.00800           0
     17904 TIP3     1808     TIP3     OH2      OT      -0.834000       15.9994           0
     17905 TIP3     1808     TIP3     H1       HT       0.417000       1.00800           0
     17906 TIP3     1808     TIP3     H2       HT       0.417000       1.00800           0
     17907 TIP3     1809     TIP3     OH2      OT      -0.834000       15.9994           0
     17908 TIP3     1809     TIP3     H1       HT       0.417000       1.00800           0
     17909 TIP3     1809     TIP3     H2       HT       0.417000       1.00800           0
     17910 TIP3     1810     TIP3     OH2      OT      -0.834000       15.9994           0
     17911 TIP3     1810     TIP3     H1       HT       0.417000       1.00800           0
     17912 TIP3     1810     TIP3     H2       HT       0.417000       1.00800           0
     17913 TIP3     1811     TIP3     OH2      OT      -0.834000       15.9994           0
     17914 TIP3     1811     TIP3     H1       HT       0.417000       1.00800           0
     17915 TIP3     1811     TIP3     H2       HT       0.417000       1.00800           0
     17916 TIP3     1812     TIP3     OH2      OT      -0.834000       15.9994           0
     17917 TIP3     1812     TIP3     H1       HT       0.417000       1.00800           0
     17918 TIP3     1812     TIP3     H2       HT       0.417000       1.00800           0
     17919 TIP3     1813     TIP3     OH2      OT      -0.834000       15.9994           0
     17920 TIP3     1813     TIP3     H1       HT       0.417000       1.00800           0
     17921 TIP3     1813     TIP3     H2       HT       0.417000       1.00800           0
     17922 TIP3     1814     TIP3     OH2      OT      -0.834000       15.9994           0
     17923 TIP3     1814     TIP3     H1       HT       0.417000       1.00800           0
     17924 TIP3     1814     TIP3     H2       HT       0.417000       1.00800           0
     17925 TIP3     1815     TIP3     OH2      OT      -0.834000       15.9994           0
     17926 TIP3     1815     TIP3     H1       HT       0.417000       1.00800           0
     17927 TIP3     1815     TIP3     H2       HT       0.417000       1.00800           0
     17928 TIP3     1816     TIP3     OH2      OT      -0.834000       15.9994           0
     17929 TIP3     1816     TIP3     H1       HT       0.417000       1.00800           0
     17930 TIP3     1816     TIP3     H2       HT       0.417000       1.00800           0
     17931 TIP3     1817     TIP3     OH2      OT      -0.834000       15.9994           0
     17932 TIP3     1817     TIP3     H1       HT       0.417000       1.00800           0
     17933 TIP3     1817     TIP3     H2       HT       0.417000       1.00800           0
     17934 TIP3     1818     TIP3     OH2      OT      -0.834000       15.9994           0
     17935 TIP3     1818     TIP3     H1       HT       0.417000       1.00800           0
     17936 TIP3     1818     TIP3     H2       HT       0.417000       1.00800           0
     17937 TIP3     1819     TIP3     OH2      OT      -0.834000       15.9994           0
     17938 TIP3     1819     TIP3     H1       HT       0.417000       1.00800           0
     17939 TIP3     1819     TIP3     H2       HT       0.417000       1.00800           0
     17940 TIP3     1820     TIP3     OH2      OT      -0.834000       15.9994           0
     17941 TIP3     1820     TIP3     H1       HT       0.417000       1.00800           0
     17942 TIP3     1820     TIP3     H2       HT       0.417000       1.00800           0
     17943 TIP3     1821     TIP3     OH2      OT      -0.834000       15.9994           0
     17944 TIP3     1821     TIP3     H1       HT       0.417000       1.00800           0
     17945 TIP3     1821     TIP3     H2       HT       0.417000       1.00800           0
     17946 TIP3     1822     TIP3     OH2      OT      -0.834000       15.9994           0
     17947 TIP3     1822     TIP3     H1       HT       0.417000       1.00800           0
     17948 TIP3     1822     TIP3     H2       HT       0.417000       1.00800           0
     17949 TIP3     1823     TIP3     OH2      OT      -0.834000       15.9994           0
     17950 TIP3     1823     TIP3     H1       HT       0.417000       1.00800           0
     17951 TIP3     1823     TIP3     H2       HT       0.417000       1.00800           0
     17952 TIP3     1824     TIP3     OH2      OT      -0.834000       15.9994           0
     17953 TIP3     1824     TIP3     H1       HT       0.417000       1.00800           0
     17954 TIP3     1824     TIP3     H2       HT       0.417000       1.00800           0
     17955 TIP3     1825     TIP3     OH2      OT      -0.834000       15.9994           0
     17956 TIP3     1825     TIP3     H1       HT       0.417000       1.00800           0
     17957 TIP3     1825     TIP3     H2       HT       0.417000       1.00800           0
     17958 TIP3     1826     TIP3     OH2      OT      -0.834000       15.9994           0
     17959 TIP3     1826     TIP3     H1       HT       0.417000       1.00800           0
     17960 TIP3     1826     TIP3     H2       HT       0.417000       1.00800           0
     17961 TIP3     1827     TIP3     OH2      OT      -0.834000       15.9994           0
     17962 TIP3     1827     TIP3     H1       HT       0.417000       1.00800           0
     17963 TIP3     1827     TIP3     H2       HT       0.417000       1.00800           0
     17964 TIP3     1828     TIP3     OH2      OT      -0.834000       15.9994           0
     17965 TIP3     1828     TIP3     H1       HT       0.417000       1.00800           0
     17966 TIP3     1828     TIP3     H2       HT       0.417000       1.00800           0
     17967 TIP3     1829     TIP3     OH2      OT      -0.834000       15.9994           0
     17968 TIP3     1829     TIP3     H1       HT       0.417000       1.00800           0
     17969 TIP3     1829     TIP3     H2       HT       0.417000       1.00800           0
     17970 TIP3     1830     TIP3     OH2      OT      -0.834000       15.9994           0
     17971 TIP3     1830     TIP3     H1       HT       0.417000       1.00800           0
     17972 TIP3     1830     TIP3     H2       HT       0.417000       1.00800           0
     17973 TIP3     1831     TIP3     OH2      OT      -0.834000       15.9994           0
     17974 TIP3     1831     TIP3     H1       HT       0.417000       1.00800           0
     17975 TIP3     1831     TIP3     H2       HT       0.417000       1.00800           0
     17976 TIP3     1832     TIP3     OH2      OT      -0.834000       15.9994           0
     17977 TIP3     1832     TIP3     H1       HT       0.417000       1.00800           0
     17978 TIP3     1832     TIP3     H2       HT       0.417000       1.00800           0
     17979 TIP3     1833     TIP3     OH2      OT      -0.834000       15.9994           0
     17980 TIP3     1833     TIP3     H1       HT       0.417000       1.00800           0
     17981 TIP3     1833     TIP3     H2       HT       0.417000       1.00800           0
     17982 TIP3     1834     TIP3     OH2      OT      -0.834000       15.9994           0
     17983 TIP3     1834     TIP3     H1       HT       0.417000       1.00800           0
     17984 TIP3     1834     TIP3     H2       HT       0.417000       1.00800           0
     17985 TIP3     1835     TIP3     OH2      OT      -0.834000       15.9994           0
     17986 TIP3     1835     TIP3     H1       HT       0.417000       1.00800           0
     17987 TIP3     1835     TIP3     H2       HT       0.417000       1.00800           0
     17988 TIP3     1836     TIP3     OH2      OT      -0.834000       15.9994           0
     17989 TIP3     1836     TIP3     H1       HT       0.417000       1.00800           0
     17990 TIP3     1836     TIP3     H2       HT       0.417000       1.00800           0
     17991 TIP3     1837     TIP3     OH2      OT      -0.834000       15.9994           0
     17992 TIP3     1837     TIP3     H1       HT       0.417000       1.00800           0
     17993 TIP3     1837     TIP3     H2       HT       0.417000       1.00800           0
     17994 TIP3     1838     TIP3     OH2      OT      -0.834000       15.9994           0
     17995 TIP3     1838     TIP3     H1       HT       0.417000       1.00800           0
     17996 TIP3     1838     TIP3     H2       HT       0.417000       1.00800           0
     17997 TIP3     1839     TIP3     OH2      OT      -0.834000       15.9994           0
     17998 TIP3     1839     TIP3     H1       HT       0.417000       1.00800           0
     17999 TIP3     1839     TIP3     H2       HT       0.417000       1.00800           0
     18000 TIP3     1840     TIP3     OH2      OT      -0.834000       15.9994           0
     18001 TIP3     1840     TIP3     H1       HT       0.417000       1.00800           0
     18002 TIP3     1840     TIP3     H2       HT       0.417000       1.00800           0
     18003 TIP3     1841     TIP3     OH2      OT      -0.834000       15.9994           0
     18004 TIP3     1841     TIP3     H1       HT       0.417000       1.00800           0
     18005 TIP3     1841     TIP3     H2       HT       0.417000       1.00800           0
     18006 TIP3     1842     TIP3     OH2      OT      -0.834000       15.9994           0
     18007 TIP3     1842     TIP3     H1       HT       0.417000       1.00800           0
     18008 TIP3     1842     TIP3     H2       HT       0.417000       1.00800           0
     18009 TIP3     1843     TIP3     OH2      OT      -0.834000       15.9994           0
     18010 TIP3     1843     TIP3     H1       HT       0.417000       1.00800           0
     18011 TIP3     1843     TIP3     H2       HT       0.417000       1.00800           0
     18012 TIP3     1844     TIP3     OH2      OT      -0.834000       15.9994           0
     18013 TIP3     1844     TIP3     H1       HT       0.417000       1.00800           0
     18014 TIP3     1844     TIP3     H2       HT       0.417000       1.00800           0
     18015 TIP3     1845     TIP3     OH2      OT      -0.834000       15.9994           0
     18016 TIP3     1845     TIP3     H1       HT       0.417000       1.00800           0
     18017 TIP3     1845     TIP3     H2       HT       0.417000       1.00800           0
     18018 TIP3     1846     TIP3     OH2      OT      -0.834000       15.9994           0
     18019 TIP3     1846     TIP3     H1       HT       0.417000       1.00800           0
     18020 TIP3     1846     TIP3     H2       HT       0.417000       1.00800           0
     18021 TIP3     1847     TIP3     OH2      OT      -0.834000       15.9994           0
     18022 TIP3     1847     TIP3     H1       HT       0.417000       1.00800           0
     18023 TIP3     1847     TIP3     H2       HT       0.417000       1.00800           0
     18024 TIP3     1848     TIP3     OH2      OT      -0.834000       15.9994           0
     18025 TIP3     1848     TIP3     H1       HT       0.417000       1.00800           0
     18026 TIP3     1848     TIP3     H2       HT       0.417000       1.00800           0
     18027 TIP3     1849     TIP3     OH2      OT      -0.834000       15.9994           0
     18028 TIP3     1849     TIP3     H1       HT       0.417000       1.00800           0
     18029 TIP3     1849     TIP3     H2       HT       0.417000       1.00800           0
     18030 TIP3     1850     TIP3     OH2      OT      -0.834000       15.9994           0
     18031 TIP3     1850     TIP3     H1       HT       0.417000       1.00800           0
     18032 TIP3     1850     TIP3     H2       HT       0.417000       1.00800           0
     18033 TIP3     1851     TIP3     OH2      OT      -0.834000       15.9994           0
     18034 TIP3     1851     TIP3     H1       HT       0.417000       1.00800           0
     18035 TIP3     1851     TIP3     H2       HT       0.417000       1.00800           0
     18036 TIP3     1852     TIP3     OH2      OT      -0.834000       15.9994           0
     18037 TIP3     1852     TIP3     H1       HT       0.417000       1.00800           0
     18038 TIP3     1852     TIP3     H2       HT       0.417000       1.00800           0
     18039 TIP3     1853     TIP3     OH2      OT      -0.834000       15.9994           0
     18040 TIP3     1853     TIP3     H1       HT       0.417000       1.00800           0
     18041 TIP3     1853     TIP3     H2       HT       0.417000       1.00800           0
     18042 TIP3     1854     TIP3     OH2      OT      -0.834000       15.9994           0
     18043 TIP3     1854     TIP3     H1       HT       0.417000       1.00800           0
     18044 TIP3     1854     TIP3     H2       HT       0.417000       1.00800           0
     18045 TIP3     1855     TIP3     OH2      OT      -0.834000       15.9994           0
     18046 TIP3     1855     TIP3     H1       HT       0.417000       1.00800           0
     18047 TIP3     1855     TIP3     H2       HT       0.417000       1.00800           0
     18048 TIP3     1856     TIP3     OH2      OT      -0.834000       15.9994           0
     18049 TIP3     1856     TIP3     H1       HT       0.417000       1.00800           0
     18050 TIP3     1856     TIP3     H2       HT       0.417000       1.00800           0
     18051 TIP3     1857     TIP3     OH2      OT      -0.834000       15.9994           0
     18052 TIP3     1857     TIP3     H1       HT       0.417000       1.00800           0
     18053 TIP3     1857     TIP3     H2       HT       0.417000       1.00800           0
     18054 TIP3     1858     TIP3     OH2      OT      -0.834000       15.9994           0
     18055 TIP3     1858     TIP3     H1       HT       0.417000       1.00800           0
     18056 TIP3     1858     TIP3     H2       HT       0.417000       1.00800           0
     18057 TIP3     1859     TIP3     OH2      OT      -0.834000       15.9994           0
     18058 TIP3     1859     TIP3     H1       HT       0.417000       1.00800           0
     18059 TIP3     1859     TIP3     H2       HT       0.417000       1.00800           0
     18060 TIP3     1860     TIP3     OH2      OT      -0.834000       15.9994           0
     18061 TIP3     1860     TIP3     H1       HT       0.417000       1.00800           0
     18062 TIP3     1860     TIP3     H2       HT       0.417000       1.00800           0
     18063 TIP3     1861     TIP3     OH2      OT      -0.834000       15.9994           0
     18064 TIP3     1861     TIP3     H1       HT       0.417000       1.00800           0
     18065 TIP3     1861     TIP3     H2       HT       0.417000       1.00800           0
     18066 TIP3     1862     TIP3     OH2      OT      -0.834000       15.9994           0
     18067 TIP3     1862     TIP3     H1       HT       0.417000       1.00800           0
     18068 TIP3     1862     TIP3     H2       HT       0.417000       1.00800           0
     18069 TIP3     1863     TIP3     OH2      OT      -0.834000       15.9994           0
     18070 TIP3     1863     TIP3     H1       HT       0.417000       1.00800           0
     18071 TIP3     1863     TIP3     H2       HT       0.417000       1.00800           0
     18072 TIP3     1864     TIP3     OH2      OT      -0.834000       15.9994           0
     18073 TIP3     1864     TIP3     H1       HT       0.417000       1.00800           0
     18074 TIP3     1864     TIP3     H2       HT       0.417000       1.00800           0
     18075 TIP3     1865     TIP3     OH2      OT      -0.834000       15.9994           0
     18076 TIP3     1865     TIP3     H1       HT       0.417000       1.00800           0
     18077 TIP3     1865     TIP3     H2       HT       0.417000       1.00800           0
     18078 TIP3     1866     TIP3     OH2      OT      -0.834000       15.9994           0
     18079 TIP3     1866     TIP3     H1       HT       0.417000       1.00800           0
     18080 TIP3     1866     TIP3     H2       HT       0.417000       1.00800           0
     18081 TIP3     1867     TIP3     OH2      OT      -0.834000       15.9994           0
     18082 TIP3     1867     TIP3     H1       HT       0.417000       1.00800           0
     18083 TIP3     1867     TIP3     H2       HT       0.417000       1.00800           0
     18084 TIP3     1868     TIP3     OH2      OT      -0.834000       15.9994           0
     18085 TIP3     1868     TIP3     H1       HT       0.417000       1.00800           0
     18086 TIP3     1868     TIP3     H2       HT       0.417000       1.00800           0
     18087 TIP3     1869     TIP3     OH2      OT      -0.834000       15.9994           0
     18088 TIP3     1869     TIP3     H1       HT       0.417000       1.00800           0
     18089 TIP3     1869     TIP3     H2       HT       0.417000       1.00800           0
     18090 TIP3     1870     TIP3     OH2      OT      -0.834000       15.9994           0
     18091 TIP3     1870     TIP3     H1       HT       0.417000       1.00800           0
     18092 TIP3     1870     TIP3     H2       HT       0.417000       1.00800           0
     18093 TIP3     1871     TIP3     OH2      OT      -0.834000       15.9994           0
     18094 TIP3     1871     TIP3     H1       HT       0.417000       1.00800           0
     18095 TIP3     1871     TIP3     H2       HT       0.417000       1.00800           0
     18096 TIP3     1872     TIP3     OH2      OT      -0.834000       15.9994           0
     18097 TIP3     1872     TIP3     H1       HT       0.417000       1.00800           0
     18098 TIP3     1872     TIP3     H2       HT       0.417000       1.00800           0
     18099 TIP3     1873     TIP3     OH2      OT      -0.834000       15.9994           0
     18100 TIP3     1873     TIP3     H1       HT       0.417000       1.00800           0
     18101 TIP3     1873     TIP3     H2       HT       0.417000       1.00800           0
     18102 TIP3     1874     TIP3     OH2      OT      -0.834000       15.9994           0
     18103 TIP3     1874     TIP3     H1       HT       0.417000       1.00800           0
     18104 TIP3     1874     TIP3     H2       HT       0.417000       1.00800           0
     18105 TIP3     1875     TIP3     OH2      OT      -0.834000       15.9994           0
     18106 TIP3     1875     TIP3     H1       HT       0.417000       1.00800           0
     18107 TIP3     1875     TIP3     H2       HT       0.417000       1.00800           0
     18108 TIP3     1876     TIP3     OH2      OT      -0.834000       15.9994           0
     18109 TIP3     1876     TIP3     H1       HT       0.417000       1.00800           0
     18110 TIP3     1876     TIP3     H2       HT       0.417000       1.00800           0
     18111 TIP3     1877     TIP3     OH2      OT      -0.834000       15.9994           0
     18112 TIP3     1877     TIP3     H1       HT       0.417000       1.00800           0
     18113 TIP3     1877     TIP3     H2       HT       0.417000       1.00800           0
     18114 TIP3     1878     TIP3     OH2      OT      -0.834000       15.9994           0
     18115 TIP3     1878     TIP3     H1       HT       0.417000       1.00800           0
     18116 TIP3     1878     TIP3     H2       HT       0.417000       1.00800           0
     18117 TIP3     1879     TIP3     OH2      OT      -0.834000       15.9994           0
     18118 TIP3     1879     TIP3     H1       HT       0.417000       1.00800           0
     18119 TIP3     1879     TIP3     H2       HT       0.417000       1.00800           0
     18120 TIP3     1880     TIP3     OH2      OT      -0.834000       15.9994           0
     18121 TIP3     1880     TIP3     H1       HT       0.417000       1.00800           0
     18122 TIP3     1880     TIP3     H2       HT       0.417000       1.00800           0
     18123 TIP3     1881     TIP3     OH2      OT      -0.834000       15.9994           0
     18124 TIP3     1881     TIP3     H1       HT       0.417000       1.00800           0
     18125 TIP3     1881     TIP3     H2       HT       0.417000       1.00800           0
     18126 TIP3     1882     TIP3     OH2      OT      -0.834000       15.9994           0
     18127 TIP3     1882     TIP3     H1       HT       0.417000       1.00800           0
     18128 TIP3     1882     TIP3     H2       HT       0.417000       1.00800           0
     18129 TIP3     1883     TIP3     OH2      OT      -0.834000       15.9994           0
     18130 TIP3     1883     TIP3     H1       HT       0.417000       1.00800           0
     18131 TIP3     1883     TIP3     H2       HT       0.417000       1.00800           0
     18132 TIP3     1884     TIP3     OH2      OT      -0.834000       15.9994           0
     18133 TIP3     1884     TIP3     H1       HT       0.417000       1.00800           0
     18134 TIP3     1884     TIP3     H2       HT       0.417000       1.00800           0
     18135 TIP3     1885     TIP3     OH2      OT      -0.834000       15.9994           0
     18136 TIP3     1885     TIP3     H1       HT       0.417000       1.00800           0
     18137 TIP3     1885     TIP3     H2       HT       0.417000       1.00800           0
     18138 TIP3     1886     TIP3     OH2      OT      -0.834000       15.9994           0
     18139 TIP3     1886     TIP3     H1       HT       0.417000       1.00800           0
     18140 TIP3     1886     TIP3     H2       HT       0.417000       1.00800           0
     18141 TIP3     1887     TIP3     OH2      OT      -0.834000       15.9994           0
     18142 TIP3     1887     TIP3     H1       HT       0.417000       1.00800           0
     18143 TIP3     1887     TIP3     H2       HT       0.417000       1.00800           0
     18144 TIP3     1888     TIP3     OH2      OT      -0.834000       15.9994           0
     18145 TIP3     1888     TIP3     H1       HT       0.417000       1.00800           0
     18146 TIP3     1888     TIP3     H2       HT       0.417000       1.00800           0
     18147 TIP3     1889     TIP3     OH2      OT      -0.834000       15.9994           0
     18148 TIP3     1889     TIP3     H1       HT       0.417000       1.00800           0
     18149 TIP3     1889     TIP3     H2       HT       0.417000       1.00800           0
     18150 TIP3     1890     TIP3     OH2      OT      -0.834000       15.9994           0
     18151 TIP3     1890     TIP3     H1       HT       0.417000       1.00800           0
     18152 TIP3     1890     TIP3     H2       HT       0.417000       1.00800           0
     18153 TIP3     1891     TIP3     OH2      OT      -0.834000       15.9994           0
     18154 TIP3     1891     TIP3     H1       HT       0.417000       1.00800           0
     18155 TIP3     1891     TIP3     H2       HT       0.417000       1.00800           0
     18156 TIP3     1892     TIP3     OH2      OT      -0.834000       15.9994           0
     18157 TIP3     1892     TIP3     H1       HT       0.417000       1.00800           0
     18158 TIP3     1892     TIP3     H2       HT       0.417000       1.00800           0
     18159 TIP3     1893     TIP3     OH2      OT      -0.834000       15.9994           0
     18160 TIP3     1893     TIP3     H1       HT       0.417000       1.00800           0
     18161 TIP3     1893     TIP3     H2       HT       0.417000       1.00800           0
     18162 TIP3     1894     TIP3     OH2      OT      -0.834000       15.9994           0
     18163 TIP3     1894     TIP3     H1       HT       0.417000       1.00800           0
     18164 TIP3     1894     TIP3     H2       HT       0.417000       1.00800           0
     18165 TIP3     1895     TIP3     OH2      OT      -0.834000       15.9994           0
     18166 TIP3     1895     TIP3     H1       HT       0.417000       1.00800           0
     18167 TIP3     1895     TIP3     H2       HT       0.417000       1.00800           0
     18168 TIP3     1896     TIP3     OH2      OT      -0.834000       15.9994           0
     18169 TIP3     1896     TIP3     H1       HT       0.417000       1.00800           0
     18170 TIP3     1896     TIP3     H2       HT       0.417000       1.00800           0
     18171 TIP3     1897     TIP3     OH2      OT      -0.834000       15.9994           0
     18172 TIP3     1897     TIP3     H1       HT       0.417000       1.00800           0
     18173 TIP3     1897     TIP3     H2       HT       0.417000       1.00800           0
     18174 TIP3     1898     TIP3     OH2      OT      -0.834000       15.9994           0
     18175 TIP3     1898     TIP3     H1       HT       0.417000       1.00800           0
     18176 TIP3     1898     TIP3     H2       HT       0.417000       1.00800           0
     18177 TIP3     1899     TIP3     OH2      OT      -0.834000       15.9994           0
     18178 TIP3     1899     TIP3     H1       HT       0.417000       1.00800           0
     18179 TIP3     1899     TIP3     H2       HT       0.417000       1.00800           0
     18180 TIP3     1900     TIP3     OH2      OT      -0.834000       15.9994           0
     18181 TIP3     1900     TIP3     H1       HT       0.417000       1.00800           0
     18182 TIP3     1900     TIP3     H2       HT       0.417000       1.00800           0
     18183 TIP3     1901     TIP3     OH2      OT      -0.834000       15.9994           0
     18184 TIP3     1901     TIP3     H1       HT       0.417000       1.00800           0
     18185 TIP3     1901     TIP3     H2       HT       0.417000       1.00800           0
     18186 TIP3     1902     TIP3     OH2      OT      -0.834000       15.9994           0
     18187 TIP3     1902     TIP3     H1       HT       0.417000       1.00800           0
     18188 TIP3     1902     TIP3     H2       HT       0.417000       1.00800           0
     18189 TIP3     1903     TIP3     OH2      OT      -0.834000       15.9994           0
     18190 TIP3     1903     TIP3     H1       HT       0.417000       1.00800           0
     18191 TIP3     1903     TIP3     H2       HT       0.417000       1.00800           0
     18192 TIP3     1904     TIP3     OH2      OT      -0.834000       15.9994           0
     18193 TIP3     1904     TIP3     H1       HT       0.417000       1.00800           0
     18194 TIP3     1904     TIP3     H2       HT       0.417000       1.00800           0
     18195 TIP3     1905     TIP3     OH2      OT      -0.834000       15.9994           0
     18196 TIP3     1905     TIP3     H1       HT       0.417000       1.00800           0
     18197 TIP3     1905     TIP3     H2       HT       0.417000       1.00800           0
     18198 TIP3     1906     TIP3     OH2      OT      -0.834000       15.9994           0
     18199 TIP3     1906     TIP3     H1       HT       0.417000       1.00800           0
     18200 TIP3     1906     TIP3     H2       HT       0.417000       1.00800           0
     18201 TIP3     1907     TIP3     OH2      OT      -0.834000       15.9994           0
     18202 TIP3     1907     TIP3     H1       HT       0.417000       1.00800           0
     18203 TIP3     1907     TIP3     H2       HT       0.417000       1.00800           0
     18204 TIP3     1908     TIP3     OH2      OT      -0.834000       15.9994           0
     18205 TIP3     1908     TIP3     H1       HT       0.417000       1.00800           0
     18206 TIP3     1908     TIP3     H2       HT       0.417000       1.00800           0
     18207 TIP3     1909     TIP3     OH2      OT      -0.834000       15.9994           0
     18208 TIP3     1909     TIP3     H1       HT       0.417000       1.00800           0
     18209 TIP3     1909     TIP3     H2       HT       0.417000       1.00800           0
     18210 TIP3     1910     TIP3     OH2      OT      -0.834000       15.9994           0
     18211 TIP3     1910     TIP3     H1       HT       0.417000       1.00800           0
     18212 TIP3     1910     TIP3     H2       HT       0.417000       1.00800           0
     18213 TIP3     1911     TIP3     OH2      OT      -0.834000       15.9994           0
     18214 TIP3     1911     TIP3     H1       HT       0.417000       1.00800           0
     18215 TIP3     1911     TIP3     H2       HT       0.417000       1.00800           0
     18216 TIP3     1912     TIP3     OH2      OT      -0.834000       15.9994           0
     18217 TIP3     1912     TIP3     H1       HT       0.417000       1.00800           0
     18218 TIP3     1912     TIP3     H2       HT       0.417000       1.00800           0
     18219 TIP3     1913     TIP3     OH2      OT      -0.834000       15.9994           0
     18220 TIP3     1913     TIP3     H1       HT       0.417000       1.00800           0
     18221 TIP3     1913     TIP3     H2       HT       0.417000       1.00800           0
     18222 TIP3     1914     TIP3     OH2      OT      -0.834000       15.9994           0
     18223 TIP3     1914     TIP3     H1       HT       0.417000       1.00800           0
     18224 TIP3     1914     TIP3     H2       HT       0.417000       1.00800           0
     18225 TIP3     1915     TIP3     OH2      OT      -0.834000       15.9994           0
     18226 TIP3     1915     TIP3     H1       HT       0.417000       1.00800           0
     18227 TIP3     1915     TIP3     H2       HT       0.417000       1.00800           0
     18228 TIP3     1916     TIP3     OH2      OT      -0.834000       15.9994           0
     18229 TIP3     1916     TIP3     H1       HT       0.417000       1.00800           0
     18230 TIP3     1916     TIP3     H2       HT       0.417000       1.00800           0
     18231 TIP3     1917     TIP3     OH2      OT      -0.834000       15.9994           0
     18232 TIP3     1917     TIP3     H1       HT       0.417000       1.00800           0
     18233 TIP3     1917     TIP3     H2       HT       0.417000       1.00800           0
     18234 TIP3     1918     TIP3     OH2      OT      -0.834000       15.9994           0
     18235 TIP3     1918     TIP3     H1       HT       0.417000       1.00800           0
     18236 TIP3     1918     TIP3     H2       HT       0.417000       1.00800           0
     18237 TIP3     1919     TIP3     OH2      OT      -0.834000       15.9994           0
     18238 TIP3     1919     TIP3     H1       HT       0.417000       1.00800           0
     18239 TIP3     1919     TIP3     H2       HT       0.417000       1.00800           0
     18240 TIP3     1920     TIP3     OH2      OT      -0.834000       15.9994           0
     18241 TIP3     1920     TIP3     H1       HT       0.417000       1.00800           0
     18242 TIP3     1920     TIP3     H2       HT       0.417000       1.00800           0
     18243 TIP3     1921     TIP3     OH2      OT      -0.834000       15.9994           0
     18244 TIP3     1921     TIP3     H1       HT       0.417000       1.00800           0
     18245 TIP3     1921     TIP3     H2       HT       0.417000       1.00800           0
     18246 TIP3     1922     TIP3     OH2      OT      -0.834000       15.9994           0
     18247 TIP3     1922     TIP3     H1       HT       0.417000       1.00800           0
     18248 TIP3     1922     TIP3     H2       HT       0.417000       1.00800           0
     18249 TIP3     1923     TIP3     OH2      OT      -0.834000       15.9994           0
     18250 TIP3     1923     TIP3     H1       HT       0.417000       1.00800           0
     18251 TIP3     1923     TIP3     H2       HT       0.417000       1.00800           0
     18252 TIP3     1924     TIP3     OH2      OT      -0.834000       15.9994           0
     18253 TIP3     1924     TIP3     H1       HT       0.417000       1.00800           0
     18254 TIP3     1924     TIP3     H2       HT       0.417000       1.00800           0
     18255 TIP3     1925     TIP3     OH2      OT      -0.834000       15.9994           0
     18256 TIP3     1925     TIP3     H1       HT       0.417000       1.00800           0
     18257 TIP3     1925     TIP3     H2       HT       0.417000       1.00800           0
     18258 TIP3     1926     TIP3     OH2      OT      -0.834000       15.9994           0
     18259 TIP3     1926     TIP3     H1       HT       0.417000       1.00800           0
     18260 TIP3     1926     TIP3     H2       HT       0.417000       1.00800           0
     18261 TIP3     1927     TIP3     OH2      OT      -0.834000       15.9994           0
     18262 TIP3     1927     TIP3     H1       HT       0.417000       1.00800           0
     18263 TIP3     1927     TIP3     H2       HT       0.417000       1.00800           0
     18264 TIP3     1928     TIP3     OH2      OT      -0.834000       15.9994           0
     18265 TIP3     1928     TIP3     H1       HT       0.417000       1.00800           0
     18266 TIP3     1928     TIP3     H2       HT       0.417000       1.00800           0
     18267 TIP3     1929     TIP3     OH2      OT      -0.834000       15.9994           0
     18268 TIP3     1929     TIP3     H1       HT       0.417000       1.00800           0
     18269 TIP3     1929     TIP3     H2       HT       0.417000       1.00800           0
     18270 TIP3     1930     TIP3     OH2      OT      -0.834000       15.9994           0
     18271 TIP3     1930     TIP3     H1       HT       0.417000       1.00800           0
     18272 TIP3     1930     TIP3     H2       HT       0.417000       1.00800           0
     18273 TIP3     1931     TIP3     OH2      OT      -0.834000       15.9994           0
     18274 TIP3     1931     TIP3     H1       HT       0.417000       1.00800           0
     18275 TIP3     1931     TIP3     H2       HT       0.417000       1.00800           0
     18276 TIP3     1932     TIP3     OH2      OT      -0.834000       15.9994           0
     18277 TIP3     1932     TIP3     H1       HT       0.417000       1.00800           0
     18278 TIP3     1932     TIP3     H2       HT       0.417000       1.00800           0
     18279 TIP3     1933     TIP3     OH2      OT      -0.834000       15.9994           0
     18280 TIP3     1933     TIP3     H1       HT       0.417000       1.00800           0
     18281 TIP3     1933     TIP3     H2       HT       0.417000       1.00800           0
     18282 TIP3     1934     TIP3     OH2      OT      -0.834000       15.9994           0
     18283 TIP3     1934     TIP3     H1       HT       0.417000       1.00800           0
     18284 TIP3     1934     TIP3     H2       HT       0.417000       1.00800           0
     18285 TIP3     1935     TIP3     OH2      OT      -0.834000       15.9994           0
     18286 TIP3     1935     TIP3     H1       HT       0.417000       1.00800           0
     18287 TIP3     1935     TIP3     H2       HT       0.417000       1.00800           0
     18288 TIP3     1936     TIP3     OH2      OT      -0.834000       15.9994           0
     18289 TIP3     1936     TIP3     H1       HT       0.417000       1.00800           0
     18290 TIP3     1936     TIP3     H2       HT       0.417000       1.00800           0
     18291 TIP3     1937     TIP3     OH2      OT      -0.834000       15.9994           0
     18292 TIP3     1937     TIP3     H1       HT       0.417000       1.00800           0
     18293 TIP3     1937     TIP3     H2       HT       0.417000       1.00800           0
     18294 TIP3     1938     TIP3     OH2      OT      -0.834000       15.9994           0
     18295 TIP3     1938     TIP3     H1       HT       0.417000       1.00800           0
     18296 TIP3     1938     TIP3     H2       HT       0.417000       1.00800           0
     18297 TIP3     1939     TIP3     OH2      OT      -0.834000       15.9994           0
     18298 TIP3     1939     TIP3     H1       HT       0.417000       1.00800           0
     18299 TIP3     1939     TIP3     H2       HT       0.417000       1.00800           0
     18300 TIP3     1940     TIP3     OH2      OT      -0.834000       15.9994           0
     18301 TIP3     1940     TIP3     H1       HT       0.417000       1.00800           0
     18302 TIP3     1940     TIP3     H2       HT       0.417000       1.00800           0
     18303 TIP3     1941     TIP3     OH2      OT      -0.834000       15.9994           0
     18304 TIP3     1941     TIP3     H1       HT       0.417000       1.00800           0
     18305 TIP3     1941     TIP3     H2       HT       0.417000       1.00800           0
     18306 TIP3     1942     TIP3     OH2      OT      -0.834000       15.9994           0
     18307 TIP3     1942     TIP3     H1       HT       0.417000       1.00800           0
     18308 TIP3     1942     TIP3     H2       HT       0.417000       1.00800           0
     18309 TIP3     1943     TIP3     OH2      OT      -0.834000       15.9994           0
     18310 TIP3     1943     TIP3     H1       HT       0.417000       1.00800           0
     18311 TIP3     1943     TIP3     H2       HT       0.417000       1.00800           0
     18312 TIP3     1944     TIP3     OH2      OT      -0.834000       15.9994           0
     18313 TIP3     1944     TIP3     H1       HT       0.417000       1.00800           0
     18314 TIP3     1944     TIP3     H2       HT       0.417000       1.00800           0
     18315 TIP3     1945     TIP3     OH2      OT      -0.834000       15.9994           0
     18316 TIP3     1945     TIP3     H1       HT       0.417000       1.00800           0
     18317 TIP3     1945     TIP3     H2       HT       0.417000       1.00800           0
     18318 TIP3     1946     TIP3     OH2      OT      -0.834000       15.9994           0
     18319 TIP3     1946     TIP3     H1       HT       0.417000       1.00800           0
     18320 TIP3     1946     TIP3     H2       HT       0.417000       1.00800           0
     18321 TIP3     1947     TIP3     OH2      OT      -0.834000       15.9994           0
     18322 TIP3     1947     TIP3     H1       HT       0.417000       1.00800           0
     18323 TIP3     1947     TIP3     H2       HT       0.417000       1.00800           0
     18324 TIP3     1948     TIP3     OH2      OT      -0.834000       15.9994           0
     18325 TIP3     1948     TIP3     H1       HT       0.417000       1.00800           0
     18326 TIP3     1948     TIP3     H2       HT       0.417000       1.00800           0
     18327 TIP3     1949     TIP3     OH2      OT      -0.834000       15.9994           0
     18328 TIP3     1949     TIP3     H1       HT       0.417000       1.00800           0
     18329 TIP3     1949     TIP3     H2       HT       0.417000       1.00800           0
     18330 TIP3     1950     TIP3     OH2      OT      -0.834000       15.9994           0
     18331 TIP3     1950     TIP3     H1       HT       0.417000       1.00800           0
     18332 TIP3     1950     TIP3     H2       HT       0.417000       1.00800           0
     18333 TIP3     1951     TIP3     OH2      OT      -0.834000       15.9994           0
     18334 TIP3     1951     TIP3     H1       HT       0.417000       1.00800           0
     18335 TIP3     1951     TIP3     H2       HT       0.417000       1.00800           0
     18336 TIP3     1952     TIP3     OH2      OT      -0.834000       15.9994           0
     18337 TIP3     1952     TIP3     H1       HT       0.417000       1.00800           0
     18338 TIP3     1952     TIP3     H2       HT       0.417000       1.00800           0
     18339 TIP3     1953     TIP3     OH2      OT      -0.834000       15.9994           0
     18340 TIP3     1953     TIP3     H1       HT       0.417000       1.00800           0
     18341 TIP3     1953     TIP3     H2       HT       0.417000       1.00800           0
     18342 TIP3     1954     TIP3     OH2      OT      -0.834000       15.9994           0
     18343 TIP3     1954     TIP3     H1       HT       0.417000       1.00800           0
     18344 TIP3     1954     TIP3     H2       HT       0.417000       1.00800           0
     18345 TIP3     1955     TIP3     OH2      OT      -0.834000       15.9994           0
     18346 TIP3     1955     TIP3     H1       HT       0.417000       1.00800           0
     18347 TIP3     1955     TIP3     H2       HT       0.417000       1.00800           0
     18348 TIP3     1956     TIP3     OH2      OT      -0.834000       15.9994           0
     18349 TIP3     1956     TIP3     H1       HT       0.417000       1.00800           0
     18350 TIP3     1956     TIP3     H2       HT       0.417000       1.00800           0
     18351 TIP3     1957     TIP3     OH2      OT      -0.834000       15.9994           0
     18352 TIP3     1957     TIP3     H1       HT       0.417000       1.00800           0
     18353 TIP3     1957     TIP3     H2       HT       0.417000       1.00800           0
     18354 TIP3     1958     TIP3     OH2      OT      -0.834000       15.9994           0
     18355 TIP3     1958     TIP3     H1       HT       0.417000       1.00800           0
     18356 TIP3     1958     TIP3     H2       HT       0.417000       1.00800           0
     18357 TIP3     1959     TIP3     OH2      OT      -0.834000       15.9994           0
     18358 TIP3     1959     TIP3     H1       HT       0.417000       1.00800           0
     18359 TIP3     1959     TIP3     H2       HT       0.417000       1.00800           0
     18360 TIP3     1960     TIP3     OH2      OT      -0.834000       15.9994           0
     18361 TIP3     1960     TIP3     H1       HT       0.417000       1.00800           0
     18362 TIP3     1960     TIP3     H2       HT       0.417000       1.00800           0
     18363 TIP3     1961     TIP3     OH2      OT      -0.834000       15.9994           0
     18364 TIP3     1961     TIP3     H1       HT       0.417000       1.00800           0
     18365 TIP3     1961     TIP3     H2       HT       0.417000       1.00800           0
     18366 TIP3     1962     TIP3     OH2      OT      -0.834000       15.9994           0
     18367 TIP3     1962     TIP3     H1       HT       0.417000       1.00800           0
     18368 TIP3     1962     TIP3     H2       HT       0.417000       1.00800           0
     18369 TIP3     1963     TIP3     OH2      OT      -0.834000       15.9994           0
     18370 TIP3     1963     TIP3     H1       HT       0.417000       1.00800           0
     18371 TIP3     1963     TIP3     H2       HT       0.417000       1.00800           0
     18372 TIP3     1964     TIP3     OH2      OT      -0.834000       15.9994           0
     18373 TIP3     1964     TIP3     H1       HT       0.417000       1.00800           0
     18374 TIP3     1964     TIP3     H2       HT       0.417000       1.00800           0
     18375 TIP3     1965     TIP3     OH2      OT      -0.834000       15.9994           0
     18376 TIP3     1965     TIP3     H1       HT       0.417000       1.00800           0
     18377 TIP3     1965     TIP3     H2       HT       0.417000       1.00800           0
     18378 TIP3     1966     TIP3     OH2      OT      -0.834000       15.9994           0
     18379 TIP3     1966     TIP3     H1       HT       0.417000       1.00800           0
     18380 TIP3     1966     TIP3     H2       HT       0.417000       1.00800           0
     18381 TIP3     1967     TIP3     OH2      OT      -0.834000       15.9994           0
     18382 TIP3     1967     TIP3     H1       HT       0.417000       1.00800           0
     18383 TIP3     1967     TIP3     H2       HT       0.417000       1.00800           0
     18384 TIP3     1968     TIP3     OH2      OT      -0.834000       15.9994           0
     18385 TIP3     1968     TIP3     H1       HT       0.417000       1.00800           0
     18386 TIP3     1968     TIP3     H2       HT       0.417000       1.00800           0
     18387 TIP3     1969     TIP3     OH2      OT      -0.834000       15.9994           0
     18388 TIP3     1969     TIP3     H1       HT       0.417000       1.00800           0
     18389 TIP3     1969     TIP3     H2       HT       0.417000       1.00800           0
     18390 TIP3     1970     TIP3     OH2      OT      -0.834000       15.9994           0
     18391 TIP3     1970     TIP3     H1       HT       0.417000       1.00800           0
     18392 TIP3     1970     TIP3     H2       HT       0.417000       1.00800           0
     18393 TIP3     1971     TIP3     OH2      OT      -0.834000       15.9994           0
     18394 TIP3     1971     TIP3     H1       HT       0.417000       1.00800           0
     18395 TIP3     1971     TIP3     H2       HT       0.417000       1.00800           0
     18396 TIP3     1972     TIP3     OH2      OT      -0.834000       15.9994           0
     18397 TIP3     1972     TIP3     H1       HT       0.417000       1.00800           0
     18398 TIP3     1972     TIP3     H2       HT       0.417000       1.00800           0
     18399 TIP3     1973     TIP3     OH2      OT      -0.834000       15.9994           0
     18400 TIP3     1973     TIP3     H1       HT       0.417000       1.00800           0
     18401 TIP3     1973     TIP3     H2       HT       0.417000       1.00800           0
     18402 TIP3     1974     TIP3     OH2      OT      -0.834000       15.9994           0
     18403 TIP3     1974     TIP3     H1       HT       0.417000       1.00800           0
     18404 TIP3     1974     TIP3     H2       HT       0.417000       1.00800           0
     18405 TIP3     1975     TIP3     OH2      OT      -0.834000       15.9994           0
     18406 TIP3     1975     TIP3     H1       HT       0.417000       1.00800           0
     18407 TIP3     1975     TIP3     H2       HT       0.417000       1.00800           0
     18408 TIP3     1976     TIP3     OH2      OT      -0.834000       15.9994           0
     18409 TIP3     1976     TIP3     H1       HT       0.417000       1.00800           0
     18410 TIP3     1976     TIP3     H2       HT       0.417000       1.00800           0
     18411 TIP3     1977     TIP3     OH2      OT      -0.834000       15.9994           0
     18412 TIP3     1977     TIP3     H1       HT       0.417000       1.00800           0
     18413 TIP3     1977     TIP3     H2       HT       0.417000       1.00800           0
     18414 TIP3     1978     TIP3     OH2      OT      -0.834000       15.9994           0
     18415 TIP3     1978     TIP3     H1       HT       0.417000       1.00800           0
     18416 TIP3     1978     TIP3     H2       HT       0.417000       1.00800           0
     18417 TIP3     1979     TIP3     OH2      OT      -0.834000       15.9994           0
     18418 TIP3     1979     TIP3     H1       HT       0.417000       1.00800           0
     18419 TIP3     1979     TIP3     H2       HT       0.417000       1.00800           0
     18420 TIP3     1980     TIP3     OH2      OT      -0.834000       15.9994           0
     18421 TIP3     1980     TIP3     H1       HT       0.417000       1.00800           0
     18422 TIP3     1980     TIP3     H2       HT       0.417000       1.00800           0
     18423 TIP3     1981     TIP3     OH2      OT      -0.834000       15.9994           0
     18424 TIP3     1981     TIP3     H1       HT       0.417000       1.00800           0
     18425 TIP3     1981     TIP3     H2       HT       0.417000       1.00800           0
     18426 TIP3     1982     TIP3     OH2      OT      -0.834000       15.9994           0
     18427 TIP3     1982     TIP3     H1       HT       0.417000       1.00800           0
     18428 TIP3     1982     TIP3     H2       HT       0.417000       1.00800           0
     18429 TIP3     1983     TIP3     OH2      OT      -0.834000       15.9994           0
     18430 TIP3     1983     TIP3     H1       HT       0.417000       1.00800           0
     18431 TIP3     1983     TIP3     H2       HT       0.417000       1.00800           0
     18432 TIP3     1984     TIP3     OH2      OT      -0.834000       15.9994           0
     18433 TIP3     1984     TIP3     H1       HT       0.417000       1.00800           0
     18434 TIP3     1984     TIP3     H2       HT       0.417000       1.00800           0
     18435 TIP3     1985     TIP3     OH2      OT      -0.834000       15.9994           0
     18436 TIP3     1985     TIP3     H1       HT       0.417000       1.00800           0
     18437 TIP3     1985     TIP3     H2       HT       0.417000       1.00800           0
     18438 TIP3     1986     TIP3     OH2      OT      -0.834000       15.9994           0
     18439 TIP3     1986     TIP3     H1       HT       0.417000       1.00800           0
     18440 TIP3     1986     TIP3     H2       HT       0.417000       1.00800           0
     18441 TIP3     1987     TIP3     OH2      OT      -0.834000       15.9994           0
     18442 TIP3     1987     TIP3     H1       HT       0.417000       1.00800           0
     18443 TIP3     1987     TIP3     H2       HT       0.417000       1.00800           0
     18444 TIP3     1988     TIP3     OH2      OT      -0.834000       15.9994           0
     18445 TIP3     1988     TIP3     H1       HT       0.417000       1.00800           0
     18446 TIP3     1988     TIP3     H2       HT       0.417000       1.00800           0
     18447 TIP3     1989     TIP3     OH2      OT      -0.834000       15.9994           0
     18448 TIP3     1989     TIP3     H1       HT       0.417000       1.00800           0
     18449 TIP3     1989     TIP3     H2       HT       0.417000       1.00800           0
     18450 TIP3     1990     TIP3     OH2      OT      -0.834000       15.9994           0
     18451 TIP3     1990     TIP3     H1       HT       0.417000       1.00800           0
     18452 TIP3     1990     TIP3     H2       HT       0.417000       1.00800           0
     18453 TIP3     1991     TIP3     OH2      OT      -0.834000       15.9994           0
     18454 TIP3     1991     TIP3     H1       HT       0.417000       1.00800           0
     18455 TIP3     1991     TIP3     H2       HT       0.417000       1.00800           0
     18456 TIP3     1992     TIP3     OH2      OT      -0.834000       15.9994           0
     18457 TIP3     1992     TIP3     H1       HT       0.417000       1.00800           0
     18458 TIP3     1992     TIP3     H2       HT       0.417000       1.00800           0
     18459 TIP3     1993     TIP3     OH2      OT      -0.834000       15.9994           0
     18460 TIP3     1993     TIP3     H1       HT       0.417000       1.00800           0
     18461 TIP3     1993     TIP3     H2       HT       0.417000       1.00800           0
     18462 TIP3     1994     TIP3     OH2      OT      -0.834000       15.9994           0
     18463 TIP3     1994     TIP3     H1       HT       0.417000       1.00800           0
     18464 TIP3     1994     TIP3     H2       HT       0.417000       1.00800           0
     18465 TIP3     1995     TIP3     OH2      OT      -0.834000       15.9994           0
     18466 TIP3     1995     TIP3     H1       HT       0.417000       1.00800           0
     18467 TIP3     1995     TIP3     H2       HT       0.417000       1.00800           0
     18468 TIP3     1996     TIP3     OH2      OT      -0.834000       15.9994           0
     18469 TIP3     1996     TIP3     H1       HT       0.417000       1.00800           0
     18470 TIP3     1996     TIP3     H2       HT       0.417000       1.00800           0
     18471 TIP3     1997     TIP3     OH2      OT      -0.834000       15.9994           0
     18472 TIP3     1997     TIP3     H1       HT       0.417000       1.00800           0
     18473 TIP3     1997     TIP3     H2       HT       0.417000       1.00800           0
     18474 TIP3     1998     TIP3     OH2      OT      -0.834000       15.9994           0
     18475 TIP3     1998     TIP3     H1       HT       0.417000       1.00800           0
     18476 TIP3     1998     TIP3     H2       HT       0.417000       1.00800           0
     18477 TIP3     1999     TIP3     OH2      OT      -0.834000       15.9994           0
     18478 TIP3     1999     TIP3     H1       HT       0.417000       1.00800           0
     18479 TIP3     1999     TIP3     H2       HT       0.417000       1.00800           0
     18480 TIP3     2000     TIP3     OH2      OT      -0.834000       15.9994           0
     18481 TIP3     2000     TIP3     H1       HT       0.417000       1.00800           0
     18482 TIP3     2000     TIP3     H2       HT       0.417000       1.00800           0
     18483 TIP3     2001     TIP3     OH2      OT      -0.834000       15.9994           0
     18484 TIP3     2001     TIP3     H1       HT       0.417000       1.00800           0
     18485 TIP3     2001     TIP3     H2       HT       0.417000       1.00800           0
     18486 TIP3     2002     TIP3     OH2      OT      -0.834000       15.9994           0
     18487 TIP3     2002     TIP3     H1       HT       0.417000       1.00800           0
     18488 TIP3     2002     TIP3     H2       HT       0.417000       1.00800           0
     18489 TIP3     2003     TIP3     OH2      OT      -0.834000       15.9994           0
     18490 TIP3     2003     TIP3     H1       HT       0.417000       1.00800           0
     18491 TIP3     2003     TIP3     H2       HT       0.417000       1.00800           0
     18492 TIP3     2004     TIP3     OH2      OT      -0.834000       15.9994           0
     18493 TIP3     2004     TIP3     H1       HT       0.417000       1.00800           0
     18494 TIP3     2004     TIP3     H2       HT       0.417000       1.00800           0
     18495 TIP3     2005     TIP3     OH2      OT      -0.834000       15.9994           0
     18496 TIP3     2005     TIP3     H1       HT       0.417000       1.00800           0
     18497 TIP3     2005     TIP3     H2       HT       0.417000       1.00800           0
     18498 TIP3     2006     TIP3     OH2      OT      -0.834000       15.9994           0
     18499 TIP3     2006     TIP3     H1       HT       0.417000       1.00800           0
     18500 TIP3     2006     TIP3     H2       HT       0.417000       1.00800           0
     18501 TIP3     2007     TIP3     OH2      OT      -0.834000       15.9994           0
     18502 TIP3     2007     TIP3     H1       HT       0.417000       1.00800           0
     18503 TIP3     2007     TIP3     H2       HT       0.417000       1.00800           0
     18504 TIP3     2008     TIP3     OH2      OT      -0.834000       15.9994           0
     18505 TIP3     2008     TIP3     H1       HT       0.417000       1.00800           0
     18506 TIP3     2008     TIP3     H2       HT       0.417000       1.00800           0
     18507 TIP3     2009     TIP3     OH2      OT      -0.834000       15.9994           0
     18508 TIP3     2009     TIP3     H1       HT       0.417000       1.00800           0
     18509 TIP3     2009     TIP3     H2       HT       0.417000       1.00800           0
     18510 TIP3     2010     TIP3     OH2      OT      -0.834000       15.9994           0
     18511 TIP3     2010     TIP3     H1       HT       0.417000       1.00800           0
     18512 TIP3     2010     TIP3     H2       HT       0.417000       1.00800           0
     18513 TIP3     2011     TIP3     OH2      OT      -0.834000       15.9994           0
     18514 TIP3     2011     TIP3     H1       HT       0.417000       1.00800           0
     18515 TIP3     2011     TIP3     H2       HT       0.417000       1.00800           0
     18516 TIP3     2012     TIP3     OH2      OT      -0.834000       15.9994           0
     18517 TIP3     2012     TIP3     H1       HT       0.417000       1.00800           0
     18518 TIP3     2012     TIP3     H2       HT       0.417000       1.00800           0
     18519 TIP3     2013     TIP3     OH2      OT      -0.834000       15.9994           0
     18520 TIP3     2013     TIP3     H1       HT       0.417000       1.00800           0
     18521 TIP3     2013     TIP3     H2       HT       0.417000       1.00800           0
     18522 TIP3     2014     TIP3     OH2      OT      -0.834000       15.9994           0
     18523 TIP3     2014     TIP3     H1       HT       0.417000       1.00800           0
     18524 TIP3     2014     TIP3     H2       HT       0.417000       1.00800           0
     18525 TIP3     2015     TIP3     OH2      OT      -0.834000       15.9994           0
     18526 TIP3     2015     TIP3     H1       HT       0.417000       1.00800           0
     18527 TIP3     2015     TIP3     H2       HT       0.417000       1.00800           0
     18528 TIP3     2016     TIP3     OH2      OT      -0.834000       15.9994           0
     18529 TIP3     2016     TIP3     H1       HT       0.417000       1.00800           0
     18530 TIP3     2016     TIP3     H2       HT       0.417000       1.00800           0
     18531 TIP3     2017     TIP3     OH2      OT      -0.834000       15.9994           0
     18532 TIP3     2017     TIP3     H1       HT       0.417000       1.00800           0
     18533 TIP3     2017     TIP3     H2       HT       0.417000       1.00800           0
     18534 TIP3     2018     TIP3     OH2      OT      -0.834000       15.9994           0
     18535 TIP3     2018     TIP3     H1       HT       0.417000       1.00800           0
     18536 TIP3     2018     TIP3     H2       HT       0.417000       1.00800           0
     18537 TIP3     2019     TIP3     OH2      OT      -0.834000       15.9994           0
     18538 TIP3     2019     TIP3     H1       HT       0.417000       1.00800           0
     18539 TIP3     2019     TIP3     H2       HT       0.417000       1.00800           0
     18540 TIP3     2020     TIP3     OH2      OT      -0.834000       15.9994           0
     18541 TIP3     2020     TIP3     H1       HT       0.417000       1.00800           0
     18542 TIP3     2020     TIP3     H2       HT       0.417000       1.00800           0
     18543 TIP3     2021     TIP3     OH2      OT      -0.834000       15.9994           0
     18544 TIP3     2021     TIP3     H1       HT       0.417000       1.00800           0
     18545 TIP3     2021     TIP3     H2       HT       0.417000       1.00800           0
     18546 TIP3     2022     TIP3     OH2      OT      -0.834000       15.9994           0
     18547 TIP3     2022     TIP3     H1       HT       0.417000       1.00800           0
     18548 TIP3     2022     TIP3     H2       HT       0.417000       1.00800           0
     18549 TIP3     2023     TIP3     OH2      OT      -0.834000       15.9994           0
     18550 TIP3     2023     TIP3     H1       HT       0.417000       1.00800           0
     18551 TIP3     2023     TIP3     H2       HT       0.417000       1.00800           0
     18552 TIP3     2024     TIP3     OH2      OT      -0.834000       15.9994           0
     18553 TIP3     2024     TIP3     H1       HT       0.417000       1.00800           0
     18554 TIP3     2024     TIP3     H2       HT       0.417000       1.00800           0
     18555 TIP3     2025     TIP3     OH2      OT      -0.834000       15.9994           0
     18556 TIP3     2025     TIP3     H1       HT       0.417000       1.00800           0
     18557 TIP3     2025     TIP3     H2       HT       0.417000       1.00800           0
     18558 TIP3     2026     TIP3     OH2      OT      -0.834000       15.9994           0
     18559 TIP3     2026     TIP3     H1       HT       0.417000       1.00800           0
     18560 TIP3     2026     TIP3     H2       HT       0.417000       1.00800           0
     18561 TIP3     2027     TIP3     OH2      OT      -0.834000       15.9994           0
     18562 TIP3     2027     TIP3     H1       HT       0.417000       1.00800           0
     18563 TIP3     2027     TIP3     H2       HT       0.417000       1.00800           0
     18564 TIP3     2028     TIP3     OH2      OT      -0.834000       15.9994           0
     18565 TIP3     2028     TIP3     H1       HT       0.417000       1.00800           0
     18566 TIP3     2028     TIP3     H2       HT       0.417000       1.00800           0
     18567 TIP3     2029     TIP3     OH2      OT      -0.834000       15.9994           0
     18568 TIP3     2029     TIP3     H1       HT       0.417000       1.00800           0
     18569 TIP3     2029     TIP3     H2       HT       0.417000       1.00800           0
     18570 TIP3     2030     TIP3     OH2      OT      -0.834000       15.9994           0
     18571 TIP3     2030     TIP3     H1       HT       0.417000       1.00800           0
     18572 TIP3     2030     TIP3     H2       HT       0.417000       1.00800           0
     18573 TIP3     2031     TIP3     OH2      OT      -0.834000       15.9994           0
     18574 TIP3     2031     TIP3     H1       HT       0.417000       1.00800           0
     18575 TIP3     2031     TIP3     H2       HT       0.417000       1.00800           0
     18576 TIP3     2032     TIP3     OH2      OT      -0.834000       15.9994           0
     18577 TIP3     2032     TIP3     H1       HT       0.417000       1.00800           0
     18578 TIP3     2032     TIP3     H2       HT       0.417000       1.00800           0
     18579 TIP3     2033     TIP3     OH2      OT      -0.834000       15.9994           0
     18580 TIP3     2033     TIP3     H1       HT       0.417000       1.00800           0
     18581 TIP3     2033     TIP3     H2       HT       0.417000       1.00800           0
     18582 TIP3     2034     TIP3     OH2      OT      -0.834000       15.9994           0
     18583 TIP3     2034     TIP3     H1       HT       0.417000       1.00800           0
     18584 TIP3     2034     TIP3     H2       HT       0.417000       1.00800           0
     18585 TIP3     2035     TIP3     OH2      OT      -0.834000       15.9994           0
     18586 TIP3     2035     TIP3     H1       HT       0.417000       1.00800           0
     18587 TIP3     2035     TIP3     H2       HT       0.417000       1.00800           0
     18588 TIP3     2036     TIP3     OH2      OT      -0.834000       15.9994           0
     18589 TIP3     2036     TIP3     H1       HT       0.417000       1.00800           0
     18590 TIP3     2036     TIP3     H2       HT       0.417000       1.00800           0
     18591 TIP3     2037     TIP3     OH2      OT      -0.834000       15.9994           0
     18592 TIP3     2037     TIP3     H1       HT       0.417000       1.00800           0
     18593 TIP3     2037     TIP3     H2       HT       0.417000       1.00800           0
     18594 TIP3     2038     TIP3     OH2      OT      -0.834000       15.9994           0
     18595 TIP3     2038     TIP3     H1       HT       0.417000       1.00800           0
     18596 TIP3     2038     TIP3     H2       HT       0.417000       1.00800           0
     18597 TIP3     2039     TIP3     OH2      OT      -0.834000       15.9994           0
     18598 TIP3     2039     TIP3     H1       HT       0.417000       1.00800           0
     18599 TIP3     2039     TIP3     H2       HT       0.417000       1.00800           0
     18600 TIP3     2040     TIP3     OH2      OT      -0.834000       15.9994           0
     18601 TIP3     2040     TIP3     H1       HT       0.417000       1.00800           0
     18602 TIP3     2040     TIP3     H2       HT       0.417000       1.00800           0
     18603 TIP3     2041     TIP3     OH2      OT      -0.834000       15.9994           0
     18604 TIP3     2041     TIP3     H1       HT       0.417000       1.00800           0
     18605 TIP3     2041     TIP3     H2       HT       0.417000       1.00800           0
     18606 TIP3     2042     TIP3     OH2      OT      -0.834000       15.9994           0
     18607 TIP3     2042     TIP3     H1       HT       0.417000       1.00800           0
     18608 TIP3     2042     TIP3     H2       HT       0.417000       1.00800           0
     18609 TIP3     2043     TIP3     OH2      OT      -0.834000       15.9994           0
     18610 TIP3     2043     TIP3     H1       HT       0.417000       1.00800           0
     18611 TIP3     2043     TIP3     H2       HT       0.417000       1.00800           0
     18612 TIP3     2044     TIP3     OH2      OT      -0.834000       15.9994           0
     18613 TIP3     2044     TIP3     H1       HT       0.417000       1.00800           0
     18614 TIP3     2044     TIP3     H2       HT       0.417000       1.00800           0
     18615 TIP3     2045     TIP3     OH2      OT      -0.834000       15.9994           0
     18616 TIP3     2045     TIP3     H1       HT       0.417000       1.00800           0
     18617 TIP3     2045     TIP3     H2       HT       0.417000       1.00800           0
     18618 TIP3     2046     TIP3     OH2      OT      -0.834000       15.9994           0
     18619 TIP3     2046     TIP3     H1       HT       0.417000       1.00800           0
     18620 TIP3     2046     TIP3     H2       HT       0.417000       1.00800           0
     18621 TIP3     2047     TIP3     OH2      OT      -0.834000       15.9994           0
     18622 TIP3     2047     TIP3     H1       HT       0.417000       1.00800           0
     18623 TIP3     2047     TIP3     H2       HT       0.417000       1.00800           0
     18624 TIP3     2048     TIP3     OH2      OT      -0.834000       15.9994           0
     18625 TIP3     2048     TIP3     H1       HT       0.417000       1.00800           0
     18626 TIP3     2048     TIP3     H2       HT       0.417000       1.00800           0
     18627 TIP3     2049     TIP3     OH2      OT      -0.834000       15.9994           0
     18628 TIP3     2049     TIP3     H1       HT       0.417000       1.00800           0
     18629 TIP3     2049     TIP3     H2       HT       0.417000       1.00800           0
     18630 TIP3     2050     TIP3     OH2      OT      -0.834000       15.9994           0
     18631 TIP3     2050     TIP3     H1       HT       0.417000       1.00800           0
     18632 TIP3     2050     TIP3     H2       HT       0.417000       1.00800           0
     18633 TIP3     2051     TIP3     OH2      OT      -0.834000       15.9994           0
     18634 TIP3     2051     TIP3     H1       HT       0.417000       1.00800           0
     18635 TIP3     2051     TIP3     H2       HT       0.417000       1.00800           0
     18636 TIP3     2052     TIP3     OH2      OT      -0.834000       15.9994           0
     18637 TIP3     2052     TIP3     H1       HT       0.417000       1.00800           0
     18638 TIP3     2052     TIP3     H2       HT       0.417000       1.00800           0
     18639 TIP3     2053     TIP3     OH2      OT      -0.834000       15.9994           0
     18640 TIP3     2053     TIP3     H1       HT       0.417000       1.00800           0
     18641 TIP3     2053     TIP3     H2       HT       0.417000       1.00800           0
     18642 TIP3     2054     TIP3     OH2      OT      -0.834000       15.9994           0
     18643 TIP3     2054     TIP3     H1       HT       0.417000       1.00800           0
     18644 TIP3     2054     TIP3     H2       HT       0.417000       1.00800           0
     18645 TIP3     2055     TIP3     OH2      OT      -0.834000       15.9994           0
     18646 TIP3     2055     TIP3     H1       HT       0.417000       1.00800           0
     18647 TIP3     2055     TIP3     H2       HT       0.417000       1.00800           0
     18648 TIP3     2056     TIP3     OH2      OT      -0.834000       15.9994           0
     18649 TIP3     2056     TIP3     H1       HT       0.417000       1.00800           0
     18650 TIP3     2056     TIP3     H2       HT       0.417000       1.00800           0
     18651 TIP3     2057     TIP3     OH2      OT      -0.834000       15.9994           0
     18652 TIP3     2057     TIP3     H1       HT       0.417000       1.00800           0
     18653 TIP3     2057     TIP3     H2       HT       0.417000       1.00800           0
     18654 TIP3     2058     TIP3     OH2      OT      -0.834000       15.9994           0
     18655 TIP3     2058     TIP3     H1       HT       0.417000       1.00800           0
     18656 TIP3     2058     TIP3     H2       HT       0.417000       1.00800           0
     18657 TIP3     2059     TIP3     OH2      OT      -0.834000       15.9994           0
     18658 TIP3     2059     TIP3     H1       HT       0.417000       1.00800           0
     18659 TIP3     2059     TIP3     H2       HT       0.417000       1.00800           0
     18660 TIP3     2060     TIP3     OH2      OT      -0.834000       15.9994           0
     18661 TIP3     2060     TIP3     H1       HT       0.417000       1.00800           0
     18662 TIP3     2060     TIP3     H2       HT       0.417000       1.00800           0
     18663 TIP3     2061     TIP3     OH2      OT      -0.834000       15.9994           0
     18664 TIP3     2061     TIP3     H1       HT       0.417000       1.00800           0
     18665 TIP3     2061     TIP3     H2       HT       0.417000       1.00800           0
     18666 TIP3     2062     TIP3     OH2      OT      -0.834000       15.9994           0
     18667 TIP3     2062     TIP3     H1       HT       0.417000       1.00800           0
     18668 TIP3     2062     TIP3     H2       HT       0.417000       1.00800           0
     18669 TIP3     2063     TIP3     OH2      OT      -0.834000       15.9994           0
     18670 TIP3     2063     TIP3     H1       HT       0.417000       1.00800           0
     18671 TIP3     2063     TIP3     H2       HT       0.417000       1.00800           0
     18672 TIP3     2064     TIP3     OH2      OT      -0.834000       15.9994           0
     18673 TIP3     2064     TIP3     H1       HT       0.417000       1.00800           0
     18674 TIP3     2064     TIP3     H2       HT       0.417000       1.00800           0
     18675 TIP3     2065     TIP3     OH2      OT      -0.834000       15.9994           0
     18676 TIP3     2065     TIP3     H1       HT       0.417000       1.00800           0
     18677 TIP3     2065     TIP3     H2       HT       0.417000       1.00800           0
     18678 TIP3     2066     TIP3     OH2      OT      -0.834000       15.9994           0
     18679 TIP3     2066     TIP3     H1       HT       0.417000       1.00800           0
     18680 TIP3     2066     TIP3     H2       HT       0.417000       1.00800           0
     18681 TIP3     2067     TIP3     OH2      OT      -0.834000       15.9994           0
     18682 TIP3     2067     TIP3     H1       HT       0.417000       1.00800           0
     18683 TIP3     2067     TIP3     H2       HT       0.417000       1.00800           0
     18684 TIP3     2068     TIP3     OH2      OT      -0.834000       15.9994           0
     18685 TIP3     2068     TIP3     H1       HT       0.417000       1.00800           0
     18686 TIP3     2068     TIP3     H2       HT       0.417000       1.00800           0
     18687 TIP3     2069     TIP3     OH2      OT      -0.834000       15.9994           0
     18688 TIP3     2069     TIP3     H1       HT       0.417000       1.00800           0
     18689 TIP3     2069     TIP3     H2       HT       0.417000       1.00800           0
     18690 TIP3     2070     TIP3     OH2      OT      -0.834000       15.9994           0
     18691 TIP3     2070     TIP3     H1       HT       0.417000       1.00800           0
     18692 TIP3     2070     TIP3     H2       HT       0.417000       1.00800           0
     18693 TIP3     2071     TIP3     OH2      OT      -0.834000       15.9994           0
     18694 TIP3     2071     TIP3     H1       HT       0.417000       1.00800           0
     18695 TIP3     2071     TIP3     H2       HT       0.417000       1.00800           0
     18696 TIP3     2072     TIP3     OH2      OT      -0.834000       15.9994           0
     18697 TIP3     2072     TIP3     H1       HT       0.417000       1.00800           0
     18698 TIP3     2072     TIP3     H2       HT       0.417000       1.00800           0
     18699 TIP3     2073     TIP3     OH2      OT      -0.834000       15.9994           0
     18700 TIP3     2073     TIP3     H1       HT       0.417000       1.00800           0
     18701 TIP3     2073     TIP3     H2       HT       0.417000       1.00800           0
     18702 TIP3     2074     TIP3     OH2      OT      -0.834000       15.9994           0
     18703 TIP3     2074     TIP3     H1       HT       0.417000       1.00800           0
     18704 TIP3     2074     TIP3     H2       HT       0.417000       1.00800           0
     18705 TIP3     2075     TIP3     OH2      OT      -0.834000       15.9994           0
     18706 TIP3     2075     TIP3     H1       HT       0.417000       1.00800           0
     18707 TIP3     2075     TIP3     H2       HT       0.417000       1.00800           0
     18708 TIP3     2076     TIP3     OH2      OT      -0.834000       15.9994           0
     18709 TIP3     2076     TIP3     H1       HT       0.417000       1.00800           0
     18710 TIP3     2076     TIP3     H2       HT       0.417000       1.00800           0
     18711 TIP3     2077     TIP3     OH2      OT      -0.834000       15.9994           0
     18712 TIP3     2077     TIP3     H1       HT       0.417000       1.00800           0
     18713 TIP3     2077     TIP3     H2       HT       0.417000       1.00800           0
     18714 TIP3     2078     TIP3     OH2      OT      -0.834000       15.9994           0
     18715 TIP3     2078     TIP3     H1       HT       0.417000       1.00800           0
     18716 TIP3     2078     TIP3     H2       HT       0.417000       1.00800           0
     18717 TIP3     2079     TIP3     OH2      OT      -0.834000       15.9994           0
     18718 TIP3     2079     TIP3     H1       HT       0.417000       1.00800           0
     18719 TIP3     2079     TIP3     H2       HT       0.417000       1.00800           0
     18720 TIP3     2080     TIP3     OH2      OT      -0.834000       15.9994           0
     18721 TIP3     2080     TIP3     H1       HT       0.417000       1.00800           0
     18722 TIP3     2080     TIP3     H2       HT       0.417000       1.00800           0
     18723 TIP3     2081     TIP3     OH2      OT      -0.834000       15.9994           0
     18724 TIP3     2081     TIP3     H1       HT       0.417000       1.00800           0
     18725 TIP3     2081     TIP3     H2       HT       0.417000       1.00800           0
     18726 TIP3     2082     TIP3     OH2      OT      -0.834000       15.9994           0
     18727 TIP3     2082     TIP3     H1       HT       0.417000       1.00800           0
     18728 TIP3     2082     TIP3     H2       HT       0.417000       1.00800           0
     18729 TIP3     2083     TIP3     OH2      OT      -0.834000       15.9994           0
     18730 TIP3     2083     TIP3     H1       HT       0.417000       1.00800           0
     18731 TIP3     2083     TIP3     H2       HT       0.417000       1.00800           0
     18732 TIP3     2084     TIP3     OH2      OT      -0.834000       15.9994           0
     18733 TIP3     2084     TIP3     H1       HT       0.417000       1.00800           0
     18734 TIP3     2084     TIP3     H2       HT       0.417000       1.00800           0
     18735 TIP3     2085     TIP3     OH2      OT      -0.834000       15.9994           0
     18736 TIP3     2085     TIP3     H1       HT       0.417000       1.00800           0
     18737 TIP3     2085     TIP3     H2       HT       0.417000       1.00800           0
     18738 TIP3     2086     TIP3     OH2      OT      -0.834000       15.9994           0
     18739 TIP3     2086     TIP3     H1       HT       0.417000       1.00800           0
     18740 TIP3     2086     TIP3     H2       HT       0.417000       1.00800           0
     18741 TIP3     2087     TIP3     OH2      OT      -0.834000       15.9994           0
     18742 TIP3     2087     TIP3     H1       HT       0.417000       1.00800           0
     18743 TIP3     2087     TIP3     H2       HT       0.417000       1.00800           0
     18744 TIP3     2088     TIP3     OH2      OT      -0.834000       15.9994           0
     18745 TIP3     2088     TIP3     H1       HT       0.417000       1.00800           0
     18746 TIP3     2088     TIP3     H2       HT       0.417000       1.00800           0
     18747 TIP3     2089     TIP3     OH2      OT      -0.834000       15.9994           0
     18748 TIP3     2089     TIP3     H1       HT       0.417000       1.00800           0
     18749 TIP3     2089     TIP3     H2       HT       0.417000       1.00800           0
     18750 TIP3     2090     TIP3     OH2      OT      -0.834000       15.9994           0
     18751 TIP3     2090     TIP3     H1       HT       0.417000       1.00800           0
     18752 TIP3     2090     TIP3     H2       HT       0.417000       1.00800           0
     18753 TIP3     2091     TIP3     OH2      OT      -0.834000       15.9994           0
     18754 TIP3     2091     TIP3     H1       HT       0.417000       1.00800           0
     18755 TIP3     2091     TIP3     H2       HT       0.417000       1.00800           0
     18756 TIP3     2092     TIP3     OH2      OT      -0.834000       15.9994           0
     18757 TIP3     2092     TIP3     H1       HT       0.417000       1.00800           0
     18758 TIP3     2092     TIP3     H2       HT       0.417000       1.00800           0
     18759 TIP3     2093     TIP3     OH2      OT      -0.834000       15.9994           0
     18760 TIP3     2093     TIP3     H1       HT       0.417000       1.00800           0
     18761 TIP3     2093     TIP3     H2       HT       0.417000       1.00800           0
     18762 TIP3     2094     TIP3     OH2      OT      -0.834000       15.9994           0
     18763 TIP3     2094     TIP3     H1       HT       0.417000       1.00800           0
     18764 TIP3     2094     TIP3     H2       HT       0.417000       1.00800           0
     18765 TIP3     2095     TIP3     OH2      OT      -0.834000       15.9994           0
     18766 TIP3     2095     TIP3     H1       HT       0.417000       1.00800           0
     18767 TIP3     2095     TIP3     H2       HT       0.417000       1.00800           0
     18768 TIP3     2096     TIP3     OH2      OT      -0.834000       15.9994           0
     18769 TIP3     2096     TIP3     H1       HT       0.417000       1.00800           0
     18770 TIP3     2096     TIP3     H2       HT       0.417000       1.00800           0
     18771 TIP3     2097     TIP3     OH2      OT      -0.834000       15.9994           0
     18772 TIP3     2097     TIP3     H1       HT       0.417000       1.00800           0
     18773 TIP3     2097     TIP3     H2       HT       0.417000       1.00800           0
     18774 TIP3     2098     TIP3     OH2      OT      -0.834000       15.9994           0
     18775 TIP3     2098     TIP3     H1       HT       0.417000       1.00800           0
     18776 TIP3     2098     TIP3     H2       HT       0.417000       1.00800           0
     18777 TIP3     2099     TIP3     OH2      OT      -0.834000       15.9994           0
     18778 TIP3     2099     TIP3     H1       HT       0.417000       1.00800           0
     18779 TIP3     2099     TIP3     H2       HT       0.417000       1.00800           0
     18780 TIP3     2100     TIP3     OH2      OT      -0.834000       15.9994           0
     18781 TIP3     2100     TIP3     H1       HT       0.417000       1.00800           0
     18782 TIP3     2100     TIP3     H2       HT       0.417000       1.00800           0
     18783 TIP3     2101     TIP3     OH2      OT      -0.834000       15.9994           0
     18784 TIP3     2101     TIP3     H1       HT       0.417000       1.00800           0
     18785 TIP3     2101     TIP3     H2       HT       0.417000       1.00800           0
     18786 TIP3     2102     TIP3     OH2      OT      -0.834000       15.9994           0
     18787 TIP3     2102     TIP3     H1       HT       0.417000       1.00800           0
     18788 TIP3     2102     TIP3     H2       HT       0.417000       1.00800           0
     18789 TIP3     2103     TIP3     OH2      OT      -0.834000       15.9994           0
     18790 TIP3     2103     TIP3     H1       HT       0.417000       1.00800           0
     18791 TIP3     2103     TIP3     H2       HT       0.417000       1.00800           0
     18792 TIP3     2104     TIP3     OH2      OT      -0.834000       15.9994           0
     18793 TIP3     2104     TIP3     H1       HT       0.417000       1.00800           0
     18794 TIP3     2104     TIP3     H2       HT       0.417000       1.00800           0
     18795 TIP3     2105     TIP3     OH2      OT      -0.834000       15.9994           0
     18796 TIP3     2105     TIP3     H1       HT       0.417000       1.00800           0
     18797 TIP3     2105     TIP3     H2       HT       0.417000       1.00800           0
     18798 TIP3     2106     TIP3     OH2      OT      -0.834000       15.9994           0
     18799 TIP3     2106     TIP3     H1       HT       0.417000       1.00800           0
     18800 TIP3     2106     TIP3     H2       HT       0.417000       1.00800           0
     18801 TIP3     2107     TIP3     OH2      OT      -0.834000       15.9994           0
     18802 TIP3     2107     TIP3     H1       HT       0.417000       1.00800           0
     18803 TIP3     2107     TIP3     H2       HT       0.417000       1.00800           0
     18804 TIP3     2108     TIP3     OH2      OT      -0.834000       15.9994           0
     18805 TIP3     2108     TIP3     H1       HT       0.417000       1.00800           0
     18806 TIP3     2108     TIP3     H2       HT       0.417000       1.00800           0
     18807 TIP3     2109     TIP3     OH2      OT      -0.834000       15.9994           0
     18808 TIP3     2109     TIP3     H1       HT       0.417000       1.00800           0
     18809 TIP3     2109     TIP3     H2       HT       0.417000       1.00800           0
     18810 TIP3     2110     TIP3     OH2      OT      -0.834000       15.9994           0
     18811 TIP3     2110     TIP3     H1       HT       0.417000       1.00800           0
     18812 TIP3     2110     TIP3     H2       HT       0.417000       1.00800           0
     18813 TIP3     2111     TIP3     OH2      OT      -0.834000       15.9994           0
     18814 TIP3     2111     TIP3     H1       HT       0.417000       1.00800           0
     18815 TIP3     2111     TIP3     H2       HT       0.417000       1.00800           0
     18816 TIP3     2112     TIP3     OH2      OT      -0.834000       15.9994           0
     18817 TIP3     2112     TIP3     H1       HT       0.417000       1.00800           0
     18818 TIP3     2112     TIP3     H2       HT       0.417000       1.00800           0
     18819 TIP3     2113     TIP3     OH2      OT      -0.834000       15.9994           0
     18820 TIP3     2113     TIP3     H1       HT       0.417000       1.00800           0
     18821 TIP3     2113     TIP3     H2       HT       0.417000       1.00800           0
     18822 TIP3     2114     TIP3     OH2      OT      -0.834000       15.9994           0
     18823 TIP3     2114     TIP3     H1       HT       0.417000       1.00800           0
     18824 TIP3     2114     TIP3     H2       HT       0.417000       1.00800           0
     18825 TIP3     2115     TIP3     OH2      OT      -0.834000       15.9994           0
     18826 TIP3     2115     TIP3     H1       HT       0.417000       1.00800           0
     18827 TIP3     2115     TIP3     H2       HT       0.417000       1.00800           0
     18828 TIP3     2116     TIP3     OH2      OT      -0.834000       15.9994           0
     18829 TIP3     2116     TIP3     H1       HT       0.417000       1.00800           0
     18830 TIP3     2116     TIP3     H2       HT       0.417000       1.00800           0
     18831 TIP3     2117     TIP3     OH2      OT      -0.834000       15.9994           0
     18832 TIP3     2117     TIP3     H1       HT       0.417000       1.00800           0
     18833 TIP3     2117     TIP3     H2       HT       0.417000       1.00800           0
     18834 TIP3     2118     TIP3     OH2      OT      -0.834000       15.9994           0
     18835 TIP3     2118     TIP3     H1       HT       0.417000       1.00800           0
     18836 TIP3     2118     TIP3     H2       HT       0.417000       1.00800           0
     18837 TIP3     2119     TIP3     OH2      OT      -0.834000       15.9994           0
     18838 TIP3     2119     TIP3     H1       HT       0.417000       1.00800           0
     18839 TIP3     2119     TIP3     H2       HT       0.417000       1.00800           0
     18840 TIP3     2120     TIP3     OH2      OT      -0.834000       15.9994           0
     18841 TIP3     2120     TIP3     H1       HT       0.417000       1.00800           0
     18842 TIP3     2120     TIP3     H2       HT       0.417000       1.00800           0
     18843 TIP3     2121     TIP3     OH2      OT      -0.834000       15.9994           0
     18844 TIP3     2121     TIP3     H1       HT       0.417000       1.00800           0
     18845 TIP3     2121     TIP3     H2       HT       0.417000       1.00800           0
     18846 TIP3     2122     TIP3     OH2      OT      -0.834000       15.9994           0
     18847 TIP3     2122     TIP3     H1       HT       0.417000       1.00800           0
     18848 TIP3     2122     TIP3     H2       HT       0.417000       1.00800           0
     18849 TIP3     2123     TIP3     OH2      OT      -0.834000       15.9994           0
     18850 TIP3     2123     TIP3     H1       HT       0.417000       1.00800           0
     18851 TIP3     2123     TIP3     H2       HT       0.417000       1.00800           0
     18852 TIP3     2124     TIP3     OH2      OT      -0.834000       15.9994           0
     18853 TIP3     2124     TIP3     H1       HT       0.417000       1.00800           0
     18854 TIP3     2124     TIP3     H2       HT       0.417000       1.00800           0
     18855 TIP3     2125     TIP3     OH2      OT      -0.834000       15.9994           0
     18856 TIP3     2125     TIP3     H1       HT       0.417000       1.00800           0
     18857 TIP3     2125     TIP3     H2       HT       0.417000       1.00800           0
     18858 TIP3     2126     TIP3     OH2      OT      -0.834000       15.9994           0
     18859 TIP3     2126     TIP3     H1       HT       0.417000       1.00800           0
     18860 TIP3     2126     TIP3     H2       HT       0.417000       1.00800           0
     18861 TIP3     2127     TIP3     OH2      OT      -0.834000       15.9994           0
     18862 TIP3     2127     TIP3     H1       HT       0.417000       1.00800           0
     18863 TIP3     2127     TIP3     H2       HT       0.417000       1.00800           0
     18864 TIP3     2128     TIP3     OH2      OT      -0.834000       15.9994           0
     18865 TIP3     2128     TIP3     H1       HT       0.417000       1.00800           0
     18866 TIP3     2128     TIP3     H2       HT       0.417000       1.00800           0
     18867 TIP3     2129     TIP3     OH2      OT      -0.834000       15.9994           0
     18868 TIP3     2129     TIP3     H1       HT       0.417000       1.00800           0
     18869 TIP3     2129     TIP3     H2       HT       0.417000       1.00800           0
     18870 TIP3     2130     TIP3     OH2      OT      -0.834000       15.9994           0
     18871 TIP3     2130     TIP3     H1       HT       0.417000       1.00800           0
     18872 TIP3     2130     TIP3     H2       HT       0.417000       1.00800           0
     18873 TIP3     2131     TIP3     OH2      OT      -0.834000       15.9994           0
     18874 TIP3     2131     TIP3     H1       HT       0.417000       1.00800           0
     18875 TIP3     2131     TIP3     H2       HT       0.417000       1.00800           0
     18876 TIP3     2132     TIP3     OH2      OT      -0.834000       15.9994           0
     18877 TIP3     2132     TIP3     H1       HT       0.417000       1.00800           0
     18878 TIP3     2132     TIP3     H2       HT       0.417000       1.00800           0
     18879 TIP3     2133     TIP3     OH2      OT      -0.834000       15.9994           0
     18880 TIP3     2133     TIP3     H1       HT       0.417000       1.00800           0
     18881 TIP3     2133     TIP3     H2       HT       0.417000       1.00800           0
     18882 TIP3     2134     TIP3     OH2      OT      -0.834000       15.9994           0
     18883 TIP3     2134     TIP3     H1       HT       0.417000       1.00800           0
     18884 TIP3     2134     TIP3     H2       HT       0.417000       1.00800           0
     18885 TIP3     2135     TIP3     OH2      OT      -0.834000       15.9994           0
     18886 TIP3     2135     TIP3     H1       HT       0.417000       1.00800           0
     18887 TIP3     2135     TIP3     H2       HT       0.417000       1.00800           0
     18888 TIP3     2136     TIP3     OH2      OT      -0.834000       15.9994           0
     18889 TIP3     2136     TIP3     H1       HT       0.417000       1.00800           0
     18890 TIP3     2136     TIP3     H2       HT       0.417000       1.00800           0
     18891 TIP3     2137     TIP3     OH2      OT      -0.834000       15.9994           0
     18892 TIP3     2137     TIP3     H1       HT       0.417000       1.00800           0
     18893 TIP3     2137     TIP3     H2       HT       0.417000       1.00800           0
     18894 TIP3     2138     TIP3     OH2      OT      -0.834000       15.9994           0
     18895 TIP3     2138     TIP3     H1       HT       0.417000       1.00800           0
     18896 TIP3     2138     TIP3     H2       HT       0.417000       1.00800           0
     18897 TIP3     2139     TIP3     OH2      OT      -0.834000       15.9994           0
     18898 TIP3     2139     TIP3     H1       HT       0.417000       1.00800           0
     18899 TIP3     2139     TIP3     H2       HT       0.417000       1.00800           0
     18900 TIP3     2140     TIP3     OH2      OT      -0.834000       15.9994           0
     18901 TIP3     2140     TIP3     H1       HT       0.417000       1.00800           0
     18902 TIP3     2140     TIP3     H2       HT       0.417000       1.00800           0
     18903 TIP3     2141     TIP3     OH2      OT      -0.834000       15.9994           0
     18904 TIP3     2141     TIP3     H1       HT       0.417000       1.00800           0
     18905 TIP3     2141     TIP3     H2       HT       0.417000       1.00800           0
     18906 TIP3     2142     TIP3     OH2      OT      -0.834000       15.9994           0
     18907 TIP3     2142     TIP3     H1       HT       0.417000       1.00800           0
     18908 TIP3     2142     TIP3     H2       HT       0.417000       1.00800           0
     18909 TIP3     2143     TIP3     OH2      OT      -0.834000       15.9994           0
     18910 TIP3     2143     TIP3     H1       HT       0.417000       1.00800           0
     18911 TIP3     2143     TIP3     H2       HT       0.417000       1.00800           0
     18912 TIP3     2144     TIP3     OH2      OT      -0.834000       15.9994           0
     18913 TIP3     2144     TIP3     H1       HT       0.417000       1.00800           0
     18914 TIP3     2144     TIP3     H2       HT       0.417000       1.00800           0
     18915 TIP3     2145     TIP3     OH2      OT      -0.834000       15.9994           0
     18916 TIP3     2145     TIP3     H1       HT       0.417000       1.00800           0
     18917 TIP3     2145     TIP3     H2       HT       0.417000       1.00800           0
     18918 TIP3     2146     TIP3     OH2      OT      -0.834000       15.9994           0
     18919 TIP3     2146     TIP3     H1       HT       0.417000       1.00800           0
     18920 TIP3     2146     TIP3     H2       HT       0.417000       1.00800           0
     18921 TIP3     2147     TIP3     OH2      OT      -0.834000       15.9994           0
     18922 TIP3     2147     TIP3     H1       HT       0.417000       1.00800           0
     18923 TIP3     2147     TIP3     H2       HT       0.417000       1.00800           0
     18924 TIP3     2148     TIP3     OH2      OT      -0.834000       15.9994           0
     18925 TIP3     2148     TIP3     H1       HT       0.417000       1.00800           0
     18926 TIP3     2148     TIP3     H2       HT       0.417000       1.00800           0
     18927 TIP3     2149     TIP3     OH2      OT      -0.834000       15.9994           0
     18928 TIP3     2149     TIP3     H1       HT       0.417000       1.00800           0
     18929 TIP3     2149     TIP3     H2       HT       0.417000       1.00800           0
     18930 TIP3     2150     TIP3     OH2      OT      -0.834000       15.9994           0
     18931 TIP3     2150     TIP3     H1       HT       0.417000       1.00800           0
     18932 TIP3     2150     TIP3     H2       HT       0.417000       1.00800           0
     18933 TIP3     2151     TIP3     OH2      OT      -0.834000       15.9994           0
     18934 TIP3     2151     TIP3     H1       HT       0.417000       1.00800           0
     18935 TIP3     2151     TIP3     H2       HT       0.417000       1.00800           0
     18936 TIP3     2152     TIP3     OH2      OT      -0.834000       15.9994           0
     18937 TIP3     2152     TIP3     H1       HT       0.417000       1.00800           0
     18938 TIP3     2152     TIP3     H2       HT       0.417000       1.00800           0
     18939 TIP3     2153     TIP3     OH2      OT      -0.834000       15.9994           0
     18940 TIP3     2153     TIP3     H1       HT       0.417000       1.00800           0
     18941 TIP3     2153     TIP3     H2       HT       0.417000       1.00800           0
     18942 TIP3     2154     TIP3     OH2      OT      -0.834000       15.9994           0
     18943 TIP3     2154     TIP3     H1       HT       0.417000       1.00800           0
     18944 TIP3     2154     TIP3     H2       HT       0.417000       1.00800           0
     18945 TIP3     2155     TIP3     OH2      OT      -0.834000       15.9994           0
     18946 TIP3     2155     TIP3     H1       HT       0.417000       1.00800           0
     18947 TIP3     2155     TIP3     H2       HT       0.417000       1.00800           0
     18948 TIP3     2156     TIP3     OH2      OT      -0.834000       15.9994           0
     18949 TIP3     2156     TIP3     H1       HT       0.417000       1.00800           0
     18950 TIP3     2156     TIP3     H2       HT       0.417000       1.00800           0
     18951 TIP3     2157     TIP3     OH2      OT      -0.834000       15.9994           0
     18952 TIP3     2157     TIP3     H1       HT       0.417000       1.00800           0
     18953 TIP3     2157     TIP3     H2       HT       0.417000       1.00800           0
     18954 TIP3     2158     TIP3     OH2      OT      -0.834000       15.9994           0
     18955 TIP3     2158     TIP3     H1       HT       0.417000       1.00800           0
     18956 TIP3     2158     TIP3     H2       HT       0.417000       1.00800           0
     18957 TIP3     2159     TIP3     OH2      OT      -0.834000       15.9994           0
     18958 TIP3     2159     TIP3     H1       HT       0.417000       1.00800           0
     18959 TIP3     2159     TIP3     H2       HT       0.417000       1.00800           0
     18960 TIP3     2160     TIP3     OH2      OT      -0.834000       15.9994           0
     18961 TIP3     2160     TIP3     H1       HT       0.417000       1.00800           0
     18962 TIP3     2160     TIP3     H2       HT       0.417000       1.00800           0
     18963 TIP3     2161     TIP3     OH2      OT      -0.834000       15.9994           0
     18964 TIP3     2161     TIP3     H1       HT       0.417000       1.00800           0
     18965 TIP3     2161     TIP3     H2       HT       0.417000       1.00800           0
     18966 TIP3     2162     TIP3     OH2      OT      -0.834000       15.9994           0
     18967 TIP3     2162     TIP3     H1       HT       0.417000       1.00800           0
     18968 TIP3     2162     TIP3     H2       HT       0.417000       1.00800           0
     18969 TIP3     2163     TIP3     OH2      OT      -0.834000       15.9994           0
     18970 TIP3     2163     TIP3     H1       HT       0.417000       1.00800           0
     18971 TIP3     2163     TIP3     H2       HT       0.417000       1.00800           0
     18972 TIP3     2164     TIP3     OH2      OT      -0.834000       15.9994           0
     18973 TIP3     2164     TIP3     H1       HT       0.417000       1.00800           0
     18974 TIP3     2164     TIP3     H2       HT       0.417000       1.00800           0
     18975 TIP3     2165     TIP3     OH2      OT      -0.834000       15.9994           0
     18976 TIP3     2165     TIP3     H1       HT       0.417000       1.00800           0
     18977 TIP3     2165     TIP3     H2       HT       0.417000       1.00800           0
     18978 TIP3     2166     TIP3     OH2      OT      -0.834000       15.9994           0
     18979 TIP3     2166     TIP3     H1       HT       0.417000       1.00800           0
     18980 TIP3     2166     TIP3     H2       HT       0.417000       1.00800           0
     18981 TIP3     2167     TIP3     OH2      OT      -0.834000       15.9994           0
     18982 TIP3     2167     TIP3     H1       HT       0.417000       1.00800           0
     18983 TIP3     2167     TIP3     H2       HT       0.417000       1.00800           0
     18984 TIP3     2168     TIP3     OH2      OT      -0.834000       15.9994           0
     18985 TIP3     2168     TIP3     H1       HT       0.417000       1.00800           0
     18986 TIP3     2168     TIP3     H2       HT       0.417000       1.00800           0
     18987 TIP3     2169     TIP3     OH2      OT      -0.834000       15.9994           0
     18988 TIP3     2169     TIP3     H1       HT       0.417000       1.00800           0
     18989 TIP3     2169     TIP3     H2       HT       0.417000       1.00800           0
     18990 TIP3     2170     TIP3     OH2      OT      -0.834000       15.9994           0
     18991 TIP3     2170     TIP3     H1       HT       0.417000       1.00800           0
     18992 TIP3     2170     TIP3     H2       HT       0.417000       1.00800           0
     18993 TIP3     2171     TIP3     OH2      OT      -0.834000       15.9994           0
     18994 TIP3     2171     TIP3     H1       HT       0.417000       1.00800           0
     18995 TIP3     2171     TIP3     H2       HT       0.417000       1.00800           0
     18996 TIP3     2172     TIP3     OH2      OT      -0.834000       15.9994           0
     18997 TIP3     2172     TIP3     H1       HT       0.417000       1.00800           0
     18998 TIP3     2172     TIP3     H2       HT       0.417000       1.00800           0
     18999 TIP3     2173     TIP3     OH2      OT      -0.834000       15.9994           0
     19000 TIP3     2173     TIP3     H1       HT       0.417000       1.00800           0
     19001 TIP3     2173     TIP3     H2       HT       0.417000       1.00800           0
     19002 TIP3     2174     TIP3     OH2      OT      -0.834000       15.9994           0
     19003 TIP3     2174     TIP3     H1       HT       0.417000       1.00800           0
     19004 TIP3     2174     TIP3     H2       HT       0.417000       1.00800           0
     19005 TIP3     2175     TIP3     OH2      OT      -0.834000       15.9994           0
     19006 TIP3     2175     TIP3     H1       HT       0.417000       1.00800           0
     19007 TIP3     2175     TIP3     H2       HT       0.417000       1.00800           0
     19008 TIP3     2176     TIP3     OH2      OT      -0.834000       15.9994           0
     19009 TIP3     2176     TIP3     H1       HT       0.417000       1.00800           0
     19010 TIP3     2176     TIP3     H2       HT       0.417000       1.00800           0
     19011 TIP3     2177     TIP3     OH2      OT      -0.834000       15.9994           0
     19012 TIP3     2177     TIP3     H1       HT       0.417000       1.00800           0
     19013 TIP3     2177     TIP3     H2       HT       0.417000       1.00800           0
     19014 TIP3     2178     TIP3     OH2      OT      -0.834000       15.9994           0
     19015 TIP3     2178     TIP3     H1       HT       0.417000       1.00800           0
     19016 TIP3     2178     TIP3     H2       HT       0.417000       1.00800           0
     19017 TIP3     2179     TIP3     OH2      OT      -0.834000       15.9994           0
     19018 TIP3     2179     TIP3     H1       HT       0.417000       1.00800           0
     19019 TIP3     2179     TIP3     H2       HT       0.417000       1.00800           0
     19020 TIP3     2180     TIP3     OH2      OT      -0.834000       15.9994           0
     19021 TIP3     2180     TIP3     H1       HT       0.417000       1.00800           0
     19022 TIP3     2180     TIP3     H2       HT       0.417000       1.00800           0
     19023 TIP3     2181     TIP3     OH2      OT      -0.834000       15.9994           0
     19024 TIP3     2181     TIP3     H1       HT       0.417000       1.00800           0
     19025 TIP3     2181     TIP3     H2       HT       0.417000       1.00800           0
     19026 TIP3     2182     TIP3     OH2      OT      -0.834000       15.9994           0
     19027 TIP3     2182     TIP3     H1       HT       0.417000       1.00800           0
     19028 TIP3     2182     TIP3     H2       HT       0.417000       1.00800           0
     19029 TIP3     2183     TIP3     OH2      OT      -0.834000       15.9994           0
     19030 TIP3     2183     TIP3     H1       HT       0.417000       1.00800           0
     19031 TIP3     2183     TIP3     H2       HT       0.417000       1.00800           0
     19032 TIP3     2184     TIP3     OH2      OT      -0.834000       15.9994           0
     19033 TIP3     2184     TIP3     H1       HT       0.417000       1.00800           0
     19034 TIP3     2184     TIP3     H2       HT       0.417000       1.00800           0
     19035 TIP3     2185     TIP3     OH2      OT      -0.834000       15.9994           0
     19036 TIP3     2185     TIP3     H1       HT       0.417000       1.00800           0
     19037 TIP3     2185     TIP3     H2       HT       0.417000       1.00800           0
     19038 TIP3     2186     TIP3     OH2      OT      -0.834000       15.9994           0
     19039 TIP3     2186     TIP3     H1       HT       0.417000       1.00800           0
     19040 TIP3     2186     TIP3     H2       HT       0.417000       1.00800           0
     19041 TIP3     2187     TIP3     OH2      OT      -0.834000       15.9994           0
     19042 TIP3     2187     TIP3     H1       HT       0.417000       1.00800           0
     19043 TIP3     2187     TIP3     H2       HT       0.417000       1.00800           0
     19044 TIP3     2188     TIP3     OH2      OT      -0.834000       15.9994           0
     19045 TIP3     2188     TIP3     H1       HT       0.417000       1.00800           0
     19046 TIP3     2188     TIP3     H2       HT       0.417000       1.00800           0
     19047 TIP3     2189     TIP3     OH2      OT      -0.834000       15.9994           0
     19048 TIP3     2189     TIP3     H1       HT       0.417000       1.00800           0
     19049 TIP3     2189     TIP3     H2       HT       0.417000       1.00800           0
     19050 TIP3     2190     TIP3     OH2      OT      -0.834000       15.9994           0
     19051 TIP3     2190     TIP3     H1       HT       0.417000       1.00800           0
     19052 TIP3     2190     TIP3     H2       HT       0.417000       1.00800           0
     19053 TIP3     2191     TIP3     OH2      OT      -0.834000       15.9994           0
     19054 TIP3     2191     TIP3     H1       HT       0.417000       1.00800           0
     19055 TIP3     2191     TIP3     H2       HT       0.417000       1.00800           0
     19056 TIP3     2192     TIP3     OH2      OT      -0.834000       15.9994           0
     19057 TIP3     2192     TIP3     H1       HT       0.417000       1.00800           0
     19058 TIP3     2192     TIP3     H2       HT       0.417000       1.00800           0
     19059 TIP3     2193     TIP3     OH2      OT      -0.834000       15.9994           0
     19060 TIP3     2193     TIP3     H1       HT       0.417000       1.00800           0
     19061 TIP3     2193     TIP3     H2       HT       0.417000       1.00800           0
     19062 TIP3     2194     TIP3     OH2      OT      -0.834000       15.9994           0
     19063 TIP3     2194     TIP3     H1       HT       0.417000       1.00800           0
     19064 TIP3     2194     TIP3     H2       HT       0.417000       1.00800           0
     19065 TIP3     2195     TIP3     OH2      OT      -0.834000       15.9994           0
     19066 TIP3     2195     TIP3     H1       HT       0.417000       1.00800           0
     19067 TIP3     2195     TIP3     H2       HT       0.417000       1.00800           0
     19068 TIP3     2196     TIP3     OH2      OT      -0.834000       15.9994           0
     19069 TIP3     2196     TIP3     H1       HT       0.417000       1.00800           0
     19070 TIP3     2196     TIP3     H2       HT       0.417000       1.00800           0
     19071 TIP3     2197     TIP3     OH2      OT      -0.834000       15.9994           0
     19072 TIP3     2197     TIP3     H1       HT       0.417000       1.00800           0
     19073 TIP3     2197     TIP3     H2       HT       0.417000       1.00800           0
     19074 TIP3     2198     TIP3     OH2      OT      -0.834000       15.9994           0
     19075 TIP3     2198     TIP3     H1       HT       0.417000       1.00800           0
     19076 TIP3     2198     TIP3     H2       HT       0.417000       1.00800           0
     19077 TIP3     2199     TIP3     OH2      OT      -0.834000       15.9994           0
     19078 TIP3     2199     TIP3     H1       HT       0.417000       1.00800           0
     19079 TIP3     2199     TIP3     H2       HT       0.417000       1.00800           0
     19080 TIP3     2200     TIP3     OH2      OT      -0.834000       15.9994           0
     19081 TIP3     2200     TIP3     H1       HT       0.417000       1.00800           0
     19082 TIP3     2200     TIP3     H2       HT       0.417000       1.00800           0
     19083 TIP3     2201     TIP3     OH2      OT      -0.834000       15.9994           0
     19084 TIP3     2201     TIP3     H1       HT       0.417000       1.00800           0
     19085 TIP3     2201     TIP3     H2       HT       0.417000       1.00800           0
     19086 TIP3     2202     TIP3     OH2      OT      -0.834000       15.9994           0
     19087 TIP3     2202     TIP3     H1       HT       0.417000       1.00800           0
     19088 TIP3     2202     TIP3     H2       HT       0.417000       1.00800           0
     19089 TIP3     2203     TIP3     OH2      OT      -0.834000       15.9994           0
     19090 TIP3     2203     TIP3     H1       HT       0.417000       1.00800           0
     19091 TIP3     2203     TIP3     H2       HT       0.417000       1.00800           0
     19092 TIP3     2204     TIP3     OH2      OT      -0.834000       15.9994           0
     19093 TIP3     2204     TIP3     H1       HT       0.417000       1.00800           0
     19094 TIP3     2204     TIP3     H2       HT       0.417000       1.00800           0
     19095 TIP3     2205     TIP3     OH2      OT      -0.834000       15.9994           0
     19096 TIP3     2205     TIP3     H1       HT       0.417000       1.00800           0
     19097 TIP3     2205     TIP3     H2       HT       0.417000       1.00800           0
     19098 TIP3     2206     TIP3     OH2      OT      -0.834000       15.9994           0
     19099 TIP3     2206     TIP3     H1       HT       0.417000       1.00800           0
     19100 TIP3     2206     TIP3     H2       HT       0.417000       1.00800           0
     19101 TIP3     2207     TIP3     OH2      OT      -0.834000       15.9994           0
     19102 TIP3     2207     TIP3     H1       HT       0.417000       1.00800           0
     19103 TIP3     2207     TIP3     H2       HT       0.417000       1.00800           0
     19104 TIP3     2208     TIP3     OH2      OT      -0.834000       15.9994           0
     19105 TIP3     2208     TIP3     H1       HT       0.417000       1.00800           0
     19106 TIP3     2208     TIP3     H2       HT       0.417000       1.00800           0
     19107 TIP3     2209     TIP3     OH2      OT      -0.834000       15.9994           0
     19108 TIP3     2209     TIP3     H1       HT       0.417000       1.00800           0
     19109 TIP3     2209     TIP3     H2       HT       0.417000       1.00800           0
     19110 TIP3     2210     TIP3     OH2      OT      -0.834000       15.9994           0
     19111 TIP3     2210     TIP3     H1       HT       0.417000       1.00800           0
     19112 TIP3     2210     TIP3     H2       HT       0.417000       1.00800           0
     19113 TIP3     2211     TIP3     OH2      OT      -0.834000       15.9994           0
     19114 TIP3     2211     TIP3     H1       HT       0.417000       1.00800           0
     19115 TIP3     2211     TIP3     H2       HT       0.417000       1.00800           0
     19116 TIP3     2212     TIP3     OH2      OT      -0.834000       15.9994           0
     19117 TIP3     2212     TIP3     H1       HT       0.417000       1.00800           0
     19118 TIP3     2212     TIP3     H2       HT       0.417000       1.00800           0
     19119 TIP3     2213     TIP3     OH2      OT      -0.834000       15.9994           0
     19120 TIP3     2213     TIP3     H1       HT       0.417000       1.00800           0
     19121 TIP3     2213     TIP3     H2       HT       0.417000       1.00800           0
     19122 TIP3     2214     TIP3     OH2      OT      -0.834000       15.9994           0
     19123 TIP3     2214     TIP3     H1       HT       0.417000       1.00800           0
     19124 TIP3     2214     TIP3     H2       HT       0.417000       1.00800           0
     19125 TIP3     2215     TIP3     OH2      OT      -0.834000       15.9994           0
     19126 TIP3     2215     TIP3     H1       HT       0.417000       1.00800           0
     19127 TIP3     2215     TIP3     H2       HT       0.417000       1.00800           0
     19128 TIP3     2216     TIP3     OH2      OT      -0.834000       15.9994           0
     19129 TIP3     2216     TIP3     H1       HT       0.417000       1.00800           0
     19130 TIP3     2216     TIP3     H2       HT       0.417000       1.00800           0
     19131 TIP3     2217     TIP3     OH2      OT      -0.834000       15.9994           0
     19132 TIP3     2217     TIP3     H1       HT       0.417000       1.00800           0
     19133 TIP3     2217     TIP3     H2       HT       0.417000       1.00800           0
     19134 TIP3     2218     TIP3     OH2      OT      -0.834000       15.9994           0
     19135 TIP3     2218     TIP3     H1       HT       0.417000       1.00800           0
     19136 TIP3     2218     TIP3     H2       HT       0.417000       1.00800           0
     19137 TIP3     2219     TIP3     OH2      OT      -0.834000       15.9994           0
     19138 TIP3     2219     TIP3     H1       HT       0.417000       1.00800           0
     19139 TIP3     2219     TIP3     H2       HT       0.417000       1.00800           0
     19140 TIP3     2220     TIP3     OH2      OT      -0.834000       15.9994           0
     19141 TIP3     2220     TIP3     H1       HT       0.417000       1.00800           0
     19142 TIP3     2220     TIP3     H2       HT       0.417000       1.00800           0
     19143 TIP3     2221     TIP3     OH2      OT      -0.834000       15.9994           0
     19144 TIP3     2221     TIP3     H1       HT       0.417000       1.00800           0
     19145 TIP3     2221     TIP3     H2       HT       0.417000       1.00800           0
     19146 TIP3     2222     TIP3     OH2      OT      -0.834000       15.9994           0
     19147 TIP3     2222     TIP3     H1       HT       0.417000       1.00800           0
     19148 TIP3     2222     TIP3     H2       HT       0.417000       1.00800           0
     19149 TIP3     2223     TIP3     OH2      OT      -0.834000       15.9994           0
     19150 TIP3     2223     TIP3     H1       HT       0.417000       1.00800           0
     19151 TIP3     2223     TIP3     H2       HT       0.417000       1.00800           0
     19152 TIP3     2224     TIP3     OH2      OT      -0.834000       15.9994           0
     19153 TIP3     2224     TIP3     H1       HT       0.417000       1.00800           0
     19154 TIP3     2224     TIP3     H2       HT       0.417000       1.00800           0
     19155 TIP3     2225     TIP3     OH2      OT      -0.834000       15.9994           0
     19156 TIP3     2225     TIP3     H1       HT       0.417000       1.00800           0
     19157 TIP3     2225     TIP3     H2       HT       0.417000       1.00800           0
     19158 TIP3     2226     TIP3     OH2      OT      -0.834000       15.9994           0
     19159 TIP3     2226     TIP3     H1       HT       0.417000       1.00800           0
     19160 TIP3     2226     TIP3     H2       HT       0.417000       1.00800           0
     19161 TIP3     2227     TIP3     OH2      OT      -0.834000       15.9994           0
     19162 TIP3     2227     TIP3     H1       HT       0.417000       1.00800           0
     19163 TIP3     2227     TIP3     H2       HT       0.417000       1.00800           0
     19164 TIP3     2228     TIP3     OH2      OT      -0.834000       15.9994           0
     19165 TIP3     2228     TIP3     H1       HT       0.417000       1.00800           0
     19166 TIP3     2228     TIP3     H2       HT       0.417000       1.00800           0
     19167 TIP3     2229     TIP3     OH2      OT      -0.834000       15.9994           0
     19168 TIP3     2229     TIP3     H1       HT       0.417000       1.00800           0
     19169 TIP3     2229     TIP3     H2       HT       0.417000       1.00800           0
     19170 TIP3     2230     TIP3     OH2      OT      -0.834000       15.9994           0
     19171 TIP3     2230     TIP3     H1       HT       0.417000       1.00800           0
     19172 TIP3     2230     TIP3     H2       HT       0.417000       1.00800           0
     19173 TIP3     2231     TIP3     OH2      OT      -0.834000       15.9994           0
     19174 TIP3     2231     TIP3     H1       HT       0.417000       1.00800           0
     19175 TIP3     2231     TIP3     H2       HT       0.417000       1.00800           0
     19176 TIP3     2232     TIP3     OH2      OT      -0.834000       15.9994           0
     19177 TIP3     2232     TIP3     H1       HT       0.417000       1.00800           0
     19178 TIP3     2232     TIP3     H2       HT       0.417000       1.00800           0
     19179 TIP3     2233     TIP3     OH2      OT      -0.834000       15.9994           0
     19180 TIP3     2233     TIP3     H1       HT       0.417000       1.00800           0
     19181 TIP3     2233     TIP3     H2       HT       0.417000       1.00800           0
     19182 TIP3     2234     TIP3     OH2      OT      -0.834000       15.9994           0
     19183 TIP3     2234     TIP3     H1       HT       0.417000       1.00800           0
     19184 TIP3     2234     TIP3     H2       HT       0.417000       1.00800           0
     19185 TIP3     2235     TIP3     OH2      OT      -0.834000       15.9994           0
     19186 TIP3     2235     TIP3     H1       HT       0.417000       1.00800           0
     19187 TIP3     2235     TIP3     H2       HT       0.417000       1.00800           0
     19188 TIP3     2236     TIP3     OH2      OT      -0.834000       15.9994           0
     19189 TIP3     2236     TIP3     H1       HT       0.417000       1.00800           0
     19190 TIP3     2236     TIP3     H2       HT       0.417000       1.00800           0
     19191 TIP3     2237     TIP3     OH2      OT      -0.834000       15.9994           0
     19192 TIP3     2237     TIP3     H1       HT       0.417000       1.00800           0
     19193 TIP3     2237     TIP3     H2       HT       0.417000       1.00800           0
     19194 TIP3     2238     TIP3     OH2      OT      -0.834000       15.9994           0
     19195 TIP3     2238     TIP3     H1       HT       0.417000       1.00800           0
     19196 TIP3     2238     TIP3     H2       HT       0.417000       1.00800           0
     19197 TIP3     2239     TIP3     OH2      OT      -0.834000       15.9994           0
     19198 TIP3     2239     TIP3     H1       HT       0.417000       1.00800           0
     19199 TIP3     2239     TIP3     H2       HT       0.417000       1.00800           0
     19200 TIP3     2240     TIP3     OH2      OT      -0.834000       15.9994           0
     19201 TIP3     2240     TIP3     H1       HT       0.417000       1.00800           0
     19202 TIP3     2240     TIP3     H2       HT       0.417000       1.00800           0
     19203 TIP3     2241     TIP3     OH2      OT      -0.834000       15.9994           0
     19204 TIP3     2241     TIP3     H1       HT       0.417000       1.00800           0
     19205 TIP3     2241     TIP3     H2       HT       0.417000       1.00800           0
     19206 TIP3     2242     TIP3     OH2      OT      -0.834000       15.9994           0
     19207 TIP3     2242     TIP3     H1       HT       0.417000       1.00800           0
     19208 TIP3     2242     TIP3     H2       HT       0.417000       1.00800           0
     19209 TIP3     2243     TIP3     OH2      OT      -0.834000       15.9994           0
     19210 TIP3     2243     TIP3     H1       HT       0.417000       1.00800           0
     19211 TIP3     2243     TIP3     H2       HT       0.417000       1.00800           0
     19212 TIP3     2244     TIP3     OH2      OT      -0.834000       15.9994           0
     19213 TIP3     2244     TIP3     H1       HT       0.417000       1.00800           0
     19214 TIP3     2244     TIP3     H2       HT       0.417000       1.00800           0
     19215 TIP3     2245     TIP3     OH2      OT      -0.834000       15.9994           0
     19216 TIP3     2245     TIP3     H1       HT       0.417000       1.00800           0
     19217 TIP3     2245     TIP3     H2       HT       0.417000       1.00800           0
     19218 TIP3     2246     TIP3     OH2      OT      -0.834000       15.9994           0
     19219 TIP3     2246     TIP3     H1       HT       0.417000       1.00800           0
     19220 TIP3     2246     TIP3     H2       HT       0.417000       1.00800           0
     19221 TIP3     2247     TIP3     OH2      OT      -0.834000       15.9994           0
     19222 TIP3     2247     TIP3     H1       HT       0.417000       1.00800           0
     19223 TIP3     2247     TIP3     H2       HT       0.417000       1.00800           0
     19224 TIP3     2248     TIP3     OH2      OT      -0.834000       15.9994           0
     19225 TIP3     2248     TIP3     H1       HT       0.417000       1.00800           0
     19226 TIP3     2248     TIP3     H2       HT       0.417000       1.00800           0
     19227 TIP3     2249     TIP3     OH2      OT      -0.834000       15.9994           0
     19228 TIP3     2249     TIP3     H1       HT       0.417000       1.00800           0
     19229 TIP3     2249     TIP3     H2       HT       0.417000       1.00800           0
     19230 TIP3     2250     TIP3     OH2      OT      -0.834000       15.9994           0
     19231 TIP3     2250     TIP3     H1       HT       0.417000       1.00800           0
     19232 TIP3     2250     TIP3     H2       HT       0.417000       1.00800           0
     19233 TIP3     2251     TIP3     OH2      OT      -0.834000       15.9994           0
     19234 TIP3     2251     TIP3     H1       HT       0.417000       1.00800           0
     19235 TIP3     2251     TIP3     H2       HT       0.417000       1.00800           0
     19236 TIP3     2252     TIP3     OH2      OT      -0.834000       15.9994           0
     19237 TIP3     2252     TIP3     H1       HT       0.417000       1.00800           0
     19238 TIP3     2252     TIP3     H2       HT       0.417000       1.00800           0
     19239 TIP3     2253     TIP3     OH2      OT      -0.834000       15.9994           0
     19240 TIP3     2253     TIP3     H1       HT       0.417000       1.00800           0
     19241 TIP3     2253     TIP3     H2       HT       0.417000       1.00800           0
     19242 TIP3     2254     TIP3     OH2      OT      -0.834000       15.9994           0
     19243 TIP3     2254     TIP3     H1       HT       0.417000       1.00800           0
     19244 TIP3     2254     TIP3     H2       HT       0.417000       1.00800           0
     19245 TIP3     2255     TIP3     OH2      OT      -0.834000       15.9994           0
     19246 TIP3     2255     TIP3     H1       HT       0.417000       1.00800           0
     19247 TIP3     2255     TIP3     H2       HT       0.417000       1.00800           0
     19248 TIP3     2256     TIP3     OH2      OT      -0.834000       15.9994           0
     19249 TIP3     2256     TIP3     H1       HT       0.417000       1.00800           0
     19250 TIP3     2256     TIP3     H2       HT       0.417000       1.00800           0
     19251 TIP3     2257     TIP3     OH2      OT      -0.834000       15.9994           0
     19252 TIP3     2257     TIP3     H1       HT       0.417000       1.00800           0
     19253 TIP3     2257     TIP3     H2       HT       0.417000       1.00800           0
     19254 TIP3     2258     TIP3     OH2      OT      -0.834000       15.9994           0
     19255 TIP3     2258     TIP3     H1       HT       0.417000       1.00800           0
     19256 TIP3     2258     TIP3     H2       HT       0.417000       1.00800           0
     19257 TIP3     2259     TIP3     OH2      OT      -0.834000       15.9994           0
     19258 TIP3     2259     TIP3     H1       HT       0.417000       1.00800           0
     19259 TIP3     2259     TIP3     H2       HT       0.417000       1.00800           0
     19260 TIP3     2260     TIP3     OH2      OT      -0.834000       15.9994           0
     19261 TIP3     2260     TIP3     H1       HT       0.417000       1.00800           0
     19262 TIP3     2260     TIP3     H2       HT       0.417000       1.00800           0
     19263 TIP3     2261     TIP3     OH2      OT      -0.834000       15.9994           0
     19264 TIP3     2261     TIP3     H1       HT       0.417000       1.00800           0
     19265 TIP3     2261     TIP3     H2       HT       0.417000       1.00800           0
     19266 TIP3     2262     TIP3     OH2      OT      -0.834000       15.9994           0
     19267 TIP3     2262     TIP3     H1       HT       0.417000       1.00800           0
     19268 TIP3     2262     TIP3     H2       HT       0.417000       1.00800           0
     19269 TIP3     2263     TIP3     OH2      OT      -0.834000       15.9994           0
     19270 TIP3     2263     TIP3     H1       HT       0.417000       1.00800           0
     19271 TIP3     2263     TIP3     H2       HT       0.417000       1.00800           0
     19272 TIP3     2264     TIP3     OH2      OT      -0.834000       15.9994           0
     19273 TIP3     2264     TIP3     H1       HT       0.417000       1.00800           0
     19274 TIP3     2264     TIP3     H2       HT       0.417000       1.00800           0
     19275 TIP3     2265     TIP3     OH2      OT      -0.834000       15.9994           0
     19276 TIP3     2265     TIP3     H1       HT       0.417000       1.00800           0
     19277 TIP3     2265     TIP3     H2       HT       0.417000       1.00800           0
     19278 TIP3     2266     TIP3     OH2      OT      -0.834000       15.9994           0
     19279 TIP3     2266     TIP3     H1       HT       0.417000       1.00800           0
     19280 TIP3     2266     TIP3     H2       HT       0.417000       1.00800           0
     19281 TIP3     2267     TIP3     OH2      OT      -0.834000       15.9994           0
     19282 TIP3     2267     TIP3     H1       HT       0.417000       1.00800           0
     19283 TIP3     2267     TIP3     H2       HT       0.417000       1.00800           0
     19284 TIP3     2268     TIP3     OH2      OT      -0.834000       15.9994           0
     19285 TIP3     2268     TIP3     H1       HT       0.417000       1.00800           0
     19286 TIP3     2268     TIP3     H2       HT       0.417000       1.00800           0
     19287 TIP3     2269     TIP3     OH2      OT      -0.834000       15.9994           0
     19288 TIP3     2269     TIP3     H1       HT       0.417000       1.00800           0
     19289 TIP3     2269     TIP3     H2       HT       0.417000       1.00800           0
     19290 TIP3     2270     TIP3     OH2      OT      -0.834000       15.9994           0
     19291 TIP3     2270     TIP3     H1       HT       0.417000       1.00800           0
     19292 TIP3     2270     TIP3     H2       HT       0.417000       1.00800           0
     19293 TIP3     2271     TIP3     OH2      OT      -0.834000       15.9994           0
     19294 TIP3     2271     TIP3     H1       HT       0.417000       1.00800           0
     19295 TIP3     2271     TIP3     H2       HT       0.417000       1.00800           0
     19296 TIP3     2272     TIP3     OH2      OT      -0.834000       15.9994           0
     19297 TIP3     2272     TIP3     H1       HT       0.417000       1.00800           0
     19298 TIP3     2272     TIP3     H2       HT       0.417000       1.00800           0
     19299 TIP3     2273     TIP3     OH2      OT      -0.834000       15.9994           0
     19300 TIP3     2273     TIP3     H1       HT       0.417000       1.00800           0
     19301 TIP3     2273     TIP3     H2       HT       0.417000       1.00800           0
     19302 TIP3     2274     TIP3     OH2      OT      -0.834000       15.9994           0
     19303 TIP3     2274     TIP3     H1       HT       0.417000       1.00800           0
     19304 TIP3     2274     TIP3     H2       HT       0.417000       1.00800           0
     19305 TIP3     2275     TIP3     OH2      OT      -0.834000       15.9994           0
     19306 TIP3     2275     TIP3     H1       HT       0.417000       1.00800           0
     19307 TIP3     2275     TIP3     H2       HT       0.417000       1.00800           0
     19308 TIP3     2276     TIP3     OH2      OT      -0.834000       15.9994           0
     19309 TIP3     2276     TIP3     H1       HT       0.417000       1.00800           0
     19310 TIP3     2276     TIP3     H2       HT       0.417000       1.00800           0
     19311 TIP3     2277     TIP3     OH2      OT      -0.834000       15.9994           0
     19312 TIP3     2277     TIP3     H1       HT       0.417000       1.00800           0
     19313 TIP3     2277     TIP3     H2       HT       0.417000       1.00800           0
     19314 TIP3     2278     TIP3     OH2      OT      -0.834000       15.9994           0
     19315 TIP3     2278     TIP3     H1       HT       0.417000       1.00800           0
     19316 TIP3     2278     TIP3     H2       HT       0.417000       1.00800           0
     19317 TIP3     2279     TIP3     OH2      OT      -0.834000       15.9994           0
     19318 TIP3     2279     TIP3     H1       HT       0.417000       1.00800           0
     19319 TIP3     2279     TIP3     H2       HT       0.417000       1.00800           0
     19320 TIP3     2280     TIP3     OH2      OT      -0.834000       15.9994           0
     19321 TIP3     2280     TIP3     H1       HT       0.417000       1.00800           0
     19322 TIP3     2280     TIP3     H2       HT       0.417000       1.00800           0
     19323 TIP3     2281     TIP3     OH2      OT      -0.834000       15.9994           0
     19324 TIP3     2281     TIP3     H1       HT       0.417000       1.00800           0
     19325 TIP3     2281     TIP3     H2       HT       0.417000       1.00800           0
     19326 TIP3     2282     TIP3     OH2      OT      -0.834000       15.9994           0
     19327 TIP3     2282     TIP3     H1       HT       0.417000       1.00800           0
     19328 TIP3     2282     TIP3     H2       HT       0.417000       1.00800           0
     19329 TIP3     2283     TIP3     OH2      OT      -0.834000       15.9994           0
     19330 TIP3     2283     TIP3     H1       HT       0.417000       1.00800           0
     19331 TIP3     2283     TIP3     H2       HT       0.417000       1.00800           0
     19332 TIP3     2284     TIP3     OH2      OT      -0.834000       15.9994           0
     19333 TIP3     2284     TIP3     H1       HT       0.417000       1.00800           0
     19334 TIP3     2284     TIP3     H2       HT       0.417000       1.00800           0
     19335 TIP3     2285     TIP3     OH2      OT      -0.834000       15.9994           0
     19336 TIP3     2285     TIP3     H1       HT       0.417000       1.00800           0
     19337 TIP3     2285     TIP3     H2       HT       0.417000       1.00800           0
     19338 TIP3     2286     TIP3     OH2      OT      -0.834000       15.9994           0
     19339 TIP3     2286     TIP3     H1       HT       0.417000       1.00800           0
     19340 TIP3     2286     TIP3     H2       HT       0.417000       1.00800           0
     19341 TIP3     2287     TIP3     OH2      OT      -0.834000       15.9994           0
     19342 TIP3     2287     TIP3     H1       HT       0.417000       1.00800           0
     19343 TIP3     2287     TIP3     H2       HT       0.417000       1.00800           0
     19344 TIP3     2288     TIP3     OH2      OT      -0.834000       15.9994           0
     19345 TIP3     2288     TIP3     H1       HT       0.417000       1.00800           0
     19346 TIP3     2288     TIP3     H2       HT       0.417000       1.00800           0
     19347 TIP3     2289     TIP3     OH2      OT      -0.834000       15.9994           0
     19348 TIP3     2289     TIP3     H1       HT       0.417000       1.00800           0
     19349 TIP3     2289     TIP3     H2       HT       0.417000       1.00800           0
     19350 TIP3     2290     TIP3     OH2      OT      -0.834000       15.9994           0
     19351 TIP3     2290     TIP3     H1       HT       0.417000       1.00800           0
     19352 TIP3     2290     TIP3     H2       HT       0.417000       1.00800           0
     19353 TIP3     2291     TIP3     OH2      OT      -0.834000       15.9994           0
     19354 TIP3     2291     TIP3     H1       HT       0.417000       1.00800           0
     19355 TIP3     2291     TIP3     H2       HT       0.417000       1.00800           0
     19356 TIP3     2292     TIP3     OH2      OT      -0.834000       15.9994           0
     19357 TIP3     2292     TIP3     H1       HT       0.417000       1.00800           0
     19358 TIP3     2292     TIP3     H2       HT       0.417000       1.00800           0
     19359 TIP3     2293     TIP3     OH2      OT      -0.834000       15.9994           0
     19360 TIP3     2293     TIP3     H1       HT       0.417000       1.00800           0
     19361 TIP3     2293     TIP3     H2       HT       0.417000       1.00800           0
     19362 TIP3     2294     TIP3     OH2      OT      -0.834000       15.9994           0
     19363 TIP3     2294     TIP3     H1       HT       0.417000       1.00800           0
     19364 TIP3     2294     TIP3     H2       HT       0.417000       1.00800           0
     19365 TIP3     2295     TIP3     OH2      OT      -0.834000       15.9994           0
     19366 TIP3     2295     TIP3     H1       HT       0.417000       1.00800           0
     19367 TIP3     2295     TIP3     H2       HT       0.417000       1.00800           0
     19368 TIP3     2296     TIP3     OH2      OT      -0.834000       15.9994           0
     19369 TIP3     2296     TIP3     H1       HT       0.417000       1.00800           0
     19370 TIP3     2296     TIP3     H2       HT       0.417000       1.00800           0
     19371 TIP3     2297     TIP3     OH2      OT      -0.834000       15.9994           0
     19372 TIP3     2297     TIP3     H1       HT       0.417000       1.00800           0
     19373 TIP3     2297     TIP3     H2       HT       0.417000       1.00800           0
     19374 TIP3     2298     TIP3     OH2      OT      -0.834000       15.9994           0
     19375 TIP3     2298     TIP3     H1       HT       0.417000       1.00800           0
     19376 TIP3     2298     TIP3     H2       HT       0.417000       1.00800           0
     19377 TIP3     2299     TIP3     OH2      OT      -0.834000       15.9994           0
     19378 TIP3     2299     TIP3     H1       HT       0.417000       1.00800           0
     19379 TIP3     2299     TIP3     H2       HT       0.417000       1.00800           0
     19380 TIP3     2300     TIP3     OH2      OT      -0.834000       15.9994           0
     19381 TIP3     2300     TIP3     H1       HT       0.417000       1.00800           0
     19382 TIP3     2300     TIP3     H2       HT       0.417000       1.00800           0
     19383 TIP3     2301     TIP3     OH2      OT      -0.834000       15.9994           0
     19384 TIP3     2301     TIP3     H1       HT       0.417000       1.00800           0
     19385 TIP3     2301     TIP3     H2       HT       0.417000       1.00800           0
     19386 TIP3     2302     TIP3     OH2      OT      -0.834000       15.9994           0
     19387 TIP3     2302     TIP3     H1       HT       0.417000       1.00800           0
     19388 TIP3     2302     TIP3     H2       HT       0.417000       1.00800           0
     19389 TIP3     2303     TIP3     OH2      OT      -0.834000       15.9994           0
     19390 TIP3     2303     TIP3     H1       HT       0.417000       1.00800           0
     19391 TIP3     2303     TIP3     H2       HT       0.417000       1.00800           0
     19392 TIP3     2304     TIP3     OH2      OT      -0.834000       15.9994           0
     19393 TIP3     2304     TIP3     H1       HT       0.417000       1.00800           0
     19394 TIP3     2304     TIP3     H2       HT       0.417000       1.00800           0
     19395 TIP3     2305     TIP3     OH2      OT      -0.834000       15.9994           0
     19396 TIP3     2305     TIP3     H1       HT       0.417000       1.00800           0
     19397 TIP3     2305     TIP3     H2       HT       0.417000       1.00800           0
     19398 TIP3     2306     TIP3     OH2      OT      -0.834000       15.9994           0
     19399 TIP3     2306     TIP3     H1       HT       0.417000       1.00800           0
     19400 TIP3     2306     TIP3     H2       HT       0.417000       1.00800           0
     19401 TIP3     2307     TIP3     OH2      OT      -0.834000       15.9994           0
     19402 TIP3     2307     TIP3     H1       HT       0.417000       1.00800           0
     19403 TIP3     2307     TIP3     H2       HT       0.417000       1.00800           0
     19404 TIP3     2308     TIP3     OH2      OT      -0.834000       15.9994           0
     19405 TIP3     2308     TIP3     H1       HT       0.417000       1.00800           0
     19406 TIP3     2308     TIP3     H2       HT       0.417000       1.00800           0
     19407 TIP3     2309     TIP3     OH2      OT      -0.834000       15.9994           0
     19408 TIP3     2309     TIP3     H1       HT       0.417000       1.00800           0
     19409 TIP3     2309     TIP3     H2       HT       0.417000       1.00800           0
     19410 TIP3     2310     TIP3     OH2      OT      -0.834000       15.9994           0
     19411 TIP3     2310     TIP3     H1       HT       0.417000       1.00800           0
     19412 TIP3     2310     TIP3     H2       HT       0.417000       1.00800           0
     19413 TIP3     2311     TIP3     OH2      OT      -0.834000       15.9994           0
     19414 TIP3     2311     TIP3     H1       HT       0.417000       1.00800           0
     19415 TIP3     2311     TIP3     H2       HT       0.417000       1.00800           0
     19416 TIP3     2312     TIP3     OH2      OT      -0.834000       15.9994           0
     19417 TIP3     2312     TIP3     H1       HT       0.417000       1.00800           0
     19418 TIP3     2312     TIP3     H2       HT       0.417000       1.00800           0
     19419 TIP3     2313     TIP3     OH2      OT      -0.834000       15.9994           0
     19420 TIP3     2313     TIP3     H1       HT       0.417000       1.00800           0
     19421 TIP3     2313     TIP3     H2       HT       0.417000       1.00800           0
     19422 TIP3     2314     TIP3     OH2      OT      -0.834000       15.9994           0
     19423 TIP3     2314     TIP3     H1       HT       0.417000       1.00800           0
     19424 TIP3     2314     TIP3     H2       HT       0.417000       1.00800           0
     19425 TIP3     2315     TIP3     OH2      OT      -0.834000       15.9994           0
     19426 TIP3     2315     TIP3     H1       HT       0.417000       1.00800           0
     19427 TIP3     2315     TIP3     H2       HT       0.417000       1.00800           0
     19428 TIP3     2316     TIP3     OH2      OT      -0.834000       15.9994           0
     19429 TIP3     2316     TIP3     H1       HT       0.417000       1.00800           0
     19430 TIP3     2316     TIP3     H2       HT       0.417000       1.00800           0
     19431 TIP3     2317     TIP3     OH2      OT      -0.834000       15.9994           0
     19432 TIP3     2317     TIP3     H1       HT       0.417000       1.00800           0
     19433 TIP3     2317     TIP3     H2       HT       0.417000       1.00800           0
     19434 TIP3     2318     TIP3     OH2      OT      -0.834000       15.9994           0
     19435 TIP3     2318     TIP3     H1       HT       0.417000       1.00800           0
     19436 TIP3     2318     TIP3     H2       HT       0.417000       1.00800           0
     19437 TIP3     2319     TIP3     OH2      OT      -0.834000       15.9994           0
     19438 TIP3     2319     TIP3     H1       HT       0.417000       1.00800           0
     19439 TIP3     2319     TIP3     H2       HT       0.417000       1.00800           0
     19440 TIP3     2320     TIP3     OH2      OT      -0.834000       15.9994           0
     19441 TIP3     2320     TIP3     H1       HT       0.417000       1.00800           0
     19442 TIP3     2320     TIP3     H2       HT       0.417000       1.00800           0
     19443 TIP3     2321     TIP3     OH2      OT      -0.834000       15.9994           0
     19444 TIP3     2321     TIP3     H1       HT       0.417000       1.00800           0
     19445 TIP3     2321     TIP3     H2       HT       0.417000       1.00800           0
     19446 TIP3     2322     TIP3     OH2      OT      -0.834000       15.9994           0
     19447 TIP3     2322     TIP3     H1       HT       0.417000       1.00800           0
     19448 TIP3     2322     TIP3     H2       HT       0.417000       1.00800           0
     19449 TIP3     2323     TIP3     OH2      OT      -0.834000       15.9994           0
     19450 TIP3     2323     TIP3     H1       HT       0.417000       1.00800           0
     19451 TIP3     2323     TIP3     H2       HT       0.417000       1.00800           0
     19452 TIP3     2324     TIP3     OH2      OT      -0.834000       15.9994           0
     19453 TIP3     2324     TIP3     H1       HT       0.417000       1.00800           0
     19454 TIP3     2324     TIP3     H2       HT       0.417000       1.00800           0
     19455 TIP3     2325     TIP3     OH2      OT      -0.834000       15.9994           0
     19456 TIP3     2325     TIP3     H1       HT       0.417000       1.00800           0
     19457 TIP3     2325     TIP3     H2       HT       0.417000       1.00800           0
     19458 TIP3     2326     TIP3     OH2      OT      -0.834000       15.9994           0
     19459 TIP3     2326     TIP3     H1       HT       0.417000       1.00800           0
     19460 TIP3     2326     TIP3     H2       HT       0.417000       1.00800           0
     19461 TIP3     2327     TIP3     OH2      OT      -0.834000       15.9994           0
     19462 TIP3     2327     TIP3     H1       HT       0.417000       1.00800           0
     19463 TIP3     2327     TIP3     H2       HT       0.417000       1.00800           0
     19464 TIP3     2328     TIP3     OH2      OT      -0.834000       15.9994           0
     19465 TIP3     2328     TIP3     H1       HT       0.417000       1.00800           0
     19466 TIP3     2328     TIP3     H2       HT       0.417000       1.00800           0
     19467 TIP3     2329     TIP3     OH2      OT      -0.834000       15.9994           0
     19468 TIP3     2329     TIP3     H1       HT       0.417000       1.00800           0
     19469 TIP3     2329     TIP3     H2       HT       0.417000       1.00800           0
     19470 TIP3     2330     TIP3     OH2      OT      -0.834000       15.9994           0
     19471 TIP3     2330     TIP3     H1       HT       0.417000       1.00800           0
     19472 TIP3     2330     TIP3     H2       HT       0.417000       1.00800           0
     19473 TIP3     2331     TIP3     OH2      OT      -0.834000       15.9994           0
     19474 TIP3     2331     TIP3     H1       HT       0.417000       1.00800           0
     19475 TIP3     2331     TIP3     H2       HT       0.417000       1.00800           0
     19476 TIP3     2332     TIP3     OH2      OT      -0.834000       15.9994           0
     19477 TIP3     2332     TIP3     H1       HT       0.417000       1.00800           0
     19478 TIP3     2332     TIP3     H2       HT       0.417000       1.00800           0
     19479 TIP3     2333     TIP3     OH2      OT      -0.834000       15.9994           0
     19480 TIP3     2333     TIP3     H1       HT       0.417000       1.00800           0
     19481 TIP3     2333     TIP3     H2       HT       0.417000       1.00800           0
     19482 TIP3     2334     TIP3     OH2      OT      -0.834000       15.9994           0
     19483 TIP3     2334     TIP3     H1       HT       0.417000       1.00800           0
     19484 TIP3     2334     TIP3     H2       HT       0.417000       1.00800           0
     19485 TIP3     2335     TIP3     OH2      OT      -0.834000       15.9994           0
     19486 TIP3     2335     TIP3     H1       HT       0.417000       1.00800           0
     19487 TIP3     2335     TIP3     H2       HT       0.417000       1.00800           0
     19488 TIP3     2336     TIP3     OH2      OT      -0.834000       15.9994           0
     19489 TIP3     2336     TIP3     H1       HT       0.417000       1.00800           0
     19490 TIP3     2336     TIP3     H2       HT       0.417000       1.00800           0
     19491 TIP3     2337     TIP3     OH2      OT      -0.834000       15.9994           0
     19492 TIP3     2337     TIP3     H1       HT       0.417000       1.00800           0
     19493 TIP3     2337     TIP3     H2       HT       0.417000       1.00800           0
     19494 TIP3     2338     TIP3     OH2      OT      -0.834000       15.9994           0
     19495 TIP3     2338     TIP3     H1       HT       0.417000       1.00800           0
     19496 TIP3     2338     TIP3     H2       HT       0.417000       1.00800           0
     19497 TIP3     2339     TIP3     OH2      OT      -0.834000       15.9994           0
     19498 TIP3     2339     TIP3     H1       HT       0.417000       1.00800           0
     19499 TIP3     2339     TIP3     H2       HT       0.417000       1.00800           0
     19500 TIP3     2340     TIP3     OH2      OT      -0.834000       15.9994           0
     19501 TIP3     2340     TIP3     H1       HT       0.417000       1.00800           0
     19502 TIP3     2340     TIP3     H2       HT       0.417000       1.00800           0
     19503 TIP3     2341     TIP3     OH2      OT      -0.834000       15.9994           0
     19504 TIP3     2341     TIP3     H1       HT       0.417000       1.00800           0
     19505 TIP3     2341     TIP3     H2       HT       0.417000       1.00800           0
     19506 TIP3     2342     TIP3     OH2      OT      -0.834000       15.9994           0
     19507 TIP3     2342     TIP3     H1       HT       0.417000       1.00800           0
     19508 TIP3     2342     TIP3     H2       HT       0.417000       1.00800           0
     19509 TIP3     2343     TIP3     OH2      OT      -0.834000       15.9994           0
     19510 TIP3     2343     TIP3     H1       HT       0.417000       1.00800           0
     19511 TIP3     2343     TIP3     H2       HT       0.417000       1.00800           0
     19512 TIP3     2344     TIP3     OH2      OT      -0.834000       15.9994           0
     19513 TIP3     2344     TIP3     H1       HT       0.417000       1.00800           0
     19514 TIP3     2344     TIP3     H2       HT       0.417000       1.00800           0
     19515 TIP3     2345     TIP3     OH2      OT      -0.834000       15.9994           0
     19516 TIP3     2345     TIP3     H1       HT       0.417000       1.00800           0
     19517 TIP3     2345     TIP3     H2       HT       0.417000       1.00800           0
     19518 TIP3     2346     TIP3     OH2      OT      -0.834000       15.9994           0
     19519 TIP3     2346     TIP3     H1       HT       0.417000       1.00800           0
     19520 TIP3     2346     TIP3     H2       HT       0.417000       1.00800           0
     19521 TIP3     2347     TIP3     OH2      OT      -0.834000       15.9994           0
     19522 TIP3     2347     TIP3     H1       HT       0.417000       1.00800           0
     19523 TIP3     2347     TIP3     H2       HT       0.417000       1.00800           0
     19524 TIP3     2348     TIP3     OH2      OT      -0.834000       15.9994           0
     19525 TIP3     2348     TIP3     H1       HT       0.417000       1.00800           0
     19526 TIP3     2348     TIP3     H2       HT       0.417000       1.00800           0
     19527 TIP3     2349     TIP3     OH2      OT      -0.834000       15.9994           0
     19528 TIP3     2349     TIP3     H1       HT       0.417000       1.00800           0
     19529 TIP3     2349     TIP3     H2       HT       0.417000       1.00800           0
     19530 TIP3     2350     TIP3     OH2      OT      -0.834000       15.9994           0
     19531 TIP3     2350     TIP3     H1       HT       0.417000       1.00800           0
     19532 TIP3     2350     TIP3     H2       HT       0.417000       1.00800           0
     19533 TIP3     2351     TIP3     OH2      OT      -0.834000       15.9994           0
     19534 TIP3     2351     TIP3     H1       HT       0.417000       1.00800           0
     19535 TIP3     2351     TIP3     H2       HT       0.417000       1.00800           0
     19536 TIP3     2352     TIP3     OH2      OT      -0.834000       15.9994           0
     19537 TIP3     2352     TIP3     H1       HT       0.417000       1.00800           0
     19538 TIP3     2352     TIP3     H2       HT       0.417000       1.00800           0
     19539 TIP3     2353     TIP3     OH2      OT      -0.834000       15.9994           0
     19540 TIP3     2353     TIP3     H1       HT       0.417000       1.00800           0
     19541 TIP3     2353     TIP3     H2       HT       0.417000       1.00800           0
     19542 TIP3     2354     TIP3     OH2      OT      -0.834000       15.9994           0
     19543 TIP3     2354     TIP3     H1       HT       0.417000       1.00800           0
     19544 TIP3     2354     TIP3     H2       HT       0.417000       1.00800           0
     19545 TIP3     2355     TIP3     OH2      OT      -0.834000       15.9994           0
     19546 TIP3     2355     TIP3     H1       HT       0.417000       1.00800           0
     19547 TIP3     2355     TIP3     H2       HT       0.417000       1.00800           0
     19548 TIP3     2356     TIP3     OH2      OT      -0.834000       15.9994           0
     19549 TIP3     2356     TIP3     H1       HT       0.417000       1.00800           0
     19550 TIP3     2356     TIP3     H2       HT       0.417000       1.00800           0
     19551 TIP3     2357     TIP3     OH2      OT      -0.834000       15.9994           0
     19552 TIP3     2357     TIP3     H1       HT       0.417000       1.00800           0
     19553 TIP3     2357     TIP3     H2       HT       0.417000       1.00800           0
     19554 TIP3     2358     TIP3     OH2      OT      -0.834000       15.9994           0
     19555 TIP3     2358     TIP3     H1       HT       0.417000       1.00800           0
     19556 TIP3     2358     TIP3     H2       HT       0.417000       1.00800           0
     19557 TIP3     2359     TIP3     OH2      OT      -0.834000       15.9994           0
     19558 TIP3     2359     TIP3     H1       HT       0.417000       1.00800           0
     19559 TIP3     2359     TIP3     H2       HT       0.417000       1.00800           0
     19560 TIP3     2360     TIP3     OH2      OT      -0.834000       15.9994           0
     19561 TIP3     2360     TIP3     H1       HT       0.417000       1.00800           0
     19562 TIP3     2360     TIP3     H2       HT       0.417000       1.00800           0
     19563 TIP3     2361     TIP3     OH2      OT      -0.834000       15.9994           0
     19564 TIP3     2361     TIP3     H1       HT       0.417000       1.00800           0
     19565 TIP3     2361     TIP3     H2       HT       0.417000       1.00800           0
     19566 TIP3     2362     TIP3     OH2      OT      -0.834000       15.9994           0
     19567 TIP3     2362     TIP3     H1       HT       0.417000       1.00800           0
     19568 TIP3     2362     TIP3     H2       HT       0.417000       1.00800           0
     19569 TIP3     2363     TIP3     OH2      OT      -0.834000       15.9994           0
     19570 TIP3     2363     TIP3     H1       HT       0.417000       1.00800           0
     19571 TIP3     2363     TIP3     H2       HT       0.417000       1.00800           0
     19572 TIP3     2364     TIP3     OH2      OT      -0.834000       15.9994           0
     19573 TIP3     2364     TIP3     H1       HT       0.417000       1.00800           0
     19574 TIP3     2364     TIP3     H2       HT       0.417000       1.00800           0
     19575 TIP3     2365     TIP3     OH2      OT      -0.834000       15.9994           0
     19576 TIP3     2365     TIP3     H1       HT       0.417000       1.00800           0
     19577 TIP3     2365     TIP3     H2       HT       0.417000       1.00800           0
     19578 TIP3     2366     TIP3     OH2      OT      -0.834000       15.9994           0
     19579 TIP3     2366     TIP3     H1       HT       0.417000       1.00800           0
     19580 TIP3     2366     TIP3     H2       HT       0.417000       1.00800           0
     19581 TIP3     2367     TIP3     OH2      OT      -0.834000       15.9994           0
     19582 TIP3     2367     TIP3     H1       HT       0.417000       1.00800           0
     19583 TIP3     2367     TIP3     H2       HT       0.417000       1.00800           0
     19584 TIP3     2368     TIP3     OH2      OT      -0.834000       15.9994           0
     19585 TIP3     2368     TIP3     H1       HT       0.417000       1.00800           0
     19586 TIP3     2368     TIP3     H2       HT       0.417000       1.00800           0
     19587 TIP3     2369     TIP3     OH2      OT      -0.834000       15.9994           0
     19588 TIP3     2369     TIP3     H1       HT       0.417000       1.00800           0
     19589 TIP3     2369     TIP3     H2       HT       0.417000       1.00800           0
     19590 TIP3     2370     TIP3     OH2      OT      -0.834000       15.9994           0
     19591 TIP3     2370     TIP3     H1       HT       0.417000       1.00800           0
     19592 TIP3     2370     TIP3     H2       HT       0.417000       1.00800           0
     19593 TIP3     2371     TIP3     OH2      OT      -0.834000       15.9994           0
     19594 TIP3     2371     TIP3     H1       HT       0.417000       1.00800           0
     19595 TIP3     2371     TIP3     H2       HT       0.417000       1.00800           0
     19596 TIP3     2372     TIP3     OH2      OT      -0.834000       15.9994           0
     19597 TIP3     2372     TIP3     H1       HT       0.417000       1.00800           0
     19598 TIP3     2372     TIP3     H2       HT       0.417000       1.00800           0
     19599 TIP3     2373     TIP3     OH2      OT      -0.834000       15.9994           0
     19600 TIP3     2373     TIP3     H1       HT       0.417000       1.00800           0
     19601 TIP3     2373     TIP3     H2       HT       0.417000       1.00800           0
     19602 TIP3     2374     TIP3     OH2      OT      -0.834000       15.9994           0
     19603 TIP3     2374     TIP3     H1       HT       0.417000       1.00800           0
     19604 TIP3     2374     TIP3     H2       HT       0.417000       1.00800           0
     19605 TIP3     2375     TIP3     OH2      OT      -0.834000       15.9994           0
     19606 TIP3     2375     TIP3     H1       HT       0.417000       1.00800           0
     19607 TIP3     2375     TIP3     H2       HT       0.417000       1.00800           0
     19608 TIP3     2376     TIP3     OH2      OT      -0.834000       15.9994           0
     19609 TIP3     2376     TIP3     H1       HT       0.417000       1.00800           0
     19610 TIP3     2376     TIP3     H2       HT       0.417000       1.00800           0
     19611 TIP3     2377     TIP3     OH2      OT      -0.834000       15.9994           0
     19612 TIP3     2377     TIP3     H1       HT       0.417000       1.00800           0
     19613 TIP3     2377     TIP3     H2       HT       0.417000       1.00800           0
     19614 TIP3     2378     TIP3     OH2      OT      -0.834000       15.9994           0
     19615 TIP3     2378     TIP3     H1       HT       0.417000       1.00800           0
     19616 TIP3     2378     TIP3     H2       HT       0.417000       1.00800           0
     19617 TIP3     2379     TIP3     OH2      OT      -0.834000       15.9994           0
     19618 TIP3     2379     TIP3     H1       HT       0.417000       1.00800           0
     19619 TIP3     2379     TIP3     H2       HT       0.417000       1.00800           0
     19620 TIP3     2380     TIP3     OH2      OT      -0.834000       15.9994           0
     19621 TIP3     2380     TIP3     H1       HT       0.417000       1.00800           0
     19622 TIP3     2380     TIP3     H2       HT       0.417000       1.00800           0
     19623 TIP3     2381     TIP3     OH2      OT      -0.834000       15.9994           0
     19624 TIP3     2381     TIP3     H1       HT       0.417000       1.00800           0
     19625 TIP3     2381     TIP3     H2       HT       0.417000       1.00800           0
     19626 TIP3     2382     TIP3     OH2      OT      -0.834000       15.9994           0
     19627 TIP3     2382     TIP3     H1       HT       0.417000       1.00800           0
     19628 TIP3     2382     TIP3     H2       HT       0.417000       1.00800           0
     19629 TIP3     2383     TIP3     OH2      OT      -0.834000       15.9994           0
     19630 TIP3     2383     TIP3     H1       HT       0.417000       1.00800           0
     19631 TIP3     2383     TIP3     H2       HT       0.417000       1.00800           0
     19632 TIP3     2384     TIP3     OH2      OT      -0.834000       15.9994           0
     19633 TIP3     2384     TIP3     H1       HT       0.417000       1.00800           0
     19634 TIP3     2384     TIP3     H2       HT       0.417000       1.00800           0
     19635 TIP3     2385     TIP3     OH2      OT      -0.834000       15.9994           0
     19636 TIP3     2385     TIP3     H1       HT       0.417000       1.00800           0
     19637 TIP3     2385     TIP3     H2       HT       0.417000       1.00800           0
     19638 TIP3     2386     TIP3     OH2      OT      -0.834000       15.9994           0
     19639 TIP3     2386     TIP3     H1       HT       0.417000       1.00800           0
     19640 TIP3     2386     TIP3     H2       HT       0.417000       1.00800           0
     19641 TIP3     2387     TIP3     OH2      OT      -0.834000       15.9994           0
     19642 TIP3     2387     TIP3     H1       HT       0.417000       1.00800           0
     19643 TIP3     2387     TIP3     H2       HT       0.417000       1.00800           0
     19644 TIP3     2388     TIP3     OH2      OT      -0.834000       15.9994           0
     19645 TIP3     2388     TIP3     H1       HT       0.417000       1.00800           0
     19646 TIP3     2388     TIP3     H2       HT       0.417000       1.00800           0
     19647 TIP3     2389     TIP3     OH2      OT      -0.834000       15.9994           0
     19648 TIP3     2389     TIP3     H1       HT       0.417000       1.00800           0
     19649 TIP3     2389     TIP3     H2       HT       0.417000       1.00800           0
     19650 TIP3     2390     TIP3     OH2      OT      -0.834000       15.9994           0
     19651 TIP3     2390     TIP3     H1       HT       0.417000       1.00800           0
     19652 TIP3     2390     TIP3     H2       HT       0.417000       1.00800           0
     19653 TIP3     2391     TIP3     OH2      OT      -0.834000       15.9994           0
     19654 TIP3     2391     TIP3     H1       HT       0.417000       1.00800           0
     19655 TIP3     2391     TIP3     H2       HT       0.417000       1.00800           0
     19656 TIP3     2392     TIP3     OH2      OT      -0.834000       15.9994           0
     19657 TIP3     2392     TIP3     H1       HT       0.417000       1.00800           0
     19658 TIP3     2392     TIP3     H2       HT       0.417000       1.00800           0
     19659 TIP3     2393     TIP3     OH2      OT      -0.834000       15.9994           0
     19660 TIP3     2393     TIP3     H1       HT       0.417000       1.00800           0
     19661 TIP3     2393     TIP3     H2       HT       0.417000       1.00800           0
     19662 TIP3     2394     TIP3     OH2      OT      -0.834000       15.9994           0
     19663 TIP3     2394     TIP3     H1       HT       0.417000       1.00800           0
     19664 TIP3     2394     TIP3     H2       HT       0.417000       1.00800           0
     19665 TIP3     2395     TIP3     OH2      OT      -0.834000       15.9994           0
     19666 TIP3     2395     TIP3     H1       HT       0.417000       1.00800           0
     19667 TIP3     2395     TIP3     H2       HT       0.417000       1.00800           0
     19668 TIP3     2396     TIP3     OH2      OT      -0.834000       15.9994           0
     19669 TIP3     2396     TIP3     H1       HT       0.417000       1.00800           0
     19670 TIP3     2396     TIP3     H2       HT       0.417000       1.00800           0
     19671 TIP3     2397     TIP3     OH2      OT      -0.834000       15.9994           0
     19672 TIP3     2397     TIP3     H1       HT       0.417000       1.00800           0
     19673 TIP3     2397     TIP3     H2       HT       0.417000       1.00800           0
     19674 TIP3     2398     TIP3     OH2      OT      -0.834000       15.9994           0
     19675 TIP3     2398     TIP3     H1       HT       0.417000       1.00800           0
     19676 TIP3     2398     TIP3     H2       HT       0.417000       1.00800           0
     19677 TIP3     2399     TIP3     OH2      OT      -0.834000       15.9994           0
     19678 TIP3     2399     TIP3     H1       HT       0.417000       1.00800           0
     19679 TIP3     2399     TIP3     H2       HT       0.417000       1.00800           0
     19680 TIP3     2400     TIP3     OH2      OT      -0.834000       15.9994           0
     19681 TIP3     2400     TIP3     H1       HT       0.417000       1.00800           0
     19682 TIP3     2400     TIP3     H2       HT       0.417000       1.00800           0
     19683 TIP3     2401     TIP3     OH2      OT      -0.834000       15.9994           0
     19684 TIP3     2401     TIP3     H1       HT       0.417000       1.00800           0
     19685 TIP3     2401     TIP3     H2       HT       0.417000       1.00800           0
     19686 TIP3     2402     TIP3     OH2      OT      -0.834000       15.9994           0
     19687 TIP3     2402     TIP3     H1       HT       0.417000       1.00800           0
     19688 TIP3     2402     TIP3     H2       HT       0.417000       1.00800           0
     19689 TIP3     2403     TIP3     OH2      OT      -0.834000       15.9994           0
     19690 TIP3     2403     TIP3     H1       HT       0.417000       1.00800           0
     19691 TIP3     2403     TIP3     H2       HT       0.417000       1.00800           0
     19692 TIP3     2404     TIP3     OH2      OT      -0.834000       15.9994           0
     19693 TIP3     2404     TIP3     H1       HT       0.417000       1.00800           0
     19694 TIP3     2404     TIP3     H2       HT       0.417000       1.00800           0
     19695 TIP3     2405     TIP3     OH2      OT      -0.834000       15.9994           0
     19696 TIP3     2405     TIP3     H1       HT       0.417000       1.00800           0
     19697 TIP3     2405     TIP3     H2       HT       0.417000       1.00800           0
     19698 TIP3     2406     TIP3     OH2      OT      -0.834000       15.9994           0
     19699 TIP3     2406     TIP3     H1       HT       0.417000       1.00800           0
     19700 TIP3     2406     TIP3     H2       HT       0.417000       1.00800           0
     19701 TIP3     2407     TIP3     OH2      OT      -0.834000       15.9994           0
     19702 TIP3     2407     TIP3     H1       HT       0.417000       1.00800           0
     19703 TIP3     2407     TIP3     H2       HT       0.417000       1.00800           0
     19704 TIP3     2408     TIP3     OH2      OT      -0.834000       15.9994           0
     19705 TIP3     2408     TIP3     H1       HT       0.417000       1.00800           0
     19706 TIP3     2408     TIP3     H2       HT       0.417000       1.00800           0
     19707 TIP3     2409     TIP3     OH2      OT      -0.834000       15.9994           0
     19708 TIP3     2409     TIP3     H1       HT       0.417000       1.00800           0
     19709 TIP3     2409     TIP3     H2       HT       0.417000       1.00800           0
     19710 TIP3     2410     TIP3     OH2      OT      -0.834000       15.9994           0
     19711 TIP3     2410     TIP3     H1       HT       0.417000       1.00800           0
     19712 TIP3     2410     TIP3     H2       HT       0.417000       1.00800           0
     19713 TIP3     2411     TIP3     OH2      OT      -0.834000       15.9994           0
     19714 TIP3     2411     TIP3     H1       HT       0.417000       1.00800           0
     19715 TIP3     2411     TIP3     H2       HT       0.417000       1.00800           0
     19716 TIP3     2412     TIP3     OH2      OT      -0.834000       15.9994           0
     19717 TIP3     2412     TIP3     H1       HT       0.417000       1.00800           0
     19718 TIP3     2412     TIP3     H2       HT       0.417000       1.00800           0
     19719 TIP3     2413     TIP3     OH2      OT      -0.834000       15.9994           0
     19720 TIP3     2413     TIP3     H1       HT       0.417000       1.00800           0
     19721 TIP3     2413     TIP3     H2       HT       0.417000       1.00800           0
     19722 TIP3     2414     TIP3     OH2      OT      -0.834000       15.9994           0
     19723 TIP3     2414     TIP3     H1       HT       0.417000       1.00800           0
     19724 TIP3     2414     TIP3     H2       HT       0.417000       1.00800           0
     19725 TIP3     2415     TIP3     OH2      OT      -0.834000       15.9994           0
     19726 TIP3     2415     TIP3     H1       HT       0.417000       1.00800           0
     19727 TIP3     2415     TIP3     H2       HT       0.417000       1.00800           0
     19728 TIP3     2416     TIP3     OH2      OT      -0.834000       15.9994           0
     19729 TIP3     2416     TIP3     H1       HT       0.417000       1.00800           0
     19730 TIP3     2416     TIP3     H2       HT       0.417000       1.00800           0
     19731 TIP3     2417     TIP3     OH2      OT      -0.834000       15.9994           0
     19732 TIP3     2417     TIP3     H1       HT       0.417000       1.00800           0
     19733 TIP3     2417     TIP3     H2       HT       0.417000       1.00800           0
     19734 TIP3     2418     TIP3     OH2      OT      -0.834000       15.9994           0
     19735 TIP3     2418     TIP3     H1       HT       0.417000       1.00800           0
     19736 TIP3     2418     TIP3     H2       HT       0.417000       1.00800           0
     19737 TIP3     2419     TIP3     OH2      OT      -0.834000       15.9994           0
     19738 TIP3     2419     TIP3     H1       HT       0.417000       1.00800           0
     19739 TIP3     2419     TIP3     H2       HT       0.417000       1.00800           0
     19740 TIP3     2420     TIP3     OH2      OT      -0.834000       15.9994           0
     19741 TIP3     2420     TIP3     H1       HT       0.417000       1.00800           0
     19742 TIP3     2420     TIP3     H2       HT       0.417000       1.00800           0
     19743 TIP3     2421     TIP3     OH2      OT      -0.834000       15.9994           0
     19744 TIP3     2421     TIP3     H1       HT       0.417000       1.00800           0
     19745 TIP3     2421     TIP3     H2       HT       0.417000       1.00800           0
     19746 TIP3     2422     TIP3     OH2      OT      -0.834000       15.9994           0
     19747 TIP3     2422     TIP3     H1       HT       0.417000       1.00800           0
     19748 TIP3     2422     TIP3     H2       HT       0.417000       1.00800           0
     19749 TIP3     2423     TIP3     OH2      OT      -0.834000       15.9994           0
     19750 TIP3     2423     TIP3     H1       HT       0.417000       1.00800           0
     19751 TIP3     2423     TIP3     H2       HT       0.417000       1.00800           0
     19752 TIP3     2424     TIP3     OH2      OT      -0.834000       15.9994           0
     19753 TIP3     2424     TIP3     H1       HT       0.417000       1.00800           0
     19754 TIP3     2424     TIP3     H2       HT       0.417000       1.00800           0
     19755 TIP3     2425     TIP3     OH2      OT      -0.834000       15.9994           0
     19756 TIP3     2425     TIP3     H1       HT       0.417000       1.00800           0
     19757 TIP3     2425     TIP3     H2       HT       0.417000       1.00800           0
     19758 TIP3     2426     TIP3     OH2      OT      -0.834000       15.9994           0
     19759 TIP3     2426     TIP3     H1       HT       0.417000       1.00800           0
     19760 TIP3     2426     TIP3     H2       HT       0.417000       1.00800           0
     19761 TIP3     2427     TIP3     OH2      OT      -0.834000       15.9994           0
     19762 TIP3     2427     TIP3     H1       HT       0.417000       1.00800           0
     19763 TIP3     2427     TIP3     H2       HT       0.417000       1.00800           0
     19764 TIP3     2428     TIP3     OH2      OT      -0.834000       15.9994           0
     19765 TIP3     2428     TIP3     H1       HT       0.417000       1.00800           0
     19766 TIP3     2428     TIP3     H2       HT       0.417000       1.00800           0
     19767 TIP3     2429     TIP3     OH2      OT      -0.834000       15.9994           0
     19768 TIP3     2429     TIP3     H1       HT       0.417000       1.00800           0
     19769 TIP3     2429     TIP3     H2       HT       0.417000       1.00800           0
     19770 TIP3     2430     TIP3     OH2      OT      -0.834000       15.9994           0
     19771 TIP3     2430     TIP3     H1       HT       0.417000       1.00800           0
     19772 TIP3     2430     TIP3     H2       HT       0.417000       1.00800           0
     19773 TIP3     2431     TIP3     OH2      OT      -0.834000       15.9994           0
     19774 TIP3     2431     TIP3     H1       HT       0.417000       1.00800           0
     19775 TIP3     2431     TIP3     H2       HT       0.417000       1.00800           0
     19776 TIP3     2432     TIP3     OH2      OT      -0.834000       15.9994           0
     19777 TIP3     2432     TIP3     H1       HT       0.417000       1.00800           0
     19778 TIP3     2432     TIP3     H2       HT       0.417000       1.00800           0
     19779 TIP3     2433     TIP3     OH2      OT      -0.834000       15.9994           0
     19780 TIP3     2433     TIP3     H1       HT       0.417000       1.00800           0
     19781 TIP3     2433     TIP3     H2       HT       0.417000       1.00800           0
     19782 TIP3     2434     TIP3     OH2      OT      -0.834000       15.9994           0
     19783 TIP3     2434     TIP3     H1       HT       0.417000       1.00800           0
     19784 TIP3     2434     TIP3     H2       HT       0.417000       1.00800           0
     19785 TIP3     2435     TIP3     OH2      OT      -0.834000       15.9994           0
     19786 TIP3     2435     TIP3     H1       HT       0.417000       1.00800           0
     19787 TIP3     2435     TIP3     H2       HT       0.417000       1.00800           0
     19788 TIP3     2436     TIP3     OH2      OT      -0.834000       15.9994           0
     19789 TIP3     2436     TIP3     H1       HT       0.417000       1.00800           0
     19790 TIP3     2436     TIP3     H2       HT       0.417000       1.00800           0
     19791 TIP3     2437     TIP3     OH2      OT      -0.834000       15.9994           0
     19792 TIP3     2437     TIP3     H1       HT       0.417000       1.00800           0
     19793 TIP3     2437     TIP3     H2       HT       0.417000       1.00800           0
     19794 TIP3     2438     TIP3     OH2      OT      -0.834000       15.9994           0
     19795 TIP3     2438     TIP3     H1       HT       0.417000       1.00800           0
     19796 TIP3     2438     TIP3     H2       HT       0.417000       1.00800           0
     19797 TIP3     2439     TIP3     OH2      OT      -0.834000       15.9994           0
     19798 TIP3     2439     TIP3     H1       HT       0.417000       1.00800           0
     19799 TIP3     2439     TIP3     H2       HT       0.417000       1.00800           0
     19800 TIP3     2440     TIP3     OH2      OT      -0.834000       15.9994           0
     19801 TIP3     2440     TIP3     H1       HT       0.417000       1.00800           0
     19802 TIP3     2440     TIP3     H2       HT       0.417000       1.00800           0
     19803 TIP3     2441     TIP3     OH2      OT      -0.834000       15.9994           0
     19804 TIP3     2441     TIP3     H1       HT       0.417000       1.00800           0
     19805 TIP3     2441     TIP3     H2       HT       0.417000       1.00800           0
     19806 TIP3     2442     TIP3     OH2      OT      -0.834000       15.9994           0
     19807 TIP3     2442     TIP3     H1       HT       0.417000       1.00800           0
     19808 TIP3     2442     TIP3     H2       HT       0.417000       1.00800           0
     19809 TIP3     2443     TIP3     OH2      OT      -0.834000       15.9994           0
     19810 TIP3     2443     TIP3     H1       HT       0.417000       1.00800           0
     19811 TIP3     2443     TIP3     H2       HT       0.417000       1.00800           0
     19812 TIP3     2444     TIP3     OH2      OT      -0.834000       15.9994           0
     19813 TIP3     2444     TIP3     H1       HT       0.417000       1.00800           0
     19814 TIP3     2444     TIP3     H2       HT       0.417000       1.00800           0
     19815 TIP3     2445     TIP3     OH2      OT      -0.834000       15.9994           0
     19816 TIP3     2445     TIP3     H1       HT       0.417000       1.00800           0
     19817 TIP3     2445     TIP3     H2       HT       0.417000       1.00800           0
     19818 TIP3     2446     TIP3     OH2      OT      -0.834000       15.9994           0
     19819 TIP3     2446     TIP3     H1       HT       0.417000       1.00800           0
     19820 TIP3     2446     TIP3     H2       HT       0.417000       1.00800           0
     19821 TIP3     2447     TIP3     OH2      OT      -0.834000       15.9994           0
     19822 TIP3     2447     TIP3     H1       HT       0.417000       1.00800           0
     19823 TIP3     2447     TIP3     H2       HT       0.417000       1.00800           0
     19824 TIP3     2448     TIP3     OH2      OT      -0.834000       15.9994           0
     19825 TIP3     2448     TIP3     H1       HT       0.417000       1.00800           0
     19826 TIP3     2448     TIP3     H2       HT       0.417000       1.00800           0
     19827 TIP3     2449     TIP3     OH2      OT      -0.834000       15.9994           0
     19828 TIP3     2449     TIP3     H1       HT       0.417000       1.00800           0
     19829 TIP3     2449     TIP3     H2       HT       0.417000       1.00800           0
     19830 TIP3     2450     TIP3     OH2      OT      -0.834000       15.9994           0
     19831 TIP3     2450     TIP3     H1       HT       0.417000       1.00800           0
     19832 TIP3     2450     TIP3     H2       HT       0.417000       1.00800           0
     19833 TIP3     2451     TIP3     OH2      OT      -0.834000       15.9994           0
     19834 TIP3     2451     TIP3     H1       HT       0.417000       1.00800           0
     19835 TIP3     2451     TIP3     H2       HT       0.417000       1.00800           0
     19836 TIP3     2452     TIP3     OH2      OT      -0.834000       15.9994           0
     19837 TIP3     2452     TIP3     H1       HT       0.417000       1.00800           0
     19838 TIP3     2452     TIP3     H2       HT       0.417000       1.00800           0
     19839 TIP3     2453     TIP3     OH2      OT      -0.834000       15.9994           0
     19840 TIP3     2453     TIP3     H1       HT       0.417000       1.00800           0
     19841 TIP3     2453     TIP3     H2       HT       0.417000       1.00800           0
     19842 TIP3     2454     TIP3     OH2      OT      -0.834000       15.9994           0
     19843 TIP3     2454     TIP3     H1       HT       0.417000       1.00800           0
     19844 TIP3     2454     TIP3     H2       HT       0.417000       1.00800           0
     19845 TIP3     2455     TIP3     OH2      OT      -0.834000       15.9994           0
     19846 TIP3     2455     TIP3     H1       HT       0.417000       1.00800           0
     19847 TIP3     2455     TIP3     H2       HT       0.417000       1.00800           0
     19848 TIP3     2456     TIP3     OH2      OT      -0.834000       15.9994           0
     19849 TIP3     2456     TIP3     H1       HT       0.417000       1.00800           0
     19850 TIP3     2456     TIP3     H2       HT       0.417000       1.00800           0
     19851 TIP3     2457     TIP3     OH2      OT      -0.834000       15.9994           0
     19852 TIP3     2457     TIP3     H1       HT       0.417000       1.00800           0
     19853 TIP3     2457     TIP3     H2       HT       0.417000       1.00800           0
     19854 TIP3     2458     TIP3     OH2      OT      -0.834000       15.9994           0
     19855 TIP3     2458     TIP3     H1       HT       0.417000       1.00800           0
     19856 TIP3     2458     TIP3     H2       HT       0.417000       1.00800           0
     19857 TIP3     2459     TIP3     OH2      OT      -0.834000       15.9994           0
     19858 TIP3     2459     TIP3     H1       HT       0.417000       1.00800           0
     19859 TIP3     2459     TIP3     H2       HT       0.417000       1.00800           0
     19860 TIP3     2460     TIP3     OH2      OT      -0.834000       15.9994           0
     19861 TIP3     2460     TIP3     H1       HT       0.417000       1.00800           0
     19862 TIP3     2460     TIP3     H2       HT       0.417000       1.00800           0
     19863 TIP3     2461     TIP3     OH2      OT      -0.834000       15.9994           0
     19864 TIP3     2461     TIP3     H1       HT       0.417000       1.00800           0
     19865 TIP3     2461     TIP3     H2       HT       0.417000       1.00800           0
     19866 TIP3     2462     TIP3     OH2      OT      -0.834000       15.9994           0
     19867 TIP3     2462     TIP3     H1       HT       0.417000       1.00800           0
     19868 TIP3     2462     TIP3     H2       HT       0.417000       1.00800           0
     19869 TIP3     2463     TIP3     OH2      OT      -0.834000       15.9994           0
     19870 TIP3     2463     TIP3     H1       HT       0.417000       1.00800           0
     19871 TIP3     2463     TIP3     H2       HT       0.417000       1.00800           0
     19872 TIP3     2464     TIP3     OH2      OT      -0.834000       15.9994           0
     19873 TIP3     2464     TIP3     H1       HT       0.417000       1.00800           0
     19874 TIP3     2464     TIP3     H2       HT       0.417000       1.00800           0
     19875 TIP3     2465     TIP3     OH2      OT      -0.834000       15.9994           0
     19876 TIP3     2465     TIP3     H1       HT       0.417000       1.00800           0
     19877 TIP3     2465     TIP3     H2       HT       0.417000       1.00800           0
     19878 TIP3     2466     TIP3     OH2      OT      -0.834000       15.9994           0
     19879 TIP3     2466     TIP3     H1       HT       0.417000       1.00800           0
     19880 TIP3     2466     TIP3     H2       HT       0.417000       1.00800           0
     19881 TIP3     2467     TIP3     OH2      OT      -0.834000       15.9994           0
     19882 TIP3     2467     TIP3     H1       HT       0.417000       1.00800           0
     19883 TIP3     2467     TIP3     H2       HT       0.417000       1.00800           0
     19884 TIP3     2468     TIP3     OH2      OT      -0.834000       15.9994           0
     19885 TIP3     2468     TIP3     H1       HT       0.417000       1.00800           0
     19886 TIP3     2468     TIP3     H2       HT       0.417000       1.00800           0
     19887 TIP3     2469     TIP3     OH2      OT      -0.834000       15.9994           0
     19888 TIP3     2469     TIP3     H1       HT       0.417000       1.00800           0
     19889 TIP3     2469     TIP3     H2       HT       0.417000       1.00800           0
     19890 TIP3     2470     TIP3     OH2      OT      -0.834000       15.9994           0
     19891 TIP3     2470     TIP3     H1       HT       0.417000       1.00800           0
     19892 TIP3     2470     TIP3     H2       HT       0.417000       1.00800           0
     19893 TIP3     2471     TIP3     OH2      OT      -0.834000       15.9994           0
     19894 TIP3     2471     TIP3     H1       HT       0.417000       1.00800           0
     19895 TIP3     2471     TIP3     H2       HT       0.417000       1.00800           0
     19896 TIP3     2472     TIP3     OH2      OT      -0.834000       15.9994           0
     19897 TIP3     2472     TIP3     H1       HT       0.417000       1.00800           0
     19898 TIP3     2472     TIP3     H2       HT       0.417000       1.00800           0
     19899 TIP3     2473     TIP3     OH2      OT      -0.834000       15.9994           0
     19900 TIP3     2473     TIP3     H1       HT       0.417000       1.00800           0
     19901 TIP3     2473     TIP3     H2       HT       0.417000       1.00800           0
     19902 TIP3     2474     TIP3     OH2      OT      -0.834000       15.9994           0
     19903 TIP3     2474     TIP3     H1       HT       0.417000       1.00800           0
     19904 TIP3     2474     TIP3     H2       HT       0.417000       1.00800           0
     19905 TIP3     2475     TIP3     OH2      OT      -0.834000       15.9994           0
     19906 TIP3     2475     TIP3     H1       HT       0.417000       1.00800           0
     19907 TIP3     2475     TIP3     H2       HT       0.417000       1.00800           0
     19908 TIP3     2476     TIP3     OH2      OT      -0.834000       15.9994           0
     19909 TIP3     2476     TIP3     H1       HT       0.417000       1.00800           0
     19910 TIP3     2476     TIP3     H2       HT       0.417000       1.00800           0
     19911 TIP3     2477     TIP3     OH2      OT      -0.834000       15.9994           0
     19912 TIP3     2477     TIP3     H1       HT       0.417000       1.00800           0
     19913 TIP3     2477     TIP3     H2       HT       0.417000       1.00800           0
     19914 TIP3     2478     TIP3     OH2      OT      -0.834000       15.9994           0
     19915 TIP3     2478     TIP3     H1       HT       0.417000       1.00800           0
     19916 TIP3     2478     TIP3     H2       HT       0.417000       1.00800           0
     19917 TIP3     2479     TIP3     OH2      OT      -0.834000       15.9994           0
     19918 TIP3     2479     TIP3     H1       HT       0.417000       1.00800           0
     19919 TIP3     2479     TIP3     H2       HT       0.417000       1.00800           0
     19920 TIP3     2480     TIP3     OH2      OT      -0.834000       15.9994           0
     19921 TIP3     2480     TIP3     H1       HT       0.417000       1.00800           0
     19922 TIP3     2480     TIP3     H2       HT       0.417000       1.00800           0
     19923 TIP3     2481     TIP3     OH2      OT      -0.834000       15.9994           0
     19924 TIP3     2481     TIP3     H1       HT       0.417000       1.00800           0
     19925 TIP3     2481     TIP3     H2       HT       0.417000       1.00800           0
     19926 TIP3     2482     TIP3     OH2      OT      -0.834000       15.9994           0
     19927 TIP3     2482     TIP3     H1       HT       0.417000       1.00800           0
     19928 TIP3     2482     TIP3     H2       HT       0.417000       1.00800           0
     19929 TIP3     2483     TIP3     OH2      OT      -0.834000       15.9994           0
     19930 TIP3     2483     TIP3     H1       HT       0.417000       1.00800           0
     19931 TIP3     2483     TIP3     H2       HT       0.417000       1.00800           0
     19932 TIP3     2484     TIP3     OH2      OT      -0.834000       15.9994           0
     19933 TIP3     2484     TIP3     H1       HT       0.417000       1.00800           0
     19934 TIP3     2484     TIP3     H2       HT       0.417000       1.00800           0
     19935 TIP3     2485     TIP3     OH2      OT      -0.834000       15.9994           0
     19936 TIP3     2485     TIP3     H1       HT       0.417000       1.00800           0
     19937 TIP3     2485     TIP3     H2       HT       0.417000       1.00800           0
     19938 TIP3     2486     TIP3     OH2      OT      -0.834000       15.9994           0
     19939 TIP3     2486     TIP3     H1       HT       0.417000       1.00800           0
     19940 TIP3     2486     TIP3     H2       HT       0.417000       1.00800           0
     19941 TIP3     2487     TIP3     OH2      OT      -0.834000       15.9994           0
     19942 TIP3     2487     TIP3     H1       HT       0.417000       1.00800           0
     19943 TIP3     2487     TIP3     H2       HT       0.417000       1.00800           0
     19944 TIP3     2488     TIP3     OH2      OT      -0.834000       15.9994           0
     19945 TIP3     2488     TIP3     H1       HT       0.417000       1.00800           0
     19946 TIP3     2488     TIP3     H2       HT       0.417000       1.00800           0
     19947 TIP3     2489     TIP3     OH2      OT      -0.834000       15.9994           0
     19948 TIP3     2489     TIP3     H1       HT       0.417000       1.00800           0
     19949 TIP3     2489     TIP3     H2       HT       0.417000       1.00800           0
     19950 TIP3     2490     TIP3     OH2      OT      -0.834000       15.9994           0
     19951 TIP3     2490     TIP3     H1       HT       0.417000       1.00800           0
     19952 TIP3     2490     TIP3     H2       HT       0.417000       1.00800           0
     19953 TIP3     2491     TIP3     OH2      OT      -0.834000       15.9994           0
     19954 TIP3     2491     TIP3     H1       HT       0.417000       1.00800           0
     19955 TIP3     2491     TIP3     H2       HT       0.417000       1.00800           0
     19956 TIP3     2492     TIP3     OH2      OT      -0.834000       15.9994           0
     19957 TIP3     2492     TIP3     H1       HT       0.417000       1.00800           0
     19958 TIP3     2492     TIP3     H2       HT       0.417000       1.00800           0
     19959 TIP3     2493     TIP3     OH2      OT      -0.834000       15.9994           0
     19960 TIP3     2493     TIP3     H1       HT       0.417000       1.00800           0
     19961 TIP3     2493     TIP3     H2       HT       0.417000       1.00800           0
     19962 TIP3     2494     TIP3     OH2      OT      -0.834000       15.9994           0
     19963 TIP3     2494     TIP3     H1       HT       0.417000       1.00800           0
     19964 TIP3     2494     TIP3     H2       HT       0.417000       1.00800           0
     19965 TIP3     2495     TIP3     OH2      OT      -0.834000       15.9994           0
     19966 TIP3     2495     TIP3     H1       HT       0.417000       1.00800           0
     19967 TIP3     2495     TIP3     H2       HT       0.417000       1.00800           0
     19968 TIP3     2496     TIP3     OH2      OT      -0.834000       15.9994           0
     19969 TIP3     2496     TIP3     H1       HT       0.417000       1.00800           0
     19970 TIP3     2496     TIP3     H2       HT       0.417000       1.00800           0
     19971 TIP3     2497     TIP3     OH2      OT      -0.834000       15.9994           0
     19972 TIP3     2497     TIP3     H1       HT       0.417000       1.00800           0
     19973 TIP3     2497     TIP3     H2       HT       0.417000       1.00800           0
     19974 TIP3     2498     TIP3     OH2      OT      -0.834000       15.9994           0
     19975 TIP3     2498     TIP3     H1       HT       0.417000       1.00800           0
     19976 TIP3     2498     TIP3     H2       HT       0.417000       1.00800           0
     19977 TIP3     2499     TIP3     OH2      OT      -0.834000       15.9994           0
     19978 TIP3     2499     TIP3     H1       HT       0.417000       1.00800           0
     19979 TIP3     2499     TIP3     H2       HT       0.417000       1.00800           0
     19980 TIP3     2500     TIP3     OH2      OT      -0.834000       15.9994           0
     19981 TIP3     2500     TIP3     H1       HT       0.417000       1.00800           0
     19982 TIP3     2500     TIP3     H2       HT       0.417000       1.00800           0
     19983 TIP3     2501     TIP3     OH2      OT      -0.834000       15.9994           0
     19984 TIP3     2501     TIP3     H1       HT       0.417000       1.00800           0
     19985 TIP3     2501     TIP3     H2       HT       0.417000       1.00800           0
     19986 TIP3     2502     TIP3     OH2      OT      -0.834000       15.9994           0
     19987 TIP3     2502     TIP3     H1       HT       0.417000       1.00800           0
     19988 TIP3     2502     TIP3     H2       HT       0.417000       1.00800           0
     19989 TIP3     2503     TIP3     OH2      OT      -0.834000       15.9994           0
     19990 TIP3     2503     TIP3     H1       HT       0.417000       1.00800           0
     19991 TIP3     2503     TIP3     H2       HT       0.417000       1.00800           0
     19992 TIP3     2504     TIP3     OH2      OT      -0.834000       15.9994           0
     19993 TIP3     2504     TIP3     H1       HT       0.417000       1.00800           0
     19994 TIP3     2504     TIP3     H2       HT       0.417000       1.00800           0
     19995 TIP3     2505     TIP3     OH2      OT      -0.834000       15.9994           0
     19996 TIP3     2505     TIP3     H1       HT       0.417000       1.00800           0
     19997 TIP3     2505     TIP3     H2       HT       0.417000       1.00800           0
     19998 TIP3     2506     TIP3     OH2      OT      -0.834000       15.9994           0
     19999 TIP3     2506     TIP3     H1       HT       0.417000       1.00800           0
     20000 TIP3     2506     TIP3     H2       HT       0.417000       1.00800           0
     20001 TIP3     2507     TIP3     OH2      OT      -0.834000       15.9994           0
     20002 TIP3     2507     TIP3     H1       HT       0.417000       1.00800           0
     20003 TIP3     2507     TIP3     H2       HT       0.417000       1.00800           0
     20004 TIP3     2508     TIP3     OH2      OT      -0.834000       15.9994           0
     20005 TIP3     2508     TIP3     H1       HT       0.417000       1.00800           0
     20006 TIP3     2508     TIP3     H2       HT       0.417000       1.00800           0
     20007 TIP3     2509     TIP3     OH2      OT      -0.834000       15.9994           0
     20008 TIP3     2509     TIP3     H1       HT       0.417000       1.00800           0
     20009 TIP3     2509     TIP3     H2       HT       0.417000       1.00800           0
     20010 TIP3     2510     TIP3     OH2      OT      -0.834000       15.9994           0
     20011 TIP3     2510     TIP3     H1       HT       0.417000       1.00800           0
     20012 TIP3     2510     TIP3     H2       HT       0.417000       1.00800           0
     20013 TIP3     2511     TIP3     OH2      OT      -0.834000       15.9994           0
     20014 TIP3     2511     TIP3     H1       HT       0.417000       1.00800           0
     20015 TIP3     2511     TIP3     H2       HT       0.417000       1.00800           0
     20016 TIP3     2512     TIP3     OH2      OT      -0.834000       15.9994           0
     20017 TIP3     2512     TIP3     H1       HT       0.417000       1.00800           0
     20018 TIP3     2512     TIP3     H2       HT       0.417000       1.00800           0
     20019 TIP3     2513     TIP3     OH2      OT      -0.834000       15.9994           0
     20020 TIP3     2513     TIP3     H1       HT       0.417000       1.00800           0
     20021 TIP3     2513     TIP3     H2       HT       0.417000       1.00800           0
     20022 TIP3     2514     TIP3     OH2      OT      -0.834000       15.9994           0
     20023 TIP3     2514     TIP3     H1       HT       0.417000       1.00800           0
     20024 TIP3     2514     TIP3     H2       HT       0.417000       1.00800           0
     20025 TIP3     2515     TIP3     OH2      OT      -0.834000       15.9994           0
     20026 TIP3     2515     TIP3     H1       HT       0.417000       1.00800           0
     20027 TIP3     2515     TIP3     H2       HT       0.417000       1.00800           0
     20028 TIP3     2516     TIP3     OH2      OT      -0.834000       15.9994           0
     20029 TIP3     2516     TIP3     H1       HT       0.417000       1.00800           0
     20030 TIP3     2516     TIP3     H2       HT       0.417000       1.00800           0
     20031 TIP3     2517     TIP3     OH2      OT      -0.834000       15.9994           0
     20032 TIP3     2517     TIP3     H1       HT       0.417000       1.00800           0
     20033 TIP3     2517     TIP3     H2       HT       0.417000       1.00800           0
     20034 TIP3     2518     TIP3     OH2      OT      -0.834000       15.9994           0
     20035 TIP3     2518     TIP3     H1       HT       0.417000       1.00800           0
     20036 TIP3     2518     TIP3     H2       HT       0.417000       1.00800           0
     20037 TIP3     2519     TIP3     OH2      OT      -0.834000       15.9994           0
     20038 TIP3     2519     TIP3     H1       HT       0.417000       1.00800           0
     20039 TIP3     2519     TIP3     H2       HT       0.417000       1.00800           0
     20040 TIP3     2520     TIP3     OH2      OT      -0.834000       15.9994           0
     20041 TIP3     2520     TIP3     H1       HT       0.417000       1.00800           0
     20042 TIP3     2520     TIP3     H2       HT       0.417000       1.00800           0
     20043 TIP3     2521     TIP3     OH2      OT      -0.834000       15.9994           0
     20044 TIP3     2521     TIP3     H1       HT       0.417000       1.00800           0
     20045 TIP3     2521     TIP3     H2       HT       0.417000       1.00800           0
     20046 TIP3     2522     TIP3     OH2      OT      -0.834000       15.9994           0
     20047 TIP3     2522     TIP3     H1       HT       0.417000       1.00800           0
     20048 TIP3     2522     TIP3     H2       HT       0.417000       1.00800           0
     20049 TIP3     2523     TIP3     OH2      OT      -0.834000       15.9994           0
     20050 TIP3     2523     TIP3     H1       HT       0.417000       1.00800           0
     20051 TIP3     2523     TIP3     H2       HT       0.417000       1.00800           0
     20052 TIP3     2524     TIP3     OH2      OT      -0.834000       15.9994           0
     20053 TIP3     2524     TIP3     H1       HT       0.417000       1.00800           0
     20054 TIP3     2524     TIP3     H2       HT       0.417000       1.00800           0
     20055 TIP3     2525     TIP3     OH2      OT      -0.834000       15.9994           0
     20056 TIP3     2525     TIP3     H1       HT       0.417000       1.00800           0
     20057 TIP3     2525     TIP3     H2       HT       0.417000       1.00800           0
     20058 TIP3     2526     TIP3     OH2      OT      -0.834000       15.9994           0
     20059 TIP3     2526     TIP3     H1       HT       0.417000       1.00800           0
     20060 TIP3     2526     TIP3     H2       HT       0.417000       1.00800           0
     20061 TIP3     2527     TIP3     OH2      OT      -0.834000       15.9994           0
     20062 TIP3     2527     TIP3     H1       HT       0.417000       1.00800           0
     20063 TIP3     2527     TIP3     H2       HT       0.417000       1.00800           0
     20064 TIP3     2528     TIP3     OH2      OT      -0.834000       15.9994           0
     20065 TIP3     2528     TIP3     H1       HT       0.417000       1.00800           0
     20066 TIP3     2528     TIP3     H2       HT       0.417000       1.00800           0
     20067 TIP3     2529     TIP3     OH2      OT      -0.834000       15.9994           0
     20068 TIP3     2529     TIP3     H1       HT       0.417000       1.00800           0
     20069 TIP3     2529     TIP3     H2       HT       0.417000       1.00800           0
     20070 TIP3     2530     TIP3     OH2      OT      -0.834000       15.9994           0
     20071 TIP3     2530     TIP3     H1       HT       0.417000       1.00800           0
     20072 TIP3     2530     TIP3     H2       HT       0.417000       1.00800           0
     20073 TIP3     2531     TIP3     OH2      OT      -0.834000       15.9994           0
     20074 TIP3     2531     TIP3     H1       HT       0.417000       1.00800           0
     20075 TIP3     2531     TIP3     H2       HT       0.417000       1.00800           0
     20076 TIP3     2532     TIP3     OH2      OT      -0.834000       15.9994           0
     20077 TIP3     2532     TIP3     H1       HT       0.417000       1.00800           0
     20078 TIP3     2532     TIP3     H2       HT       0.417000       1.00800           0
     20079 TIP3     2533     TIP3     OH2      OT      -0.834000       15.9994           0
     20080 TIP3     2533     TIP3     H1       HT       0.417000       1.00800           0
     20081 TIP3     2533     TIP3     H2       HT       0.417000       1.00800           0
     20082 TIP3     2534     TIP3     OH2      OT      -0.834000       15.9994           0
     20083 TIP3     2534     TIP3     H1       HT       0.417000       1.00800           0
     20084 TIP3     2534     TIP3     H2       HT       0.417000       1.00800           0
     20085 TIP3     2535     TIP3     OH2      OT      -0.834000       15.9994           0
     20086 TIP3     2535     TIP3     H1       HT       0.417000       1.00800           0
     20087 TIP3     2535     TIP3     H2       HT       0.417000       1.00800           0
     20088 TIP3     2536     TIP3     OH2      OT      -0.834000       15.9994           0
     20089 TIP3     2536     TIP3     H1       HT       0.417000       1.00800           0
     20090 TIP3     2536     TIP3     H2       HT       0.417000       1.00800           0
     20091 TIP3     2537     TIP3     OH2      OT      -0.834000       15.9994           0
     20092 TIP3     2537     TIP3     H1       HT       0.417000       1.00800           0
     20093 TIP3     2537     TIP3     H2       HT       0.417000       1.00800           0
     20094 TIP3     2538     TIP3     OH2      OT      -0.834000       15.9994           0
     20095 TIP3     2538     TIP3     H1       HT       0.417000       1.00800           0
     20096 TIP3     2538     TIP3     H2       HT       0.417000       1.00800           0
     20097 TIP3     2539     TIP3     OH2      OT      -0.834000       15.9994           0
     20098 TIP3     2539     TIP3     H1       HT       0.417000       1.00800           0
     20099 TIP3     2539     TIP3     H2       HT       0.417000       1.00800           0
     20100 TIP3     2540     TIP3     OH2      OT      -0.834000       15.9994           0
     20101 TIP3     2540     TIP3     H1       HT       0.417000       1.00800           0
     20102 TIP3     2540     TIP3     H2       HT       0.417000       1.00800           0
     20103 TIP3     2541     TIP3     OH2      OT      -0.834000       15.9994           0
     20104 TIP3     2541     TIP3     H1       HT       0.417000       1.00800           0
     20105 TIP3     2541     TIP3     H2       HT       0.417000       1.00800           0
     20106 TIP3     2542     TIP3     OH2      OT      -0.834000       15.9994           0
     20107 TIP3     2542     TIP3     H1       HT       0.417000       1.00800           0
     20108 TIP3     2542     TIP3     H2       HT       0.417000       1.00800           0
     20109 TIP3     2543     TIP3     OH2      OT      -0.834000       15.9994           0
     20110 TIP3     2543     TIP3     H1       HT       0.417000       1.00800           0
     20111 TIP3     2543     TIP3     H2       HT       0.417000       1.00800           0
     20112 TIP3     2544     TIP3     OH2      OT      -0.834000       15.9994           0
     20113 TIP3     2544     TIP3     H1       HT       0.417000       1.00800           0
     20114 TIP3     2544     TIP3     H2       HT       0.417000       1.00800           0
     20115 TIP3     2545     TIP3     OH2      OT      -0.834000       15.9994           0
     20116 TIP3     2545     TIP3     H1       HT       0.417000       1.00800           0
     20117 TIP3     2545     TIP3     H2       HT       0.417000       1.00800           0
     20118 TIP3     2546     TIP3     OH2      OT      -0.834000       15.9994           0
     20119 TIP3     2546     TIP3     H1       HT       0.417000       1.00800           0
     20120 TIP3     2546     TIP3     H2       HT       0.417000       1.00800           0
     20121 TIP3     2547     TIP3     OH2      OT      -0.834000       15.9994           0
     20122 TIP3     2547     TIP3     H1       HT       0.417000       1.00800           0
     20123 TIP3     2547     TIP3     H2       HT       0.417000       1.00800           0
     20124 TIP3     2548     TIP3     OH2      OT      -0.834000       15.9994           0
     20125 TIP3     2548     TIP3     H1       HT       0.417000       1.00800           0
     20126 TIP3     2548     TIP3     H2       HT       0.417000       1.00800           0
     20127 TIP3     2549     TIP3     OH2      OT      -0.834000       15.9994           0
     20128 TIP3     2549     TIP3     H1       HT       0.417000       1.00800           0
     20129 TIP3     2549     TIP3     H2       HT       0.417000       1.00800           0
     20130 TIP3     2550     TIP3     OH2      OT      -0.834000       15.9994           0
     20131 TIP3     2550     TIP3     H1       HT       0.417000       1.00800           0
     20132 TIP3     2550     TIP3     H2       HT       0.417000       1.00800           0
     20133 TIP3     2551     TIP3     OH2      OT      -0.834000       15.9994           0
     20134 TIP3     2551     TIP3     H1       HT       0.417000       1.00800           0
     20135 TIP3     2551     TIP3     H2       HT       0.417000       1.00800           0
     20136 TIP3     2552     TIP3     OH2      OT      -0.834000       15.9994           0
     20137 TIP3     2552     TIP3     H1       HT       0.417000       1.00800           0
     20138 TIP3     2552     TIP3     H2       HT       0.417000       1.00800           0
     20139 TIP3     2553     TIP3     OH2      OT      -0.834000       15.9994           0
     20140 TIP3     2553     TIP3     H1       HT       0.417000       1.00800           0
     20141 TIP3     2553     TIP3     H2       HT       0.417000       1.00800           0
     20142 TIP3     2554     TIP3     OH2      OT      -0.834000       15.9994           0
     20143 TIP3     2554     TIP3     H1       HT       0.417000       1.00800           0
     20144 TIP3     2554     TIP3     H2       HT       0.417000       1.00800           0
     20145 TIP3     2555     TIP3     OH2      OT      -0.834000       15.9994           0
     20146 TIP3     2555     TIP3     H1       HT       0.417000       1.00800           0
     20147 TIP3     2555     TIP3     H2       HT       0.417000       1.00800           0
     20148 TIP3     2556     TIP3     OH2      OT      -0.834000       15.9994           0
     20149 TIP3     2556     TIP3     H1       HT       0.417000       1.00800           0
     20150 TIP3     2556     TIP3     H2       HT       0.417000       1.00800           0
     20151 TIP3     2557     TIP3     OH2      OT      -0.834000       15.9994           0
     20152 TIP3     2557     TIP3     H1       HT       0.417000       1.00800           0
     20153 TIP3     2557     TIP3     H2       HT       0.417000       1.00800           0
     20154 TIP3     2558     TIP3     OH2      OT      -0.834000       15.9994           0
     20155 TIP3     2558     TIP3     H1       HT       0.417000       1.00800           0
     20156 TIP3     2558     TIP3     H2       HT       0.417000       1.00800           0
     20157 TIP3     2559     TIP3     OH2      OT      -0.834000       15.9994           0
     20158 TIP3     2559     TIP3     H1       HT       0.417000       1.00800           0
     20159 TIP3     2559     TIP3     H2       HT       0.417000       1.00800           0
     20160 TIP3     2560     TIP3     OH2      OT      -0.834000       15.9994           0
     20161 TIP3     2560     TIP3     H1       HT       0.417000       1.00800           0
     20162 TIP3     2560     TIP3     H2       HT       0.417000       1.00800           0
     20163 TIP3     2561     TIP3     OH2      OT      -0.834000       15.9994           0
     20164 TIP3     2561     TIP3     H1       HT       0.417000       1.00800           0
     20165 TIP3     2561     TIP3     H2       HT       0.417000       1.00800           0
     20166 TIP3     2562     TIP3     OH2      OT      -0.834000       15.9994           0
     20167 TIP3     2562     TIP3     H1       HT       0.417000       1.00800           0
     20168 TIP3     2562     TIP3     H2       HT       0.417000       1.00800           0
     20169 TIP3     2563     TIP3     OH2      OT      -0.834000       15.9994           0
     20170 TIP3     2563     TIP3     H1       HT       0.417000       1.00800           0
     20171 TIP3     2563     TIP3     H2       HT       0.417000       1.00800           0
     20172 TIP3     2564     TIP3     OH2      OT      -0.834000       15.9994           0
     20173 TIP3     2564     TIP3     H1       HT       0.417000       1.00800           0
     20174 TIP3     2564     TIP3     H2       HT       0.417000       1.00800           0
     20175 TIP3     2565     TIP3     OH2      OT      -0.834000       15.9994           0
     20176 TIP3     2565     TIP3     H1       HT       0.417000       1.00800           0
     20177 TIP3     2565     TIP3     H2       HT       0.417000       1.00800           0
     20178 TIP3     2566     TIP3     OH2      OT      -0.834000       15.9994           0
     20179 TIP3     2566     TIP3     H1       HT       0.417000       1.00800           0
     20180 TIP3     2566     TIP3     H2       HT       0.417000       1.00800           0
     20181 TIP3     2567     TIP3     OH2      OT      -0.834000       15.9994           0
     20182 TIP3     2567     TIP3     H1       HT       0.417000       1.00800           0
     20183 TIP3     2567     TIP3     H2       HT       0.417000       1.00800           0
     20184 TIP3     2568     TIP3     OH2      OT      -0.834000       15.9994           0
     20185 TIP3     2568     TIP3     H1       HT       0.417000       1.00800           0
     20186 TIP3     2568     TIP3     H2       HT       0.417000       1.00800           0
     20187 TIP3     2569     TIP3     OH2      OT      -0.834000       15.9994           0
     20188 TIP3     2569     TIP3     H1       HT       0.417000       1.00800           0
     20189 TIP3     2569     TIP3     H2       HT       0.417000       1.00800           0
     20190 TIP3     2570     TIP3     OH2      OT      -0.834000       15.9994           0
     20191 TIP3     2570     TIP3     H1       HT       0.417000       1.00800           0
     20192 TIP3     2570     TIP3     H2       HT       0.417000       1.00800           0
     20193 TIP3     2571     TIP3     OH2      OT      -0.834000       15.9994           0
     20194 TIP3     2571     TIP3     H1       HT       0.417000       1.00800           0
     20195 TIP3     2571     TIP3     H2       HT       0.417000       1.00800           0
     20196 TIP3     2572     TIP3     OH2      OT      -0.834000       15.9994           0
     20197 TIP3     2572     TIP3     H1       HT       0.417000       1.00800           0
     20198 TIP3     2572     TIP3     H2       HT       0.417000       1.00800           0
     20199 TIP3     2573     TIP3     OH2      OT      -0.834000       15.9994           0
     20200 TIP3     2573     TIP3     H1       HT       0.417000       1.00800           0
     20201 TIP3     2573     TIP3     H2       HT       0.417000       1.00800           0
     20202 TIP3     2574     TIP3     OH2      OT      -0.834000       15.9994           0
     20203 TIP3     2574     TIP3     H1       HT       0.417000       1.00800           0
     20204 TIP3     2574     TIP3     H2       HT       0.417000       1.00800           0
     20205 TIP3     2575     TIP3     OH2      OT      -0.834000       15.9994           0
     20206 TIP3     2575     TIP3     H1       HT       0.417000       1.00800           0
     20207 TIP3     2575     TIP3     H2       HT       0.417000       1.00800           0
     20208 TIP3     2576     TIP3     OH2      OT      -0.834000       15.9994           0
     20209 TIP3     2576     TIP3     H1       HT       0.417000       1.00800           0
     20210 TIP3     2576     TIP3     H2       HT       0.417000       1.00800           0
     20211 TIP3     2577     TIP3     OH2      OT      -0.834000       15.9994           0
     20212 TIP3     2577     TIP3     H1       HT       0.417000       1.00800           0
     20213 TIP3     2577     TIP3     H2       HT       0.417000       1.00800           0
     20214 TIP3     2578     TIP3     OH2      OT      -0.834000       15.9994           0
     20215 TIP3     2578     TIP3     H1       HT       0.417000       1.00800           0
     20216 TIP3     2578     TIP3     H2       HT       0.417000       1.00800           0
     20217 TIP3     2579     TIP3     OH2      OT      -0.834000       15.9994           0
     20218 TIP3     2579     TIP3     H1       HT       0.417000       1.00800           0
     20219 TIP3     2579     TIP3     H2       HT       0.417000       1.00800           0
     20220 TIP3     2580     TIP3     OH2      OT      -0.834000       15.9994           0
     20221 TIP3     2580     TIP3     H1       HT       0.417000       1.00800           0
     20222 TIP3     2580     TIP3     H2       HT       0.417000       1.00800           0
     20223 TIP3     2581     TIP3     OH2      OT      -0.834000       15.9994           0
     20224 TIP3     2581     TIP3     H1       HT       0.417000       1.00800           0
     20225 TIP3     2581     TIP3     H2       HT       0.417000       1.00800           0
     20226 TIP3     2582     TIP3     OH2      OT      -0.834000       15.9994           0
     20227 TIP3     2582     TIP3     H1       HT       0.417000       1.00800           0
     20228 TIP3     2582     TIP3     H2       HT       0.417000       1.00800           0
     20229 TIP3     2583     TIP3     OH2      OT      -0.834000       15.9994           0
     20230 TIP3     2583     TIP3     H1       HT       0.417000       1.00800           0
     20231 TIP3     2583     TIP3     H2       HT       0.417000       1.00800           0
     20232 TIP3     2584     TIP3     OH2      OT      -0.834000       15.9994           0
     20233 TIP3     2584     TIP3     H1       HT       0.417000       1.00800           0
     20234 TIP3     2584     TIP3     H2       HT       0.417000       1.00800           0
     20235 TIP3     2585     TIP3     OH2      OT      -0.834000       15.9994           0
     20236 TIP3     2585     TIP3     H1       HT       0.417000       1.00800           0
     20237 TIP3     2585     TIP3     H2       HT       0.417000       1.00800           0
     20238 TIP3     2586     TIP3     OH2      OT      -0.834000       15.9994           0
     20239 TIP3     2586     TIP3     H1       HT       0.417000       1.00800           0
     20240 TIP3     2586     TIP3     H2       HT       0.417000       1.00800           0
     20241 TIP3     2587     TIP3     OH2      OT      -0.834000       15.9994           0
     20242 TIP3     2587     TIP3     H1       HT       0.417000       1.00800           0
     20243 TIP3     2587     TIP3     H2       HT       0.417000       1.00800           0
     20244 TIP3     2588     TIP3     OH2      OT      -0.834000       15.9994           0
     20245 TIP3     2588     TIP3     H1       HT       0.417000       1.00800           0
     20246 TIP3     2588     TIP3     H2       HT       0.417000       1.00800           0
     20247 TIP3     2589     TIP3     OH2      OT      -0.834000       15.9994           0
     20248 TIP3     2589     TIP3     H1       HT       0.417000       1.00800           0
     20249 TIP3     2589     TIP3     H2       HT       0.417000       1.00800           0
     20250 TIP3     2590     TIP3     OH2      OT      -0.834000       15.9994           0
     20251 TIP3     2590     TIP3     H1       HT       0.417000       1.00800           0
     20252 TIP3     2590     TIP3     H2       HT       0.417000       1.00800           0
     20253 TIP3     2591     TIP3     OH2      OT      -0.834000       15.9994           0
     20254 TIP3     2591     TIP3     H1       HT       0.417000       1.00800           0
     20255 TIP3     2591     TIP3     H2       HT       0.417000       1.00800           0
     20256 TIP3     2592     TIP3     OH2      OT      -0.834000       15.9994           0
     20257 TIP3     2592     TIP3     H1       HT       0.417000       1.00800           0
     20258 TIP3     2592     TIP3     H2       HT       0.417000       1.00800           0
     20259 TIP3     2593     TIP3     OH2      OT      -0.834000       15.9994           0
     20260 TIP3     2593     TIP3     H1       HT       0.417000       1.00800           0
     20261 TIP3     2593     TIP3     H2       HT       0.417000       1.00800           0
     20262 TIP3     2594     TIP3     OH2      OT      -0.834000       15.9994           0
     20263 TIP3     2594     TIP3     H1       HT       0.417000       1.00800           0
     20264 TIP3     2594     TIP3     H2       HT       0.417000       1.00800           0
     20265 TIP3     2595     TIP3     OH2      OT      -0.834000       15.9994           0
     20266 TIP3     2595     TIP3     H1       HT       0.417000       1.00800           0
     20267 TIP3     2595     TIP3     H2       HT       0.417000       1.00800           0
     20268 TIP3     2596     TIP3     OH2      OT      -0.834000       15.9994           0
     20269 TIP3     2596     TIP3     H1       HT       0.417000       1.00800           0
     20270 TIP3     2596     TIP3     H2       HT       0.417000       1.00800           0
     20271 TIP3     2597     TIP3     OH2      OT      -0.834000       15.9994           0
     20272 TIP3     2597     TIP3     H1       HT       0.417000       1.00800           0
     20273 TIP3     2597     TIP3     H2       HT       0.417000       1.00800           0
     20274 TIP3     2598     TIP3     OH2      OT      -0.834000       15.9994           0
     20275 TIP3     2598     TIP3     H1       HT       0.417000       1.00800           0
     20276 TIP3     2598     TIP3     H2       HT       0.417000       1.00800           0
     20277 TIP3     2599     TIP3     OH2      OT      -0.834000       15.9994           0
     20278 TIP3     2599     TIP3     H1       HT       0.417000       1.00800           0
     20279 TIP3     2599     TIP3     H2       HT       0.417000       1.00800           0
     20280 TIP3     2600     TIP3     OH2      OT      -0.834000       15.9994           0
     20281 TIP3     2600     TIP3     H1       HT       0.417000       1.00800           0
     20282 TIP3     2600     TIP3     H2       HT       0.417000       1.00800           0
     20283 TIP3     2601     TIP3     OH2      OT      -0.834000       15.9994           0
     20284 TIP3     2601     TIP3     H1       HT       0.417000       1.00800           0
     20285 TIP3     2601     TIP3     H2       HT       0.417000       1.00800           0
     20286 TIP3     2602     TIP3     OH2      OT      -0.834000       15.9994           0
     20287 TIP3     2602     TIP3     H1       HT       0.417000       1.00800           0
     20288 TIP3     2602     TIP3     H2       HT       0.417000       1.00800           0
     20289 TIP3     2603     TIP3     OH2      OT      -0.834000       15.9994           0
     20290 TIP3     2603     TIP3     H1       HT       0.417000       1.00800           0
     20291 TIP3     2603     TIP3     H2       HT       0.417000       1.00800           0
     20292 TIP3     2604     TIP3     OH2      OT      -0.834000       15.9994           0
     20293 TIP3     2604     TIP3     H1       HT       0.417000       1.00800           0
     20294 TIP3     2604     TIP3     H2       HT       0.417000       1.00800           0
     20295 TIP3     2605     TIP3     OH2      OT      -0.834000       15.9994           0
     20296 TIP3     2605     TIP3     H1       HT       0.417000       1.00800           0
     20297 TIP3     2605     TIP3     H2       HT       0.417000       1.00800           0
     20298 TIP3     2606     TIP3     OH2      OT      -0.834000       15.9994           0
     20299 TIP3     2606     TIP3     H1       HT       0.417000       1.00800           0
     20300 TIP3     2606     TIP3     H2       HT       0.417000       1.00800           0
     20301 TIP3     2607     TIP3     OH2      OT      -0.834000       15.9994           0
     20302 TIP3     2607     TIP3     H1       HT       0.417000       1.00800           0
     20303 TIP3     2607     TIP3     H2       HT       0.417000       1.00800           0
     20304 TIP3     2608     TIP3     OH2      OT      -0.834000       15.9994           0
     20305 TIP3     2608     TIP3     H1       HT       0.417000       1.00800           0
     20306 TIP3     2608     TIP3     H2       HT       0.417000       1.00800           0
     20307 TIP3     2609     TIP3     OH2      OT      -0.834000       15.9994           0
     20308 TIP3     2609     TIP3     H1       HT       0.417000       1.00800           0
     20309 TIP3     2609     TIP3     H2       HT       0.417000       1.00800           0
     20310 TIP3     2610     TIP3     OH2      OT      -0.834000       15.9994           0
     20311 TIP3     2610     TIP3     H1       HT       0.417000       1.00800           0
     20312 TIP3     2610     TIP3     H2       HT       0.417000       1.00800           0
     20313 TIP3     2611     TIP3     OH2      OT      -0.834000       15.9994           0
     20314 TIP3     2611     TIP3     H1       HT       0.417000       1.00800           0
     20315 TIP3     2611     TIP3     H2       HT       0.417000       1.00800           0
     20316 TIP3     2612     TIP3     OH2      OT      -0.834000       15.9994           0
     20317 TIP3     2612     TIP3     H1       HT       0.417000       1.00800           0
     20318 TIP3     2612     TIP3     H2       HT       0.417000       1.00800           0
     20319 TIP3     2613     TIP3     OH2      OT      -0.834000       15.9994           0
     20320 TIP3     2613     TIP3     H1       HT       0.417000       1.00800           0
     20321 TIP3     2613     TIP3     H2       HT       0.417000       1.00800           0
     20322 TIP3     2614     TIP3     OH2      OT      -0.834000       15.9994           0
     20323 TIP3     2614     TIP3     H1       HT       0.417000       1.00800           0
     20324 TIP3     2614     TIP3     H2       HT       0.417000       1.00800           0
     20325 TIP3     2615     TIP3     OH2      OT      -0.834000       15.9994           0
     20326 TIP3     2615     TIP3     H1       HT       0.417000       1.00800           0
     20327 TIP3     2615     TIP3     H2       HT       0.417000       1.00800           0
     20328 TIP3     2616     TIP3     OH2      OT      -0.834000       15.9994           0
     20329 TIP3     2616     TIP3     H1       HT       0.417000       1.00800           0
     20330 TIP3     2616     TIP3     H2       HT       0.417000       1.00800           0
     20331 TIP3     2617     TIP3     OH2      OT      -0.834000       15.9994           0
     20332 TIP3     2617     TIP3     H1       HT       0.417000       1.00800           0
     20333 TIP3     2617     TIP3     H2       HT       0.417000       1.00800           0
     20334 TIP3     2618     TIP3     OH2      OT      -0.834000       15.9994           0
     20335 TIP3     2618     TIP3     H1       HT       0.417000       1.00800           0
     20336 TIP3     2618     TIP3     H2       HT       0.417000       1.00800           0
     20337 TIP3     2619     TIP3     OH2      OT      -0.834000       15.9994           0
     20338 TIP3     2619     TIP3     H1       HT       0.417000       1.00800           0
     20339 TIP3     2619     TIP3     H2       HT       0.417000       1.00800           0
     20340 TIP3     2620     TIP3     OH2      OT      -0.834000       15.9994           0
     20341 TIP3     2620     TIP3     H1       HT       0.417000       1.00800           0
     20342 TIP3     2620     TIP3     H2       HT       0.417000       1.00800           0
     20343 TIP3     2621     TIP3     OH2      OT      -0.834000       15.9994           0
     20344 TIP3     2621     TIP3     H1       HT       0.417000       1.00800           0
     20345 TIP3     2621     TIP3     H2       HT       0.417000       1.00800           0
     20346 TIP3     2622     TIP3     OH2      OT      -0.834000       15.9994           0
     20347 TIP3     2622     TIP3     H1       HT       0.417000       1.00800           0
     20348 TIP3     2622     TIP3     H2       HT       0.417000       1.00800           0
     20349 TIP3     2623     TIP3     OH2      OT      -0.834000       15.9994           0
     20350 TIP3     2623     TIP3     H1       HT       0.417000       1.00800           0
     20351 TIP3     2623     TIP3     H2       HT       0.417000       1.00800           0
     20352 TIP3     2624     TIP3     OH2      OT      -0.834000       15.9994           0
     20353 TIP3     2624     TIP3     H1       HT       0.417000       1.00800           0
     20354 TIP3     2624     TIP3     H2       HT       0.417000       1.00800           0
     20355 TIP3     2625     TIP3     OH2      OT      -0.834000       15.9994           0
     20356 TIP3     2625     TIP3     H1       HT       0.417000       1.00800           0
     20357 TIP3     2625     TIP3     H2       HT       0.417000       1.00800           0
     20358 TIP3     2626     TIP3     OH2      OT      -0.834000       15.9994           0
     20359 TIP3     2626     TIP3     H1       HT       0.417000       1.00800           0
     20360 TIP3     2626     TIP3     H2       HT       0.417000       1.00800           0
     20361 TIP3     2627     TIP3     OH2      OT      -0.834000       15.9994           0
     20362 TIP3     2627     TIP3     H1       HT       0.417000       1.00800           0
     20363 TIP3     2627     TIP3     H2       HT       0.417000       1.00800           0
     20364 TIP3     2628     TIP3     OH2      OT      -0.834000       15.9994           0
     20365 TIP3     2628     TIP3     H1       HT       0.417000       1.00800           0
     20366 TIP3     2628     TIP3     H2       HT       0.417000       1.00800           0
     20367 TIP3     2629     TIP3     OH2      OT      -0.834000       15.9994           0
     20368 TIP3     2629     TIP3     H1       HT       0.417000       1.00800           0
     20369 TIP3     2629     TIP3     H2       HT       0.417000       1.00800           0
     20370 TIP3     2630     TIP3     OH2      OT      -0.834000       15.9994           0
     20371 TIP3     2630     TIP3     H1       HT       0.417000       1.00800           0
     20372 TIP3     2630     TIP3     H2       HT       0.417000       1.00800           0
     20373 TIP3     2631     TIP3     OH2      OT      -0.834000       15.9994           0
     20374 TIP3     2631     TIP3     H1       HT       0.417000       1.00800           0
     20375 TIP3     2631     TIP3     H2       HT       0.417000       1.00800           0
     20376 TIP3     2632     TIP3     OH2      OT      -0.834000       15.9994           0
     20377 TIP3     2632     TIP3     H1       HT       0.417000       1.00800           0
     20378 TIP3     2632     TIP3     H2       HT       0.417000       1.00800           0
     20379 TIP3     2633     TIP3     OH2      OT      -0.834000       15.9994           0
     20380 TIP3     2633     TIP3     H1       HT       0.417000       1.00800           0
     20381 TIP3     2633     TIP3     H2       HT       0.417000       1.00800           0
     20382 TIP3     2634     TIP3     OH2      OT      -0.834000       15.9994           0
     20383 TIP3     2634     TIP3     H1       HT       0.417000       1.00800           0
     20384 TIP3     2634     TIP3     H2       HT       0.417000       1.00800           0
     20385 TIP3     2635     TIP3     OH2      OT      -0.834000       15.9994           0
     20386 TIP3     2635     TIP3     H1       HT       0.417000       1.00800           0
     20387 TIP3     2635     TIP3     H2       HT       0.417000       1.00800           0
     20388 TIP3     2636     TIP3     OH2      OT      -0.834000       15.9994           0
     20389 TIP3     2636     TIP3     H1       HT       0.417000       1.00800           0
     20390 TIP3     2636     TIP3     H2       HT       0.417000       1.00800           0
     20391 TIP3     2637     TIP3     OH2      OT      -0.834000       15.9994           0
     20392 TIP3     2637     TIP3     H1       HT       0.417000       1.00800           0
     20393 TIP3     2637     TIP3     H2       HT       0.417000       1.00800           0
     20394 TIP3     2638     TIP3     OH2      OT      -0.834000       15.9994           0
     20395 TIP3     2638     TIP3     H1       HT       0.417000       1.00800           0
     20396 TIP3     2638     TIP3     H2       HT       0.417000       1.00800           0
     20397 TIP3     2639     TIP3     OH2      OT      -0.834000       15.9994           0
     20398 TIP3     2639     TIP3     H1       HT       0.417000       1.00800           0
     20399 TIP3     2639     TIP3     H2       HT       0.417000       1.00800           0
     20400 TIP3     2640     TIP3     OH2      OT      -0.834000       15.9994           0
     20401 TIP3     2640     TIP3     H1       HT       0.417000       1.00800           0
     20402 TIP3     2640     TIP3     H2       HT       0.417000       1.00800           0
     20403 TIP3     2641     TIP3     OH2      OT      -0.834000       15.9994           0
     20404 TIP3     2641     TIP3     H1       HT       0.417000       1.00800           0
     20405 TIP3     2641     TIP3     H2       HT       0.417000       1.00800           0
     20406 TIP3     2642     TIP3     OH2      OT      -0.834000       15.9994           0
     20407 TIP3     2642     TIP3     H1       HT       0.417000       1.00800           0
     20408 TIP3     2642     TIP3     H2       HT       0.417000       1.00800           0
     20409 TIP3     2643     TIP3     OH2      OT      -0.834000       15.9994           0
     20410 TIP3     2643     TIP3     H1       HT       0.417000       1.00800           0
     20411 TIP3     2643     TIP3     H2       HT       0.417000       1.00800           0
     20412 TIP3     2644     TIP3     OH2      OT      -0.834000       15.9994           0
     20413 TIP3     2644     TIP3     H1       HT       0.417000       1.00800           0
     20414 TIP3     2644     TIP3     H2       HT       0.417000       1.00800           0
     20415 TIP3     2645     TIP3     OH2      OT      -0.834000       15.9994           0
     20416 TIP3     2645     TIP3     H1       HT       0.417000       1.00800           0
     20417 TIP3     2645     TIP3     H2       HT       0.417000       1.00800           0
     20418 TIP3     2646     TIP3     OH2      OT      -0.834000       15.9994           0
     20419 TIP3     2646     TIP3     H1       HT       0.417000       1.00800           0
     20420 TIP3     2646     TIP3     H2       HT       0.417000       1.00800           0
     20421 TIP3     2647     TIP3     OH2      OT      -0.834000       15.9994           0
     20422 TIP3     2647     TIP3     H1       HT       0.417000       1.00800           0
     20423 TIP3     2647     TIP3     H2       HT       0.417000       1.00800           0
     20424 TIP3     2648     TIP3     OH2      OT      -0.834000       15.9994           0
     20425 TIP3     2648     TIP3     H1       HT       0.417000       1.00800           0
     20426 TIP3     2648     TIP3     H2       HT       0.417000       1.00800           0
     20427 TIP3     2649     TIP3     OH2      OT      -0.834000       15.9994           0
     20428 TIP3     2649     TIP3     H1       HT       0.417000       1.00800           0
     20429 TIP3     2649     TIP3     H2       HT       0.417000       1.00800           0
     20430 TIP3     2650     TIP3     OH2      OT      -0.834000       15.9994           0
     20431 TIP3     2650     TIP3     H1       HT       0.417000       1.00800           0
     20432 TIP3     2650     TIP3     H2       HT       0.417000       1.00800           0
     20433 TIP3     2651     TIP3     OH2      OT      -0.834000       15.9994           0
     20434 TIP3     2651     TIP3     H1       HT       0.417000       1.00800           0
     20435 TIP3     2651     TIP3     H2       HT       0.417000       1.00800           0
     20436 TIP3     2652     TIP3     OH2      OT      -0.834000       15.9994           0
     20437 TIP3     2652     TIP3     H1       HT       0.417000       1.00800           0
     20438 TIP3     2652     TIP3     H2       HT       0.417000       1.00800           0
     20439 TIP3     2653     TIP3     OH2      OT      -0.834000       15.9994           0
     20440 TIP3     2653     TIP3     H1       HT       0.417000       1.00800           0
     20441 TIP3     2653     TIP3     H2       HT       0.417000       1.00800           0
     20442 TIP3     2654     TIP3     OH2      OT      -0.834000       15.9994           0
     20443 TIP3     2654     TIP3     H1       HT       0.417000       1.00800           0
     20444 TIP3     2654     TIP3     H2       HT       0.417000       1.00800           0
     20445 TIP3     2655     TIP3     OH2      OT      -0.834000       15.9994           0
     20446 TIP3     2655     TIP3     H1       HT       0.417000       1.00800           0
     20447 TIP3     2655     TIP3     H2       HT       0.417000       1.00800           0
     20448 TIP3     2656     TIP3     OH2      OT      -0.834000       15.9994           0
     20449 TIP3     2656     TIP3     H1       HT       0.417000       1.00800           0
     20450 TIP3     2656     TIP3     H2       HT       0.417000       1.00800           0
     20451 TIP3     2657     TIP3     OH2      OT      -0.834000       15.9994           0
     20452 TIP3     2657     TIP3     H1       HT       0.417000       1.00800           0
     20453 TIP3     2657     TIP3     H2       HT       0.417000       1.00800           0
     20454 TIP3     2658     TIP3     OH2      OT      -0.834000       15.9994           0
     20455 TIP3     2658     TIP3     H1       HT       0.417000       1.00800           0
     20456 TIP3     2658     TIP3     H2       HT       0.417000       1.00800           0
     20457 TIP3     2659     TIP3     OH2      OT      -0.834000       15.9994           0
     20458 TIP3     2659     TIP3     H1       HT       0.417000       1.00800           0
     20459 TIP3     2659     TIP3     H2       HT       0.417000       1.00800           0
     20460 TIP3     2660     TIP3     OH2      OT      -0.834000       15.9994           0
     20461 TIP3     2660     TIP3     H1       HT       0.417000       1.00800           0
     20462 TIP3     2660     TIP3     H2       HT       0.417000       1.00800           0
     20463 TIP3     2661     TIP3     OH2      OT      -0.834000       15.9994           0
     20464 TIP3     2661     TIP3     H1       HT       0.417000       1.00800           0
     20465 TIP3     2661     TIP3     H2       HT       0.417000       1.00800           0
     20466 TIP3     2662     TIP3     OH2      OT      -0.834000       15.9994           0
     20467 TIP3     2662     TIP3     H1       HT       0.417000       1.00800           0
     20468 TIP3     2662     TIP3     H2       HT       0.417000       1.00800           0
     20469 TIP3     2663     TIP3     OH2      OT      -0.834000       15.9994           0
     20470 TIP3     2663     TIP3     H1       HT       0.417000       1.00800           0
     20471 TIP3     2663     TIP3     H2       HT       0.417000       1.00800           0
     20472 TIP3     2664     TIP3     OH2      OT      -0.834000       15.9994           0
     20473 TIP3     2664     TIP3     H1       HT       0.417000       1.00800           0
     20474 TIP3     2664     TIP3     H2       HT       0.417000       1.00800           0
     20475 TIP3     2665     TIP3     OH2      OT      -0.834000       15.9994           0
     20476 TIP3     2665     TIP3     H1       HT       0.417000       1.00800           0
     20477 TIP3     2665     TIP3     H2       HT       0.417000       1.00800           0
     20478 TIP3     2666     TIP3     OH2      OT      -0.834000       15.9994           0
     20479 TIP3     2666     TIP3     H1       HT       0.417000       1.00800           0
     20480 TIP3     2666     TIP3     H2       HT       0.417000       1.00800           0
     20481 TIP3     2667     TIP3     OH2      OT      -0.834000       15.9994           0
     20482 TIP3     2667     TIP3     H1       HT       0.417000       1.00800           0
     20483 TIP3     2667     TIP3     H2       HT       0.417000       1.00800           0
     20484 TIP3     2668     TIP3     OH2      OT      -0.834000       15.9994           0
     20485 TIP3     2668     TIP3     H1       HT       0.417000       1.00800           0
     20486 TIP3     2668     TIP3     H2       HT       0.417000       1.00800           0
     20487 TIP3     2669     TIP3     OH2      OT      -0.834000       15.9994           0
     20488 TIP3     2669     TIP3     H1       HT       0.417000       1.00800           0
     20489 TIP3     2669     TIP3     H2       HT       0.417000       1.00800           0
     20490 TIP3     2670     TIP3     OH2      OT      -0.834000       15.9994           0
     20491 TIP3     2670     TIP3     H1       HT       0.417000       1.00800           0
     20492 TIP3     2670     TIP3     H2       HT       0.417000       1.00800           0
     20493 TIP3     2671     TIP3     OH2      OT      -0.834000       15.9994           0
     20494 TIP3     2671     TIP3     H1       HT       0.417000       1.00800           0
     20495 TIP3     2671     TIP3     H2       HT       0.417000       1.00800           0
     20496 TIP3     2672     TIP3     OH2      OT      -0.834000       15.9994           0
     20497 TIP3     2672     TIP3     H1       HT       0.417000       1.00800           0
     20498 TIP3     2672     TIP3     H2       HT       0.417000       1.00800           0
     20499 TIP3     2673     TIP3     OH2      OT      -0.834000       15.9994           0
     20500 TIP3     2673     TIP3     H1       HT       0.417000       1.00800           0
     20501 TIP3     2673     TIP3     H2       HT       0.417000       1.00800           0
     20502 TIP3     2674     TIP3     OH2      OT      -0.834000       15.9994           0
     20503 TIP3     2674     TIP3     H1       HT       0.417000       1.00800           0
     20504 TIP3     2674     TIP3     H2       HT       0.417000       1.00800           0
     20505 TIP3     2675     TIP3     OH2      OT      -0.834000       15.9994           0
     20506 TIP3     2675     TIP3     H1       HT       0.417000       1.00800           0
     20507 TIP3     2675     TIP3     H2       HT       0.417000       1.00800           0
     20508 TIP3     2676     TIP3     OH2      OT      -0.834000       15.9994           0
     20509 TIP3     2676     TIP3     H1       HT       0.417000       1.00800           0
     20510 TIP3     2676     TIP3     H2       HT       0.417000       1.00800           0
     20511 TIP3     2677     TIP3     OH2      OT      -0.834000       15.9994           0
     20512 TIP3     2677     TIP3     H1       HT       0.417000       1.00800           0
     20513 TIP3     2677     TIP3     H2       HT       0.417000       1.00800           0
     20514 TIP3     2678     TIP3     OH2      OT      -0.834000       15.9994           0
     20515 TIP3     2678     TIP3     H1       HT       0.417000       1.00800           0
     20516 TIP3     2678     TIP3     H2       HT       0.417000       1.00800           0
     20517 TIP3     2679     TIP3     OH2      OT      -0.834000       15.9994           0
     20518 TIP3     2679     TIP3     H1       HT       0.417000       1.00800           0
     20519 TIP3     2679     TIP3     H2       HT       0.417000       1.00800           0
     20520 TIP3     2680     TIP3     OH2      OT      -0.834000       15.9994           0
     20521 TIP3     2680     TIP3     H1       HT       0.417000       1.00800           0
     20522 TIP3     2680     TIP3     H2       HT       0.417000       1.00800           0
     20523 TIP3     2681     TIP3     OH2      OT      -0.834000       15.9994           0
     20524 TIP3     2681     TIP3     H1       HT       0.417000       1.00800           0
     20525 TIP3     2681     TIP3     H2       HT       0.417000       1.00800           0
     20526 TIP3     2682     TIP3     OH2      OT      -0.834000       15.9994           0
     20527 TIP3     2682     TIP3     H1       HT       0.417000       1.00800           0
     20528 TIP3     2682     TIP3     H2       HT       0.417000       1.00800           0
     20529 TIP3     2683     TIP3     OH2      OT      -0.834000       15.9994           0
     20530 TIP3     2683     TIP3     H1       HT       0.417000       1.00800           0
     20531 TIP3     2683     TIP3     H2       HT       0.417000       1.00800           0
     20532 TIP3     2684     TIP3     OH2      OT      -0.834000       15.9994           0
     20533 TIP3     2684     TIP3     H1       HT       0.417000       1.00800           0
     20534 TIP3     2684     TIP3     H2       HT       0.417000       1.00800           0
     20535 TIP3     2685     TIP3     OH2      OT      -0.834000       15.9994           0
     20536 TIP3     2685     TIP3     H1       HT       0.417000       1.00800           0
     20537 TIP3     2685     TIP3     H2       HT       0.417000       1.00800           0
     20538 TIP3     2686     TIP3     OH2      OT      -0.834000       15.9994           0
     20539 TIP3     2686     TIP3     H1       HT       0.417000       1.00800           0
     20540 TIP3     2686     TIP3     H2       HT       0.417000       1.00800           0
     20541 TIP3     2687     TIP3     OH2      OT      -0.834000       15.9994           0
     20542 TIP3     2687     TIP3     H1       HT       0.417000       1.00800           0
     20543 TIP3     2687     TIP3     H2       HT       0.417000       1.00800           0
     20544 TIP3     2688     TIP3     OH2      OT      -0.834000       15.9994           0
     20545 TIP3     2688     TIP3     H1       HT       0.417000       1.00800           0
     20546 TIP3     2688     TIP3     H2       HT       0.417000       1.00800           0
     20547 TIP3     2689     TIP3     OH2      OT      -0.834000       15.9994           0
     20548 TIP3     2689     TIP3     H1       HT       0.417000       1.00800           0
     20549 TIP3     2689     TIP3     H2       HT       0.417000       1.00800           0
     20550 TIP3     2690     TIP3     OH2      OT      -0.834000       15.9994           0
     20551 TIP3     2690     TIP3     H1       HT       0.417000       1.00800           0
     20552 TIP3     2690     TIP3     H2       HT       0.417000       1.00800           0
     20553 TIP3     2691     TIP3     OH2      OT      -0.834000       15.9994           0
     20554 TIP3     2691     TIP3     H1       HT       0.417000       1.00800           0
     20555 TIP3     2691     TIP3     H2       HT       0.417000       1.00800           0
     20556 TIP3     2692     TIP3     OH2      OT      -0.834000       15.9994           0
     20557 TIP3     2692     TIP3     H1       HT       0.417000       1.00800           0
     20558 TIP3     2692     TIP3     H2       HT       0.417000       1.00800           0
     20559 TIP3     2693     TIP3     OH2      OT      -0.834000       15.9994           0
     20560 TIP3     2693     TIP3     H1       HT       0.417000       1.00800           0
     20561 TIP3     2693     TIP3     H2       HT       0.417000       1.00800           0
     20562 TIP3     2694     TIP3     OH2      OT      -0.834000       15.9994           0
     20563 TIP3     2694     TIP3     H1       HT       0.417000       1.00800           0
     20564 TIP3     2694     TIP3     H2       HT       0.417000       1.00800           0
     20565 TIP3     2695     TIP3     OH2      OT      -0.834000       15.9994           0
     20566 TIP3     2695     TIP3     H1       HT       0.417000       1.00800           0
     20567 TIP3     2695     TIP3     H2       HT       0.417000       1.00800           0
     20568 TIP3     2696     TIP3     OH2      OT      -0.834000       15.9994           0
     20569 TIP3     2696     TIP3     H1       HT       0.417000       1.00800           0
     20570 TIP3     2696     TIP3     H2       HT       0.417000       1.00800           0
     20571 TIP3     2697     TIP3     OH2      OT      -0.834000       15.9994           0
     20572 TIP3     2697     TIP3     H1       HT       0.417000       1.00800           0
     20573 TIP3     2697     TIP3     H2       HT       0.417000       1.00800           0
     20574 TIP3     2698     TIP3     OH2      OT      -0.834000       15.9994           0
     20575 TIP3     2698     TIP3     H1       HT       0.417000       1.00800           0
     20576 TIP3     2698     TIP3     H2       HT       0.417000       1.00800           0
     20577 TIP3     2699     TIP3     OH2      OT      -0.834000       15.9994           0
     20578 TIP3     2699     TIP3     H1       HT       0.417000       1.00800           0
     20579 TIP3     2699     TIP3     H2       HT       0.417000       1.00800           0
     20580 TIP3     2700     TIP3     OH2      OT      -0.834000       15.9994           0
     20581 TIP3     2700     TIP3     H1       HT       0.417000       1.00800           0
     20582 TIP3     2700     TIP3     H2       HT       0.417000       1.00800           0
     20583 TIP3     2701     TIP3     OH2      OT      -0.834000       15.9994           0
     20584 TIP3     2701     TIP3     H1       HT       0.417000       1.00800           0
     20585 TIP3     2701     TIP3     H2       HT       0.417000       1.00800           0
     20586 TIP3     2702     TIP3     OH2      OT      -0.834000       15.9994           0
     20587 TIP3     2702     TIP3     H1       HT       0.417000       1.00800           0
     20588 TIP3     2702     TIP3     H2       HT       0.417000       1.00800           0
     20589 TIP3     2703     TIP3     OH2      OT      -0.834000       15.9994           0
     20590 TIP3     2703     TIP3     H1       HT       0.417000       1.00800           0
     20591 TIP3     2703     TIP3     H2       HT       0.417000       1.00800           0
     20592 TIP3     2704     TIP3     OH2      OT      -0.834000       15.9994           0
     20593 TIP3     2704     TIP3     H1       HT       0.417000       1.00800           0
     20594 TIP3     2704     TIP3     H2       HT       0.417000       1.00800           0
     20595 TIP3     2705     TIP3     OH2      OT      -0.834000       15.9994           0
     20596 TIP3     2705     TIP3     H1       HT       0.417000       1.00800           0
     20597 TIP3     2705     TIP3     H2       HT       0.417000       1.00800           0
     20598 TIP3     2706     TIP3     OH2      OT      -0.834000       15.9994           0
     20599 TIP3     2706     TIP3     H1       HT       0.417000       1.00800           0
     20600 TIP3     2706     TIP3     H2       HT       0.417000       1.00800           0
     20601 TIP3     2707     TIP3     OH2      OT      -0.834000       15.9994           0
     20602 TIP3     2707     TIP3     H1       HT       0.417000       1.00800           0
     20603 TIP3     2707     TIP3     H2       HT       0.417000       1.00800           0
     20604 TIP3     2708     TIP3     OH2      OT      -0.834000       15.9994           0
     20605 TIP3     2708     TIP3     H1       HT       0.417000       1.00800           0
     20606 TIP3     2708     TIP3     H2       HT       0.417000       1.00800           0
     20607 TIP3     2709     TIP3     OH2      OT      -0.834000       15.9994           0
     20608 TIP3     2709     TIP3     H1       HT       0.417000       1.00800           0
     20609 TIP3     2709     TIP3     H2       HT       0.417000       1.00800           0
     20610 TIP3     2710     TIP3     OH2      OT      -0.834000       15.9994           0
     20611 TIP3     2710     TIP3     H1       HT       0.417000       1.00800           0
     20612 TIP3     2710     TIP3     H2       HT       0.417000       1.00800           0
     20613 TIP3     2711     TIP3     OH2      OT      -0.834000       15.9994           0
     20614 TIP3     2711     TIP3     H1       HT       0.417000       1.00800           0
     20615 TIP3     2711     TIP3     H2       HT       0.417000       1.00800           0
     20616 TIP3     2712     TIP3     OH2      OT      -0.834000       15.9994           0
     20617 TIP3     2712     TIP3     H1       HT       0.417000       1.00800           0
     20618 TIP3     2712     TIP3     H2       HT       0.417000       1.00800           0
     20619 TIP3     2713     TIP3     OH2      OT      -0.834000       15.9994           0
     20620 TIP3     2713     TIP3     H1       HT       0.417000       1.00800           0
     20621 TIP3     2713     TIP3     H2       HT       0.417000       1.00800           0
     20622 TIP3     2714     TIP3     OH2      OT      -0.834000       15.9994           0
     20623 TIP3     2714     TIP3     H1       HT       0.417000       1.00800           0
     20624 TIP3     2714     TIP3     H2       HT       0.417000       1.00800           0
     20625 TIP3     2715     TIP3     OH2      OT      -0.834000       15.9994           0
     20626 TIP3     2715     TIP3     H1       HT       0.417000       1.00800           0
     20627 TIP3     2715     TIP3     H2       HT       0.417000       1.00800           0
     20628 TIP3     2716     TIP3     OH2      OT      -0.834000       15.9994           0
     20629 TIP3     2716     TIP3     H1       HT       0.417000       1.00800           0
     20630 TIP3     2716     TIP3     H2       HT       0.417000       1.00800           0
     20631 TIP3     2717     TIP3     OH2      OT      -0.834000       15.9994           0
     20632 TIP3     2717     TIP3     H1       HT       0.417000       1.00800           0
     20633 TIP3     2717     TIP3     H2       HT       0.417000       1.00800           0
     20634 TIP3     2718     TIP3     OH2      OT      -0.834000       15.9994           0
     20635 TIP3     2718     TIP3     H1       HT       0.417000       1.00800           0
     20636 TIP3     2718     TIP3     H2       HT       0.417000       1.00800           0
     20637 TIP3     2719     TIP3     OH2      OT      -0.834000       15.9994           0
     20638 TIP3     2719     TIP3     H1       HT       0.417000       1.00800           0
     20639 TIP3     2719     TIP3     H2       HT       0.417000       1.00800           0
     20640 TIP3     2720     TIP3     OH2      OT      -0.834000       15.9994           0
     20641 TIP3     2720     TIP3     H1       HT       0.417000       1.00800           0
     20642 TIP3     2720     TIP3     H2       HT       0.417000       1.00800           0
     20643 TIP3     2721     TIP3     OH2      OT      -0.834000       15.9994           0
     20644 TIP3     2721     TIP3     H1       HT       0.417000       1.00800           0
     20645 TIP3     2721     TIP3     H2       HT       0.417000       1.00800           0
     20646 TIP3     2722     TIP3     OH2      OT      -0.834000       15.9994           0
     20647 TIP3     2722     TIP3     H1       HT       0.417000       1.00800           0
     20648 TIP3     2722     TIP3     H2       HT       0.417000       1.00800           0
     20649 TIP3     2723     TIP3     OH2      OT      -0.834000       15.9994           0
     20650 TIP3     2723     TIP3     H1       HT       0.417000       1.00800           0
     20651 TIP3     2723     TIP3     H2       HT       0.417000       1.00800           0
     20652 TIP3     2724     TIP3     OH2      OT      -0.834000       15.9994           0
     20653 TIP3     2724     TIP3     H1       HT       0.417000       1.00800           0
     20654 TIP3     2724     TIP3     H2       HT       0.417000       1.00800           0
     20655 TIP3     2725     TIP3     OH2      OT      -0.834000       15.9994           0
     20656 TIP3     2725     TIP3     H1       HT       0.417000       1.00800           0
     20657 TIP3     2725     TIP3     H2       HT       0.417000       1.00800           0
     20658 TIP3     2726     TIP3     OH2      OT      -0.834000       15.9994           0
     20659 TIP3     2726     TIP3     H1       HT       0.417000       1.00800           0
     20660 TIP3     2726     TIP3     H2       HT       0.417000       1.00800           0
     20661 TIP3     2727     TIP3     OH2      OT      -0.834000       15.9994           0
     20662 TIP3     2727     TIP3     H1       HT       0.417000       1.00800           0
     20663 TIP3     2727     TIP3     H2       HT       0.417000       1.00800           0
     20664 TIP3     2728     TIP3     OH2      OT      -0.834000       15.9994           0
     20665 TIP3     2728     TIP3     H1       HT       0.417000       1.00800           0
     20666 TIP3     2728     TIP3     H2       HT       0.417000       1.00800           0
     20667 TIP3     2729     TIP3     OH2      OT      -0.834000       15.9994           0
     20668 TIP3     2729     TIP3     H1       HT       0.417000       1.00800           0
     20669 TIP3     2729     TIP3     H2       HT       0.417000       1.00800           0
     20670 TIP3     2730     TIP3     OH2      OT      -0.834000       15.9994           0
     20671 TIP3     2730     TIP3     H1       HT       0.417000       1.00800           0
     20672 TIP3     2730     TIP3     H2       HT       0.417000       1.00800           0
     20673 TIP3     2731     TIP3     OH2      OT      -0.834000       15.9994           0
     20674 TIP3     2731     TIP3     H1       HT       0.417000       1.00800           0
     20675 TIP3     2731     TIP3     H2       HT       0.417000       1.00800           0
     20676 TIP3     2732     TIP3     OH2      OT      -0.834000       15.9994           0
     20677 TIP3     2732     TIP3     H1       HT       0.417000       1.00800           0
     20678 TIP3     2732     TIP3     H2       HT       0.417000       1.00800           0
     20679 TIP3     2733     TIP3     OH2      OT      -0.834000       15.9994           0
     20680 TIP3     2733     TIP3     H1       HT       0.417000       1.00800           0
     20681 TIP3     2733     TIP3     H2       HT       0.417000       1.00800           0
     20682 TIP3     2734     TIP3     OH2      OT      -0.834000       15.9994           0
     20683 TIP3     2734     TIP3     H1       HT       0.417000       1.00800           0
     20684 TIP3     2734     TIP3     H2       HT       0.417000       1.00800           0
     20685 TIP3     2735     TIP3     OH2      OT      -0.834000       15.9994           0
     20686 TIP3     2735     TIP3     H1       HT       0.417000       1.00800           0
     20687 TIP3     2735     TIP3     H2       HT       0.417000       1.00800           0
     20688 TIP3     2736     TIP3     OH2      OT      -0.834000       15.9994           0
     20689 TIP3     2736     TIP3     H1       HT       0.417000       1.00800           0
     20690 TIP3     2736     TIP3     H2       HT       0.417000       1.00800           0
     20691 TIP3     2737     TIP3     OH2      OT      -0.834000       15.9994           0
     20692 TIP3     2737     TIP3     H1       HT       0.417000       1.00800           0
     20693 TIP3     2737     TIP3     H2       HT       0.417000       1.00800           0
     20694 TIP3     2738     TIP3     OH2      OT      -0.834000       15.9994           0
     20695 TIP3     2738     TIP3     H1       HT       0.417000       1.00800           0
     20696 TIP3     2738     TIP3     H2       HT       0.417000       1.00800           0
     20697 TIP3     2739     TIP3     OH2      OT      -0.834000       15.9994           0
     20698 TIP3     2739     TIP3     H1       HT       0.417000       1.00800           0
     20699 TIP3     2739     TIP3     H2       HT       0.417000       1.00800           0
     20700 TIP3     2740     TIP3     OH2      OT      -0.834000       15.9994           0
     20701 TIP3     2740     TIP3     H1       HT       0.417000       1.00800           0
     20702 TIP3     2740     TIP3     H2       HT       0.417000       1.00800           0
     20703 TIP3     2741     TIP3     OH2      OT      -0.834000       15.9994           0
     20704 TIP3     2741     TIP3     H1       HT       0.417000       1.00800           0
     20705 TIP3     2741     TIP3     H2       HT       0.417000       1.00800           0
     20706 TIP3     2742     TIP3     OH2      OT      -0.834000       15.9994           0
     20707 TIP3     2742     TIP3     H1       HT       0.417000       1.00800           0
     20708 TIP3     2742     TIP3     H2       HT       0.417000       1.00800           0
     20709 TIP3     2743     TIP3     OH2      OT      -0.834000       15.9994           0
     20710 TIP3     2743     TIP3     H1       HT       0.417000       1.00800           0
     20711 TIP3     2743     TIP3     H2       HT       0.417000       1.00800           0
     20712 TIP3     2744     TIP3     OH2      OT      -0.834000       15.9994           0
     20713 TIP3     2744     TIP3     H1       HT       0.417000       1.00800           0
     20714 TIP3     2744     TIP3     H2       HT       0.417000       1.00800           0
     20715 TIP3     2745     TIP3     OH2      OT      -0.834000       15.9994           0
     20716 TIP3     2745     TIP3     H1       HT       0.417000       1.00800           0
     20717 TIP3     2745     TIP3     H2       HT       0.417000       1.00800           0
     20718 TIP3     2746     TIP3     OH2      OT      -0.834000       15.9994           0
     20719 TIP3     2746     TIP3     H1       HT       0.417000       1.00800           0
     20720 TIP3     2746     TIP3     H2       HT       0.417000       1.00800           0
     20721 TIP3     2747     TIP3     OH2      OT      -0.834000       15.9994           0
     20722 TIP3     2747     TIP3     H1       HT       0.417000       1.00800           0
     20723 TIP3     2747     TIP3     H2       HT       0.417000       1.00800           0
     20724 TIP3     2748     TIP3     OH2      OT      -0.834000       15.9994           0
     20725 TIP3     2748     TIP3     H1       HT       0.417000       1.00800           0
     20726 TIP3     2748     TIP3     H2       HT       0.417000       1.00800           0
     20727 TIP3     2749     TIP3     OH2      OT      -0.834000       15.9994           0
     20728 TIP3     2749     TIP3     H1       HT       0.417000       1.00800           0
     20729 TIP3     2749     TIP3     H2       HT       0.417000       1.00800           0
     20730 TIP3     2750     TIP3     OH2      OT      -0.834000       15.9994           0
     20731 TIP3     2750     TIP3     H1       HT       0.417000       1.00800           0
     20732 TIP3     2750     TIP3     H2       HT       0.417000       1.00800           0
     20733 TIP3     2751     TIP3     OH2      OT      -0.834000       15.9994           0
     20734 TIP3     2751     TIP3     H1       HT       0.417000       1.00800           0
     20735 TIP3     2751     TIP3     H2       HT       0.417000       1.00800           0
     20736 TIP3     2752     TIP3     OH2      OT      -0.834000       15.9994           0
     20737 TIP3     2752     TIP3     H1       HT       0.417000       1.00800           0
     20738 TIP3     2752     TIP3     H2       HT       0.417000       1.00800           0
     20739 TIP3     2753     TIP3     OH2      OT      -0.834000       15.9994           0
     20740 TIP3     2753     TIP3     H1       HT       0.417000       1.00800           0
     20741 TIP3     2753     TIP3     H2       HT       0.417000       1.00800           0
     20742 TIP3     2754     TIP3     OH2      OT      -0.834000       15.9994           0
     20743 TIP3     2754     TIP3     H1       HT       0.417000       1.00800           0
     20744 TIP3     2754     TIP3     H2       HT       0.417000       1.00800           0
     20745 TIP3     2755     TIP3     OH2      OT      -0.834000       15.9994           0
     20746 TIP3     2755     TIP3     H1       HT       0.417000       1.00800           0
     20747 TIP3     2755     TIP3     H2       HT       0.417000       1.00800           0
     20748 TIP3     2756     TIP3     OH2      OT      -0.834000       15.9994           0
     20749 TIP3     2756     TIP3     H1       HT       0.417000       1.00800           0
     20750 TIP3     2756     TIP3     H2       HT       0.417000       1.00800           0
     20751 TIP3     2757     TIP3     OH2      OT      -0.834000       15.9994           0
     20752 TIP3     2757     TIP3     H1       HT       0.417000       1.00800           0
     20753 TIP3     2757     TIP3     H2       HT       0.417000       1.00800           0
     20754 TIP3     2758     TIP3     OH2      OT      -0.834000       15.9994           0
     20755 TIP3     2758     TIP3     H1       HT       0.417000       1.00800           0
     20756 TIP3     2758     TIP3     H2       HT       0.417000       1.00800           0
     20757 TIP3     2759     TIP3     OH2      OT      -0.834000       15.9994           0
     20758 TIP3     2759     TIP3     H1       HT       0.417000       1.00800           0
     20759 TIP3     2759     TIP3     H2       HT       0.417000       1.00800           0
     20760 TIP3     2760     TIP3     OH2      OT      -0.834000       15.9994           0
     20761 TIP3     2760     TIP3     H1       HT       0.417000       1.00800           0
     20762 TIP3     2760     TIP3     H2       HT       0.417000       1.00800           0
     20763 TIP3     2761     TIP3     OH2      OT      -0.834000       15.9994           0
     20764 TIP3     2761     TIP3     H1       HT       0.417000       1.00800           0
     20765 TIP3     2761     TIP3     H2       HT       0.417000       1.00800           0
     20766 TIP3     2762     TIP3     OH2      OT      -0.834000       15.9994           0
     20767 TIP3     2762     TIP3     H1       HT       0.417000       1.00800           0
     20768 TIP3     2762     TIP3     H2       HT       0.417000       1.00800           0
     20769 TIP3     2763     TIP3     OH2      OT      -0.834000       15.9994           0
     20770 TIP3     2763     TIP3     H1       HT       0.417000       1.00800           0
     20771 TIP3     2763     TIP3     H2       HT       0.417000       1.00800           0
     20772 TIP3     2764     TIP3     OH2      OT      -0.834000       15.9994           0
     20773 TIP3     2764     TIP3     H1       HT       0.417000       1.00800           0
     20774 TIP3     2764     TIP3     H2       HT       0.417000       1.00800           0
     20775 TIP3     2765     TIP3     OH2      OT      -0.834000       15.9994           0
     20776 TIP3     2765     TIP3     H1       HT       0.417000       1.00800           0
     20777 TIP3     2765     TIP3     H2       HT       0.417000       1.00800           0
     20778 TIP3     2766     TIP3     OH2      OT      -0.834000       15.9994           0
     20779 TIP3     2766     TIP3     H1       HT       0.417000       1.00800           0
     20780 TIP3     2766     TIP3     H2       HT       0.417000       1.00800           0
     20781 TIP3     2767     TIP3     OH2      OT      -0.834000       15.9994           0
     20782 TIP3     2767     TIP3     H1       HT       0.417000       1.00800           0
     20783 TIP3     2767     TIP3     H2       HT       0.417000       1.00800           0
     20784 TIP3     2768     TIP3     OH2      OT      -0.834000       15.9994           0
     20785 TIP3     2768     TIP3     H1       HT       0.417000       1.00800           0
     20786 TIP3     2768     TIP3     H2       HT       0.417000       1.00800           0
     20787 TIP3     2769     TIP3     OH2      OT      -0.834000       15.9994           0
     20788 TIP3     2769     TIP3     H1       HT       0.417000       1.00800           0
     20789 TIP3     2769     TIP3     H2       HT       0.417000       1.00800           0
     20790 TIP3     2770     TIP3     OH2      OT      -0.834000       15.9994           0
     20791 TIP3     2770     TIP3     H1       HT       0.417000       1.00800           0
     20792 TIP3     2770     TIP3     H2       HT       0.417000       1.00800           0
     20793 TIP3     2771     TIP3     OH2      OT      -0.834000       15.9994           0
     20794 TIP3     2771     TIP3     H1       HT       0.417000       1.00800           0
     20795 TIP3     2771     TIP3     H2       HT       0.417000       1.00800           0
     20796 TIP3     2772     TIP3     OH2      OT      -0.834000       15.9994           0
     20797 TIP3     2772     TIP3     H1       HT       0.417000       1.00800           0
     20798 TIP3     2772     TIP3     H2       HT       0.417000       1.00800           0
     20799 TIP3     2773     TIP3     OH2      OT      -0.834000       15.9994           0
     20800 TIP3     2773     TIP3     H1       HT       0.417000       1.00800           0
     20801 TIP3     2773     TIP3     H2       HT       0.417000       1.00800           0
     20802 TIP3     2774     TIP3     OH2      OT      -0.834000       15.9994           0
     20803 TIP3     2774     TIP3     H1       HT       0.417000       1.00800           0
     20804 TIP3     2774     TIP3     H2       HT       0.417000       1.00800           0
     20805 TIP3     2775     TIP3     OH2      OT      -0.834000       15.9994           0
     20806 TIP3     2775     TIP3     H1       HT       0.417000       1.00800           0
     20807 TIP3     2775     TIP3     H2       HT       0.417000       1.00800           0
     20808 TIP3     2776     TIP3     OH2      OT      -0.834000       15.9994           0
     20809 TIP3     2776     TIP3     H1       HT       0.417000       1.00800           0
     20810 TIP3     2776     TIP3     H2       HT       0.417000       1.00800           0
     20811 TIP3     2777     TIP3     OH2      OT      -0.834000       15.9994           0
     20812 TIP3     2777     TIP3     H1       HT       0.417000       1.00800           0
     20813 TIP3     2777     TIP3     H2       HT       0.417000       1.00800           0
     20814 TIP3     2778     TIP3     OH2      OT      -0.834000       15.9994           0
     20815 TIP3     2778     TIP3     H1       HT       0.417000       1.00800           0
     20816 TIP3     2778     TIP3     H2       HT       0.417000       1.00800           0
     20817 TIP3     2779     TIP3     OH2      OT      -0.834000       15.9994           0
     20818 TIP3     2779     TIP3     H1       HT       0.417000       1.00800           0
     20819 TIP3     2779     TIP3     H2       HT       0.417000       1.00800           0
     20820 TIP3     2780     TIP3     OH2      OT      -0.834000       15.9994           0
     20821 TIP3     2780     TIP3     H1       HT       0.417000       1.00800           0
     20822 TIP3     2780     TIP3     H2       HT       0.417000       1.00800           0
     20823 TIP3     2781     TIP3     OH2      OT      -0.834000       15.9994           0
     20824 TIP3     2781     TIP3     H1       HT       0.417000       1.00800           0
     20825 TIP3     2781     TIP3     H2       HT       0.417000       1.00800           0
     20826 TIP3     2782     TIP3     OH2      OT      -0.834000       15.9994           0
     20827 TIP3     2782     TIP3     H1       HT       0.417000       1.00800           0
     20828 TIP3     2782     TIP3     H2       HT       0.417000       1.00800           0
     20829 TIP3     2783     TIP3     OH2      OT      -0.834000       15.9994           0
     20830 TIP3     2783     TIP3     H1       HT       0.417000       1.00800           0
     20831 TIP3     2783     TIP3     H2       HT       0.417000       1.00800           0
     20832 TIP3     2784     TIP3     OH2      OT      -0.834000       15.9994           0
     20833 TIP3     2784     TIP3     H1       HT       0.417000       1.00800           0
     20834 TIP3     2784     TIP3     H2       HT       0.417000       1.00800           0
     20835 TIP3     2785     TIP3     OH2      OT      -0.834000       15.9994           0
     20836 TIP3     2785     TIP3     H1       HT       0.417000       1.00800           0
     20837 TIP3     2785     TIP3     H2       HT       0.417000       1.00800           0
     20838 TIP3     2786     TIP3     OH2      OT      -0.834000       15.9994           0
     20839 TIP3     2786     TIP3     H1       HT       0.417000       1.00800           0
     20840 TIP3     2786     TIP3     H2       HT       0.417000       1.00800           0
     20841 TIP3     2787     TIP3     OH2      OT      -0.834000       15.9994           0
     20842 TIP3     2787     TIP3     H1       HT       0.417000       1.00800           0
     20843 TIP3     2787     TIP3     H2       HT       0.417000       1.00800           0
     20844 TIP3     2788     TIP3     OH2      OT      -0.834000       15.9994           0
     20845 TIP3     2788     TIP3     H1       HT       0.417000       1.00800           0
     20846 TIP3     2788     TIP3     H2       HT       0.417000       1.00800           0
     20847 TIP3     2789     TIP3     OH2      OT      -0.834000       15.9994           0
     20848 TIP3     2789     TIP3     H1       HT       0.417000       1.00800           0
     20849 TIP3     2789     TIP3     H2       HT       0.417000       1.00800           0
     20850 TIP3     2790     TIP3     OH2      OT      -0.834000       15.9994           0
     20851 TIP3     2790     TIP3     H1       HT       0.417000       1.00800           0
     20852 TIP3     2790     TIP3     H2       HT       0.417000       1.00800           0
     20853 TIP3     2791     TIP3     OH2      OT      -0.834000       15.9994           0
     20854 TIP3     2791     TIP3     H1       HT       0.417000       1.00800           0
     20855 TIP3     2791     TIP3     H2       HT       0.417000       1.00800           0
     20856 TIP3     2792     TIP3     OH2      OT      -0.834000       15.9994           0
     20857 TIP3     2792     TIP3     H1       HT       0.417000       1.00800           0
     20858 TIP3     2792     TIP3     H2       HT       0.417000       1.00800           0
     20859 TIP3     2793     TIP3     OH2      OT      -0.834000       15.9994           0
     20860 TIP3     2793     TIP3     H1       HT       0.417000       1.00800           0
     20861 TIP3     2793     TIP3     H2       HT       0.417000       1.00800           0
     20862 TIP3     2794     TIP3     OH2      OT      -0.834000       15.9994           0
     20863 TIP3     2794     TIP3     H1       HT       0.417000       1.00800           0
     20864 TIP3     2794     TIP3     H2       HT       0.417000       1.00800           0
     20865 TIP3     2795     TIP3     OH2      OT      -0.834000       15.9994           0
     20866 TIP3     2795     TIP3     H1       HT       0.417000       1.00800           0
     20867 TIP3     2795     TIP3     H2       HT       0.417000       1.00800           0
     20868 TIP3     2796     TIP3     OH2      OT      -0.834000       15.9994           0
     20869 TIP3     2796     TIP3     H1       HT       0.417000       1.00800           0
     20870 TIP3     2796     TIP3     H2       HT       0.417000       1.00800           0
     20871 TIP3     2797     TIP3     OH2      OT      -0.834000       15.9994           0
     20872 TIP3     2797     TIP3     H1       HT       0.417000       1.00800           0
     20873 TIP3     2797     TIP3     H2       HT       0.417000       1.00800           0
     20874 TIP3     2798     TIP3     OH2      OT      -0.834000       15.9994           0
     20875 TIP3     2798     TIP3     H1       HT       0.417000       1.00800           0
     20876 TIP3     2798     TIP3     H2       HT       0.417000       1.00800           0
     20877 TIP3     2799     TIP3     OH2      OT      -0.834000       15.9994           0
     20878 TIP3     2799     TIP3     H1       HT       0.417000       1.00800           0
     20879 TIP3     2799     TIP3     H2       HT       0.417000       1.00800           0
     20880 TIP3     2800     TIP3     OH2      OT      -0.834000       15.9994           0
     20881 TIP3     2800     TIP3     H1       HT       0.417000       1.00800           0
     20882 TIP3     2800     TIP3     H2       HT       0.417000       1.00800           0
     20883 TIP3     2801     TIP3     OH2      OT      -0.834000       15.9994           0
     20884 TIP3     2801     TIP3     H1       HT       0.417000       1.00800           0
     20885 TIP3     2801     TIP3     H2       HT       0.417000       1.00800           0
     20886 TIP3     2802     TIP3     OH2      OT      -0.834000       15.9994           0
     20887 TIP3     2802     TIP3     H1       HT       0.417000       1.00800           0
     20888 TIP3     2802     TIP3     H2       HT       0.417000       1.00800           0
     20889 TIP3     2803     TIP3     OH2      OT      -0.834000       15.9994           0
     20890 TIP3     2803     TIP3     H1       HT       0.417000       1.00800           0
     20891 TIP3     2803     TIP3     H2       HT       0.417000       1.00800           0
     20892 TIP3     2804     TIP3     OH2      OT      -0.834000       15.9994           0
     20893 TIP3     2804     TIP3     H1       HT       0.417000       1.00800           0
     20894 TIP3     2804     TIP3     H2       HT       0.417000       1.00800           0
     20895 TIP3     2805     TIP3     OH2      OT      -0.834000       15.9994           0
     20896 TIP3     2805     TIP3     H1       HT       0.417000       1.00800           0
     20897 TIP3     2805     TIP3     H2       HT       0.417000       1.00800           0
     20898 TIP3     2806     TIP3     OH2      OT      -0.834000       15.9994           0
     20899 TIP3     2806     TIP3     H1       HT       0.417000       1.00800           0
     20900 TIP3     2806     TIP3     H2       HT       0.417000       1.00800           0
     20901 TIP3     2807     TIP3     OH2      OT      -0.834000       15.9994           0
     20902 TIP3     2807     TIP3     H1       HT       0.417000       1.00800           0
     20903 TIP3     2807     TIP3     H2       HT       0.417000       1.00800           0
     20904 TIP3     2808     TIP3     OH2      OT      -0.834000       15.9994           0
     20905 TIP3     2808     TIP3     H1       HT       0.417000       1.00800           0
     20906 TIP3     2808     TIP3     H2       HT       0.417000       1.00800           0
     20907 TIP3     2809     TIP3     OH2      OT      -0.834000       15.9994           0
     20908 TIP3     2809     TIP3     H1       HT       0.417000       1.00800           0
     20909 TIP3     2809     TIP3     H2       HT       0.417000       1.00800           0
     20910 TIP3     2810     TIP3     OH2      OT      -0.834000       15.9994           0
     20911 TIP3     2810     TIP3     H1       HT       0.417000       1.00800           0
     20912 TIP3     2810     TIP3     H2       HT       0.417000       1.00800           0
     20913 TIP3     2811     TIP3     OH2      OT      -0.834000       15.9994           0
     20914 TIP3     2811     TIP3     H1       HT       0.417000       1.00800           0
     20915 TIP3     2811     TIP3     H2       HT       0.417000       1.00800           0
     20916 TIP3     2812     TIP3     OH2      OT      -0.834000       15.9994           0
     20917 TIP3     2812     TIP3     H1       HT       0.417000       1.00800           0
     20918 TIP3     2812     TIP3     H2       HT       0.417000       1.00800           0
     20919 TIP3     2813     TIP3     OH2      OT      -0.834000       15.9994           0
     20920 TIP3     2813     TIP3     H1       HT       0.417000       1.00800           0
     20921 TIP3     2813     TIP3     H2       HT       0.417000       1.00800           0
     20922 TIP3     2814     TIP3     OH2      OT      -0.834000       15.9994           0
     20923 TIP3     2814     TIP3     H1       HT       0.417000       1.00800           0
     20924 TIP3     2814     TIP3     H2       HT       0.417000       1.00800           0
     20925 TIP3     2815     TIP3     OH2      OT      -0.834000       15.9994           0
     20926 TIP3     2815     TIP3     H1       HT       0.417000       1.00800           0
     20927 TIP3     2815     TIP3     H2       HT       0.417000       1.00800           0
     20928 TIP3     2816     TIP3     OH2      OT      -0.834000       15.9994           0
     20929 TIP3     2816     TIP3     H1       HT       0.417000       1.00800           0
     20930 TIP3     2816     TIP3     H2       HT       0.417000       1.00800           0
     20931 TIP3     2817     TIP3     OH2      OT      -0.834000       15.9994           0
     20932 TIP3     2817     TIP3     H1       HT       0.417000       1.00800           0
     20933 TIP3     2817     TIP3     H2       HT       0.417000       1.00800           0
     20934 TIP3     2818     TIP3     OH2      OT      -0.834000       15.9994           0
     20935 TIP3     2818     TIP3     H1       HT       0.417000       1.00800           0
     20936 TIP3     2818     TIP3     H2       HT       0.417000       1.00800           0
     20937 TIP3     2819     TIP3     OH2      OT      -0.834000       15.9994           0
     20938 TIP3     2819     TIP3     H1       HT       0.417000       1.00800           0
     20939 TIP3     2819     TIP3     H2       HT       0.417000       1.00800           0
     20940 TIP3     2820     TIP3     OH2      OT      -0.834000       15.9994           0
     20941 TIP3     2820     TIP3     H1       HT       0.417000       1.00800           0
     20942 TIP3     2820     TIP3     H2       HT       0.417000       1.00800           0
     20943 TIP3     2821     TIP3     OH2      OT      -0.834000       15.9994           0
     20944 TIP3     2821     TIP3     H1       HT       0.417000       1.00800           0
     20945 TIP3     2821     TIP3     H2       HT       0.417000       1.00800           0
     20946 TIP3     2822     TIP3     OH2      OT      -0.834000       15.9994           0
     20947 TIP3     2822     TIP3     H1       HT       0.417000       1.00800           0
     20948 TIP3     2822     TIP3     H2       HT       0.417000       1.00800           0
     20949 TIP3     2823     TIP3     OH2      OT      -0.834000       15.9994           0
     20950 TIP3     2823     TIP3     H1       HT       0.417000       1.00800           0
     20951 TIP3     2823     TIP3     H2       HT       0.417000       1.00800           0
     20952 TIP3     2824     TIP3     OH2      OT      -0.834000       15.9994           0
     20953 TIP3     2824     TIP3     H1       HT       0.417000       1.00800           0
     20954 TIP3     2824     TIP3     H2       HT       0.417000       1.00800           0
     20955 TIP3     2825     TIP3     OH2      OT      -0.834000       15.9994           0
     20956 TIP3     2825     TIP3     H1       HT       0.417000       1.00800           0
     20957 TIP3     2825     TIP3     H2       HT       0.417000       1.00800           0
     20958 TIP3     2826     TIP3     OH2      OT      -0.834000       15.9994           0
     20959 TIP3     2826     TIP3     H1       HT       0.417000       1.00800           0
     20960 TIP3     2826     TIP3     H2       HT       0.417000       1.00800           0
     20961 TIP3     2827     TIP3     OH2      OT      -0.834000       15.9994           0
     20962 TIP3     2827     TIP3     H1       HT       0.417000       1.00800           0
     20963 TIP3     2827     TIP3     H2       HT       0.417000       1.00800           0
     20964 TIP3     2828     TIP3     OH2      OT      -0.834000       15.9994           0
     20965 TIP3     2828     TIP3     H1       HT       0.417000       1.00800           0
     20966 TIP3     2828     TIP3     H2       HT       0.417000       1.00800           0
     20967 TIP3     2829     TIP3     OH2      OT      -0.834000       15.9994           0
     20968 TIP3     2829     TIP3     H1       HT       0.417000       1.00800           0
     20969 TIP3     2829     TIP3     H2       HT       0.417000       1.00800           0
     20970 TIP3     2830     TIP3     OH2      OT      -0.834000       15.9994           0
     20971 TIP3     2830     TIP3     H1       HT       0.417000       1.00800           0
     20972 TIP3     2830     TIP3     H2       HT       0.417000       1.00800           0
     20973 TIP3     2831     TIP3     OH2      OT      -0.834000       15.9994           0
     20974 TIP3     2831     TIP3     H1       HT       0.417000       1.00800           0
     20975 TIP3     2831     TIP3     H2       HT       0.417000       1.00800           0
     20976 TIP3     2832     TIP3     OH2      OT      -0.834000       15.9994           0
     20977 TIP3     2832     TIP3     H1       HT       0.417000       1.00800           0
     20978 TIP3     2832     TIP3     H2       HT       0.417000       1.00800           0
     20979 TIP3     2833     TIP3     OH2      OT      -0.834000       15.9994           0
     20980 TIP3     2833     TIP3     H1       HT       0.417000       1.00800           0
     20981 TIP3     2833     TIP3     H2       HT       0.417000       1.00800           0
     20982 TIP3     2834     TIP3     OH2      OT      -0.834000       15.9994           0
     20983 TIP3     2834     TIP3     H1       HT       0.417000       1.00800           0
     20984 TIP3     2834     TIP3     H2       HT       0.417000       1.00800           0
     20985 TIP3     2835     TIP3     OH2      OT      -0.834000       15.9994           0
     20986 TIP3     2835     TIP3     H1       HT       0.417000       1.00800           0
     20987 TIP3     2835     TIP3     H2       HT       0.417000       1.00800           0
     20988 TIP3     2836     TIP3     OH2      OT      -0.834000       15.9994           0
     20989 TIP3     2836     TIP3     H1       HT       0.417000       1.00800           0
     20990 TIP3     2836     TIP3     H2       HT       0.417000       1.00800           0
     20991 TIP3     2837     TIP3     OH2      OT      -0.834000       15.9994           0
     20992 TIP3     2837     TIP3     H1       HT       0.417000       1.00800           0
     20993 TIP3     2837     TIP3     H2       HT       0.417000       1.00800           0
     20994 TIP3     2838     TIP3     OH2      OT      -0.834000       15.9994           0
     20995 TIP3     2838     TIP3     H1       HT       0.417000       1.00800           0
     20996 TIP3     2838     TIP3     H2       HT       0.417000       1.00800           0
     20997 TIP3     2839     TIP3     OH2      OT      -0.834000       15.9994           0
     20998 TIP3     2839     TIP3     H1       HT       0.417000       1.00800           0
     20999 TIP3     2839     TIP3     H2       HT       0.417000       1.00800           0
     21000 TIP3     2840     TIP3     OH2      OT      -0.834000       15.9994           0
     21001 TIP3     2840     TIP3     H1       HT       0.417000       1.00800           0
     21002 TIP3     2840     TIP3     H2       HT       0.417000       1.00800           0
     21003 TIP3     2841     TIP3     OH2      OT      -0.834000       15.9994           0
     21004 TIP3     2841     TIP3     H1       HT       0.417000       1.00800           0
     21005 TIP3     2841     TIP3     H2       HT       0.417000       1.00800           0
     21006 TIP3     2842     TIP3     OH2      OT      -0.834000       15.9994           0
     21007 TIP3     2842     TIP3     H1       HT       0.417000       1.00800           0
     21008 TIP3     2842     TIP3     H2       HT       0.417000       1.00800           0
     21009 TIP3     2843     TIP3     OH2      OT      -0.834000       15.9994           0
     21010 TIP3     2843     TIP3     H1       HT       0.417000       1.00800           0
     21011 TIP3     2843     TIP3     H2       HT       0.417000       1.00800           0
     21012 TIP3     2844     TIP3     OH2      OT      -0.834000       15.9994           0
     21013 TIP3     2844     TIP3     H1       HT       0.417000       1.00800           0
     21014 TIP3     2844     TIP3     H2       HT       0.417000       1.00800           0
     21015 TIP3     2845     TIP3     OH2      OT      -0.834000       15.9994           0
     21016 TIP3     2845     TIP3     H1       HT       0.417000       1.00800           0
     21017 TIP3     2845     TIP3     H2       HT       0.417000       1.00800           0
     21018 TIP3     2846     TIP3     OH2      OT      -0.834000       15.9994           0
     21019 TIP3     2846     TIP3     H1       HT       0.417000       1.00800           0
     21020 TIP3     2846     TIP3     H2       HT       0.417000       1.00800           0
     21021 TIP3     2847     TIP3     OH2      OT      -0.834000       15.9994           0
     21022 TIP3     2847     TIP3     H1       HT       0.417000       1.00800           0
     21023 TIP3     2847     TIP3     H2       HT       0.417000       1.00800           0
     21024 TIP3     2848     TIP3     OH2      OT      -0.834000       15.9994           0
     21025 TIP3     2848     TIP3     H1       HT       0.417000       1.00800           0
     21026 TIP3     2848     TIP3     H2       HT       0.417000       1.00800           0
     21027 TIP3     2849     TIP3     OH2      OT      -0.834000       15.9994           0
     21028 TIP3     2849     TIP3     H1       HT       0.417000       1.00800           0
     21029 TIP3     2849     TIP3     H2       HT       0.417000       1.00800           0
     21030 TIP3     2850     TIP3     OH2      OT      -0.834000       15.9994           0
     21031 TIP3     2850     TIP3     H1       HT       0.417000       1.00800           0
     21032 TIP3     2850     TIP3     H2       HT       0.417000       1.00800           0
     21033 TIP3     2851     TIP3     OH2      OT      -0.834000       15.9994           0
     21034 TIP3     2851     TIP3     H1       HT       0.417000       1.00800           0
     21035 TIP3     2851     TIP3     H2       HT       0.417000       1.00800           0
     21036 TIP3     2852     TIP3     OH2      OT      -0.834000       15.9994           0
     21037 TIP3     2852     TIP3     H1       HT       0.417000       1.00800           0
     21038 TIP3     2852     TIP3     H2       HT       0.417000       1.00800           0
     21039 TIP3     2853     TIP3     OH2      OT      -0.834000       15.9994           0
     21040 TIP3     2853     TIP3     H1       HT       0.417000       1.00800           0
     21041 TIP3     2853     TIP3     H2       HT       0.417000       1.00800           0
     21042 TIP3     2854     TIP3     OH2      OT      -0.834000       15.9994           0
     21043 TIP3     2854     TIP3     H1       HT       0.417000       1.00800           0
     21044 TIP3     2854     TIP3     H2       HT       0.417000       1.00800           0
     21045 TIP3     2855     TIP3     OH2      OT      -0.834000       15.9994           0
     21046 TIP3     2855     TIP3     H1       HT       0.417000       1.00800           0
     21047 TIP3     2855     TIP3     H2       HT       0.417000       1.00800           0
     21048 TIP3     2856     TIP3     OH2      OT      -0.834000       15.9994           0
     21049 TIP3     2856     TIP3     H1       HT       0.417000       1.00800           0
     21050 TIP3     2856     TIP3     H2       HT       0.417000       1.00800           0
     21051 TIP3     2857     TIP3     OH2      OT      -0.834000       15.9994           0
     21052 TIP3     2857     TIP3     H1       HT       0.417000       1.00800           0
     21053 TIP3     2857     TIP3     H2       HT       0.417000       1.00800           0
     21054 TIP3     2858     TIP3     OH2      OT      -0.834000       15.9994           0
     21055 TIP3     2858     TIP3     H1       HT       0.417000       1.00800           0
     21056 TIP3     2858     TIP3     H2       HT       0.417000       1.00800           0
     21057 TIP3     2859     TIP3     OH2      OT      -0.834000       15.9994           0
     21058 TIP3     2859     TIP3     H1       HT       0.417000       1.00800           0
     21059 TIP3     2859     TIP3     H2       HT       0.417000       1.00800           0
     21060 TIP3     2860     TIP3     OH2      OT      -0.834000       15.9994           0
     21061 TIP3     2860     TIP3     H1       HT       0.417000       1.00800           0
     21062 TIP3     2860     TIP3     H2       HT       0.417000       1.00800           0
     21063 TIP3     2861     TIP3     OH2      OT      -0.834000       15.9994           0
     21064 TIP3     2861     TIP3     H1       HT       0.417000       1.00800           0
     21065 TIP3     2861     TIP3     H2       HT       0.417000       1.00800           0
     21066 TIP3     2862     TIP3     OH2      OT      -0.834000       15.9994           0
     21067 TIP3     2862     TIP3     H1       HT       0.417000       1.00800           0
     21068 TIP3     2862     TIP3     H2       HT       0.417000       1.00800           0
     21069 TIP3     2863     TIP3     OH2      OT      -0.834000       15.9994           0
     21070 TIP3     2863     TIP3     H1       HT       0.417000       1.00800           0
     21071 TIP3     2863     TIP3     H2       HT       0.417000       1.00800           0
     21072 TIP3     2864     TIP3     OH2      OT      -0.834000       15.9994           0
     21073 TIP3     2864     TIP3     H1       HT       0.417000       1.00800           0
     21074 TIP3     2864     TIP3     H2       HT       0.417000       1.00800           0
     21075 TIP3     2865     TIP3     OH2      OT      -0.834000       15.9994           0
     21076 TIP3     2865     TIP3     H1       HT       0.417000       1.00800           0
     21077 TIP3     2865     TIP3     H2       HT       0.417000       1.00800           0
     21078 TIP3     2866     TIP3     OH2      OT      -0.834000       15.9994           0
     21079 TIP3     2866     TIP3     H1       HT       0.417000       1.00800           0
     21080 TIP3     2866     TIP3     H2       HT       0.417000       1.00800           0
     21081 TIP3     2867     TIP3     OH2      OT      -0.834000       15.9994           0
     21082 TIP3     2867     TIP3     H1       HT       0.417000       1.00800           0
     21083 TIP3     2867     TIP3     H2       HT       0.417000       1.00800           0
     21084 TIP3     2868     TIP3     OH2      OT      -0.834000       15.9994           0
     21085 TIP3     2868     TIP3     H1       HT       0.417000       1.00800           0
     21086 TIP3     2868     TIP3     H2       HT       0.417000       1.00800           0
     21087 TIP3     2869     TIP3     OH2      OT      -0.834000       15.9994           0
     21088 TIP3     2869     TIP3     H1       HT       0.417000       1.00800           0
     21089 TIP3     2869     TIP3     H2       HT       0.417000       1.00800           0
     21090 TIP3     2870     TIP3     OH2      OT      -0.834000       15.9994           0
     21091 TIP3     2870     TIP3     H1       HT       0.417000       1.00800           0
     21092 TIP3     2870     TIP3     H2       HT       0.417000       1.00800           0
     21093 TIP3     2871     TIP3     OH2      OT      -0.834000       15.9994           0
     21094 TIP3     2871     TIP3     H1       HT       0.417000       1.00800           0
     21095 TIP3     2871     TIP3     H2       HT       0.417000       1.00800           0
     21096 TIP3     2872     TIP3     OH2      OT      -0.834000       15.9994           0
     21097 TIP3     2872     TIP3     H1       HT       0.417000       1.00800           0
     21098 TIP3     2872     TIP3     H2       HT       0.417000       1.00800           0
     21099 TIP3     2873     TIP3     OH2      OT      -0.834000       15.9994           0
     21100 TIP3     2873     TIP3     H1       HT       0.417000       1.00800           0
     21101 TIP3     2873     TIP3     H2       HT       0.417000       1.00800           0
     21102 TIP3     2874     TIP3     OH2      OT      -0.834000       15.9994           0
     21103 TIP3     2874     TIP3     H1       HT       0.417000       1.00800           0
     21104 TIP3     2874     TIP3     H2       HT       0.417000       1.00800           0
     21105 TIP3     2875     TIP3     OH2      OT      -0.834000       15.9994           0
     21106 TIP3     2875     TIP3     H1       HT       0.417000       1.00800           0
     21107 TIP3     2875     TIP3     H2       HT       0.417000       1.00800           0
     21108 TIP3     2876     TIP3     OH2      OT      -0.834000       15.9994           0
     21109 TIP3     2876     TIP3     H1       HT       0.417000       1.00800           0
     21110 TIP3     2876     TIP3     H2       HT       0.417000       1.00800           0
     21111 TIP3     2877     TIP3     OH2      OT      -0.834000       15.9994           0
     21112 TIP3     2877     TIP3     H1       HT       0.417000       1.00800           0
     21113 TIP3     2877     TIP3     H2       HT       0.417000       1.00800           0
     21114 TIP3     2878     TIP3     OH2      OT      -0.834000       15.9994           0
     21115 TIP3     2878     TIP3     H1       HT       0.417000       1.00800           0
     21116 TIP3     2878     TIP3     H2       HT       0.417000       1.00800           0
     21117 TIP3     2879     TIP3     OH2      OT      -0.834000       15.9994           0
     21118 TIP3     2879     TIP3     H1       HT       0.417000       1.00800           0
     21119 TIP3     2879     TIP3     H2       HT       0.417000       1.00800           0
     21120 TIP3     2880     TIP3     OH2      OT      -0.834000       15.9994           0
     21121 TIP3     2880     TIP3     H1       HT       0.417000       1.00800           0
     21122 TIP3     2880     TIP3     H2       HT       0.417000       1.00800           0
     21123 TIP3     2881     TIP3     OH2      OT      -0.834000       15.9994           0
     21124 TIP3     2881     TIP3     H1       HT       0.417000       1.00800           0
     21125 TIP3     2881     TIP3     H2       HT       0.417000       1.00800           0
     21126 TIP3     2882     TIP3     OH2      OT      -0.834000       15.9994           0
     21127 TIP3     2882     TIP3     H1       HT       0.417000       1.00800           0
     21128 TIP3     2882     TIP3     H2       HT       0.417000       1.00800           0
     21129 TIP3     2883     TIP3     OH2      OT      -0.834000       15.9994           0
     21130 TIP3     2883     TIP3     H1       HT       0.417000       1.00800           0
     21131 TIP3     2883     TIP3     H2       HT       0.417000       1.00800           0
     21132 TIP3     2884     TIP3     OH2      OT      -0.834000       15.9994           0
     21133 TIP3     2884     TIP3     H1       HT       0.417000       1.00800           0
     21134 TIP3     2884     TIP3     H2       HT       0.417000       1.00800           0
     21135 TIP3     2885     TIP3     OH2      OT      -0.834000       15.9994           0
     21136 TIP3     2885     TIP3     H1       HT       0.417000       1.00800           0
     21137 TIP3     2885     TIP3     H2       HT       0.417000       1.00800           0
     21138 TIP3     2886     TIP3     OH2      OT      -0.834000       15.9994           0
     21139 TIP3     2886     TIP3     H1       HT       0.417000       1.00800           0
     21140 TIP3     2886     TIP3     H2       HT       0.417000       1.00800           0
     21141 TIP3     2887     TIP3     OH2      OT      -0.834000       15.9994           0
     21142 TIP3     2887     TIP3     H1       HT       0.417000       1.00800           0
     21143 TIP3     2887     TIP3     H2       HT       0.417000       1.00800           0
     21144 TIP3     2888     TIP3     OH2      OT      -0.834000       15.9994           0
     21145 TIP3     2888     TIP3     H1       HT       0.417000       1.00800           0
     21146 TIP3     2888     TIP3     H2       HT       0.417000       1.00800           0
     21147 TIP3     2889     TIP3     OH2      OT      -0.834000       15.9994           0
     21148 TIP3     2889     TIP3     H1       HT       0.417000       1.00800           0
     21149 TIP3     2889     TIP3     H2       HT       0.417000       1.00800           0
     21150 TIP3     2890     TIP3     OH2      OT      -0.834000       15.9994           0
     21151 TIP3     2890     TIP3     H1       HT       0.417000       1.00800           0
     21152 TIP3     2890     TIP3     H2       HT       0.417000       1.00800           0
     21153 TIP3     2891     TIP3     OH2      OT      -0.834000       15.9994           0
     21154 TIP3     2891     TIP3     H1       HT       0.417000       1.00800           0
     21155 TIP3     2891     TIP3     H2       HT       0.417000       1.00800           0
     21156 TIP3     2892     TIP3     OH2      OT      -0.834000       15.9994           0
     21157 TIP3     2892     TIP3     H1       HT       0.417000       1.00800           0
     21158 TIP3     2892     TIP3     H2       HT       0.417000       1.00800           0
     21159 TIP3     2893     TIP3     OH2      OT      -0.834000       15.9994           0
     21160 TIP3     2893     TIP3     H1       HT       0.417000       1.00800           0
     21161 TIP3     2893     TIP3     H2       HT       0.417000       1.00800           0
     21162 TIP3     2894     TIP3     OH2      OT      -0.834000       15.9994           0
     21163 TIP3     2894     TIP3     H1       HT       0.417000       1.00800           0
     21164 TIP3     2894     TIP3     H2       HT       0.417000       1.00800           0
     21165 TIP3     2895     TIP3     OH2      OT      -0.834000       15.9994           0
     21166 TIP3     2895     TIP3     H1       HT       0.417000       1.00800           0
     21167 TIP3     2895     TIP3     H2       HT       0.417000       1.00800           0
     21168 TIP3     2896     TIP3     OH2      OT      -0.834000       15.9994           0
     21169 TIP3     2896     TIP3     H1       HT       0.417000       1.00800           0
     21170 TIP3     2896     TIP3     H2       HT       0.417000       1.00800           0
     21171 TIP3     2897     TIP3     OH2      OT      -0.834000       15.9994           0
     21172 TIP3     2897     TIP3     H1       HT       0.417000       1.00800           0
     21173 TIP3     2897     TIP3     H2       HT       0.417000       1.00800           0
     21174 TIP3     2898     TIP3     OH2      OT      -0.834000       15.9994           0
     21175 TIP3     2898     TIP3     H1       HT       0.417000       1.00800           0
     21176 TIP3     2898     TIP3     H2       HT       0.417000       1.00800           0
     21177 TIP3     2899     TIP3     OH2      OT      -0.834000       15.9994           0
     21178 TIP3     2899     TIP3     H1       HT       0.417000       1.00800           0
     21179 TIP3     2899     TIP3     H2       HT       0.417000       1.00800           0
     21180 TIP3     2900     TIP3     OH2      OT      -0.834000       15.9994           0
     21181 TIP3     2900     TIP3     H1       HT       0.417000       1.00800           0
     21182 TIP3     2900     TIP3     H2       HT       0.417000       1.00800           0
     21183 TIP3     2901     TIP3     OH2      OT      -0.834000       15.9994           0
     21184 TIP3     2901     TIP3     H1       HT       0.417000       1.00800           0
     21185 TIP3     2901     TIP3     H2       HT       0.417000       1.00800           0
     21186 TIP3     2902     TIP3     OH2      OT      -0.834000       15.9994           0
     21187 TIP3     2902     TIP3     H1       HT       0.417000       1.00800           0
     21188 TIP3     2902     TIP3     H2       HT       0.417000       1.00800           0
     21189 TIP3     2903     TIP3     OH2      OT      -0.834000       15.9994           0
     21190 TIP3     2903     TIP3     H1       HT       0.417000       1.00800           0
     21191 TIP3     2903     TIP3     H2       HT       0.417000       1.00800           0
     21192 TIP3     2904     TIP3     OH2      OT      -0.834000       15.9994           0
     21193 TIP3     2904     TIP3     H1       HT       0.417000       1.00800           0
     21194 TIP3     2904     TIP3     H2       HT       0.417000       1.00800           0
     21195 TIP3     2905     TIP3     OH2      OT      -0.834000       15.9994           0
     21196 TIP3     2905     TIP3     H1       HT       0.417000       1.00800           0
     21197 TIP3     2905     TIP3     H2       HT       0.417000       1.00800           0
     21198 TIP3     2906     TIP3     OH2      OT      -0.834000       15.9994           0
     21199 TIP3     2906     TIP3     H1       HT       0.417000       1.00800           0
     21200 TIP3     2906     TIP3     H2       HT       0.417000       1.00800           0
     21201 TIP3     2907     TIP3     OH2      OT      -0.834000       15.9994           0
     21202 TIP3     2907     TIP3     H1       HT       0.417000       1.00800           0
     21203 TIP3     2907     TIP3     H2       HT       0.417000       1.00800           0
     21204 TIP3     2908     TIP3     OH2      OT      -0.834000       15.9994           0
     21205 TIP3     2908     TIP3     H1       HT       0.417000       1.00800           0
     21206 TIP3     2908     TIP3     H2       HT       0.417000       1.00800           0
     21207 TIP3     2909     TIP3     OH2      OT      -0.834000       15.9994           0
     21208 TIP3     2909     TIP3     H1       HT       0.417000       1.00800           0
     21209 TIP3     2909     TIP3     H2       HT       0.417000       1.00800           0
     21210 TIP3     2910     TIP3     OH2      OT      -0.834000       15.9994           0
     21211 TIP3     2910     TIP3     H1       HT       0.417000       1.00800           0
     21212 TIP3     2910     TIP3     H2       HT       0.417000       1.00800           0
     21213 TIP3     2911     TIP3     OH2      OT      -0.834000       15.9994           0
     21214 TIP3     2911     TIP3     H1       HT       0.417000       1.00800           0
     21215 TIP3     2911     TIP3     H2       HT       0.417000       1.00800           0
     21216 TIP3     2912     TIP3     OH2      OT      -0.834000       15.9994           0
     21217 TIP3     2912     TIP3     H1       HT       0.417000       1.00800           0
     21218 TIP3     2912     TIP3     H2       HT       0.417000       1.00800           0
     21219 TIP3     2913     TIP3     OH2      OT      -0.834000       15.9994           0
     21220 TIP3     2913     TIP3     H1       HT       0.417000       1.00800           0
     21221 TIP3     2913     TIP3     H2       HT       0.417000       1.00800           0
     21222 TIP3     2914     TIP3     OH2      OT      -0.834000       15.9994           0
     21223 TIP3     2914     TIP3     H1       HT       0.417000       1.00800           0
     21224 TIP3     2914     TIP3     H2       HT       0.417000       1.00800           0
     21225 TIP3     2915     TIP3     OH2      OT      -0.834000       15.9994           0
     21226 TIP3     2915     TIP3     H1       HT       0.417000       1.00800           0
     21227 TIP3     2915     TIP3     H2       HT       0.417000       1.00800           0
     21228 TIP3     2916     TIP3     OH2      OT      -0.834000       15.9994           0
     21229 TIP3     2916     TIP3     H1       HT       0.417000       1.00800           0
     21230 TIP3     2916     TIP3     H2       HT       0.417000       1.00800           0
     21231 TIP3     2917     TIP3     OH2      OT      -0.834000       15.9994           0
     21232 TIP3     2917     TIP3     H1       HT       0.417000       1.00800           0
     21233 TIP3     2917     TIP3     H2       HT       0.417000       1.00800           0
     21234 TIP3     2918     TIP3     OH2      OT      -0.834000       15.9994           0
     21235 TIP3     2918     TIP3     H1       HT       0.417000       1.00800           0
     21236 TIP3     2918     TIP3     H2       HT       0.417000       1.00800           0
     21237 TIP3     2919     TIP3     OH2      OT      -0.834000       15.9994           0
     21238 TIP3     2919     TIP3     H1       HT       0.417000       1.00800           0
     21239 TIP3     2919     TIP3     H2       HT       0.417000       1.00800           0
     21240 TIP3     2920     TIP3     OH2      OT      -0.834000       15.9994           0
     21241 TIP3     2920     TIP3     H1       HT       0.417000       1.00800           0
     21242 TIP3     2920     TIP3     H2       HT       0.417000       1.00800           0
     21243 TIP3     2921     TIP3     OH2      OT      -0.834000       15.9994           0
     21244 TIP3     2921     TIP3     H1       HT       0.417000       1.00800           0
     21245 TIP3     2921     TIP3     H2       HT       0.417000       1.00800           0
     21246 TIP3     2922     TIP3     OH2      OT      -0.834000       15.9994           0
     21247 TIP3     2922     TIP3     H1       HT       0.417000       1.00800           0
     21248 TIP3     2922     TIP3     H2       HT       0.417000       1.00800           0
     21249 TIP3     2923     TIP3     OH2      OT      -0.834000       15.9994           0
     21250 TIP3     2923     TIP3     H1       HT       0.417000       1.00800           0
     21251 TIP3     2923     TIP3     H2       HT       0.417000       1.00800           0
     21252 TIP3     2924     TIP3     OH2      OT      -0.834000       15.9994           0
     21253 TIP3     2924     TIP3     H1       HT       0.417000       1.00800           0
     21254 TIP3     2924     TIP3     H2       HT       0.417000       1.00800           0
     21255 TIP3     2925     TIP3     OH2      OT      -0.834000       15.9994           0
     21256 TIP3     2925     TIP3     H1       HT       0.417000       1.00800           0
     21257 TIP3     2925     TIP3     H2       HT       0.417000       1.00800           0
     21258 TIP3     2926     TIP3     OH2      OT      -0.834000       15.9994           0
     21259 TIP3     2926     TIP3     H1       HT       0.417000       1.00800           0
     21260 TIP3     2926     TIP3     H2       HT       0.417000       1.00800           0
     21261 TIP3     2927     TIP3     OH2      OT      -0.834000       15.9994           0
     21262 TIP3     2927     TIP3     H1       HT       0.417000       1.00800           0
     21263 TIP3     2927     TIP3     H2       HT       0.417000       1.00800           0
     21264 TIP3     2928     TIP3     OH2      OT      -0.834000       15.9994           0
     21265 TIP3     2928     TIP3     H1       HT       0.417000       1.00800           0
     21266 TIP3     2928     TIP3     H2       HT       0.417000       1.00800           0
     21267 TIP3     2929     TIP3     OH2      OT      -0.834000       15.9994           0
     21268 TIP3     2929     TIP3     H1       HT       0.417000       1.00800           0
     21269 TIP3     2929     TIP3     H2       HT       0.417000       1.00800           0
     21270 TIP3     2930     TIP3     OH2      OT      -0.834000       15.9994           0
     21271 TIP3     2930     TIP3     H1       HT       0.417000       1.00800           0
     21272 TIP3     2930     TIP3     H2       HT       0.417000       1.00800           0
     21273 TIP3     2931     TIP3     OH2      OT      -0.834000       15.9994           0
     21274 TIP3     2931     TIP3     H1       HT       0.417000       1.00800           0
     21275 TIP3     2931     TIP3     H2       HT       0.417000       1.00800           0
     21276 TIP3     2932     TIP3     OH2      OT      -0.834000       15.9994           0
     21277 TIP3     2932     TIP3     H1       HT       0.417000       1.00800           0
     21278 TIP3     2932     TIP3     H2       HT       0.417000       1.00800           0
     21279 TIP3     2933     TIP3     OH2      OT      -0.834000       15.9994           0
     21280 TIP3     2933     TIP3     H1       HT       0.417000       1.00800           0
     21281 TIP3     2933     TIP3     H2       HT       0.417000       1.00800           0
     21282 TIP3     2934     TIP3     OH2      OT      -0.834000       15.9994           0
     21283 TIP3     2934     TIP3     H1       HT       0.417000       1.00800           0
     21284 TIP3     2934     TIP3     H2       HT       0.417000       1.00800           0
     21285 TIP3     2935     TIP3     OH2      OT      -0.834000       15.9994           0
     21286 TIP3     2935     TIP3     H1       HT       0.417000       1.00800           0
     21287 TIP3     2935     TIP3     H2       HT       0.417000       1.00800           0
     21288 TIP3     2936     TIP3     OH2      OT      -0.834000       15.9994           0
     21289 TIP3     2936     TIP3     H1       HT       0.417000       1.00800           0
     21290 TIP3     2936     TIP3     H2       HT       0.417000       1.00800           0
     21291 TIP3     2937     TIP3     OH2      OT      -0.834000       15.9994           0
     21292 TIP3     2937     TIP3     H1       HT       0.417000       1.00800           0
     21293 TIP3     2937     TIP3     H2       HT       0.417000       1.00800           0
     21294 TIP3     2938     TIP3     OH2      OT      -0.834000       15.9994           0
     21295 TIP3     2938     TIP3     H1       HT       0.417000       1.00800           0
     21296 TIP3     2938     TIP3     H2       HT       0.417000       1.00800           0
     21297 TIP3     2939     TIP3     OH2      OT      -0.834000       15.9994           0
     21298 TIP3     2939     TIP3     H1       HT       0.417000       1.00800           0
     21299 TIP3     2939     TIP3     H2       HT       0.417000       1.00800           0
     21300 TIP3     2940     TIP3     OH2      OT      -0.834000       15.9994           0
     21301 TIP3     2940     TIP3     H1       HT       0.417000       1.00800           0
     21302 TIP3     2940     TIP3     H2       HT       0.417000       1.00800           0
     21303 TIP3     2941     TIP3     OH2      OT      -0.834000       15.9994           0
     21304 TIP3     2941     TIP3     H1       HT       0.417000       1.00800           0
     21305 TIP3     2941     TIP3     H2       HT       0.417000       1.00800           0
     21306 TIP3     2942     TIP3     OH2      OT      -0.834000       15.9994           0
     21307 TIP3     2942     TIP3     H1       HT       0.417000       1.00800           0
     21308 TIP3     2942     TIP3     H2       HT       0.417000       1.00800           0
     21309 TIP3     2943     TIP3     OH2      OT      -0.834000       15.9994           0
     21310 TIP3     2943     TIP3     H1       HT       0.417000       1.00800           0
     21311 TIP3     2943     TIP3     H2       HT       0.417000       1.00800           0
     21312 TIP3     2944     TIP3     OH2      OT      -0.834000       15.9994           0
     21313 TIP3     2944     TIP3     H1       HT       0.417000       1.00800           0
     21314 TIP3     2944     TIP3     H2       HT       0.417000       1.00800           0
     21315 TIP3     2945     TIP3     OH2      OT      -0.834000       15.9994           0
     21316 TIP3     2945     TIP3     H1       HT       0.417000       1.00800           0
     21317 TIP3     2945     TIP3     H2       HT       0.417000       1.00800           0
     21318 TIP3     2946     TIP3     OH2      OT      -0.834000       15.9994           0
     21319 TIP3     2946     TIP3     H1       HT       0.417000       1.00800           0
     21320 TIP3     2946     TIP3     H2       HT       0.417000       1.00800           0
     21321 TIP3     2947     TIP3     OH2      OT      -0.834000       15.9994           0
     21322 TIP3     2947     TIP3     H1       HT       0.417000       1.00800           0
     21323 TIP3     2947     TIP3     H2       HT       0.417000       1.00800           0
     21324 TIP3     2948     TIP3     OH2      OT      -0.834000       15.9994           0
     21325 TIP3     2948     TIP3     H1       HT       0.417000       1.00800           0
     21326 TIP3     2948     TIP3     H2       HT       0.417000       1.00800           0
     21327 TIP3     2949     TIP3     OH2      OT      -0.834000       15.9994           0
     21328 TIP3     2949     TIP3     H1       HT       0.417000       1.00800           0
     21329 TIP3     2949     TIP3     H2       HT       0.417000       1.00800           0
     21330 TIP3     2950     TIP3     OH2      OT      -0.834000       15.9994           0
     21331 TIP3     2950     TIP3     H1       HT       0.417000       1.00800           0
     21332 TIP3     2950     TIP3     H2       HT       0.417000       1.00800           0
     21333 TIP3     2951     TIP3     OH2      OT      -0.834000       15.9994           0
     21334 TIP3     2951     TIP3     H1       HT       0.417000       1.00800           0
     21335 TIP3     2951     TIP3     H2       HT       0.417000       1.00800           0
     21336 TIP3     2952     TIP3     OH2      OT      -0.834000       15.9994           0
     21337 TIP3     2952     TIP3     H1       HT       0.417000       1.00800           0
     21338 TIP3     2952     TIP3     H2       HT       0.417000       1.00800           0
     21339 TIP3     2953     TIP3     OH2      OT      -0.834000       15.9994           0
     21340 TIP3     2953     TIP3     H1       HT       0.417000       1.00800           0
     21341 TIP3     2953     TIP3     H2       HT       0.417000       1.00800           0
     21342 TIP3     2954     TIP3     OH2      OT      -0.834000       15.9994           0
     21343 TIP3     2954     TIP3     H1       HT       0.417000       1.00800           0
     21344 TIP3     2954     TIP3     H2       HT       0.417000       1.00800           0
     21345 TIP3     2955     TIP3     OH2      OT      -0.834000       15.9994           0
     21346 TIP3     2955     TIP3     H1       HT       0.417000       1.00800           0
     21347 TIP3     2955     TIP3     H2       HT       0.417000       1.00800           0
     21348 TIP3     2956     TIP3     OH2      OT      -0.834000       15.9994           0
     21349 TIP3     2956     TIP3     H1       HT       0.417000       1.00800           0
     21350 TIP3     2956     TIP3     H2       HT       0.417000       1.00800           0
     21351 TIP3     2957     TIP3     OH2      OT      -0.834000       15.9994           0
     21352 TIP3     2957     TIP3     H1       HT       0.417000       1.00800           0
     21353 TIP3     2957     TIP3     H2       HT       0.417000       1.00800           0
     21354 TIP3     2958     TIP3     OH2      OT      -0.834000       15.9994           0
     21355 TIP3     2958     TIP3     H1       HT       0.417000       1.00800           0
     21356 TIP3     2958     TIP3     H2       HT       0.417000       1.00800           0
     21357 TIP3     2959     TIP3     OH2      OT      -0.834000       15.9994           0
     21358 TIP3     2959     TIP3     H1       HT       0.417000       1.00800           0
     21359 TIP3     2959     TIP3     H2       HT       0.417000       1.00800           0
     21360 TIP3     2960     TIP3     OH2      OT      -0.834000       15.9994           0
     21361 TIP3     2960     TIP3     H1       HT       0.417000       1.00800           0
     21362 TIP3     2960     TIP3     H2       HT       0.417000       1.00800           0
     21363 TIP3     2961     TIP3     OH2      OT      -0.834000       15.9994           0
     21364 TIP3     2961     TIP3     H1       HT       0.417000       1.00800           0
     21365 TIP3     2961     TIP3     H2       HT       0.417000       1.00800           0
     21366 TIP3     2962     TIP3     OH2      OT      -0.834000       15.9994           0
     21367 TIP3     2962     TIP3     H1       HT       0.417000       1.00800           0
     21368 TIP3     2962     TIP3     H2       HT       0.417000       1.00800           0
     21369 TIP3     2963     TIP3     OH2      OT      -0.834000       15.9994           0
     21370 TIP3     2963     TIP3     H1       HT       0.417000       1.00800           0
     21371 TIP3     2963     TIP3     H2       HT       0.417000       1.00800           0
     21372 TIP3     2964     TIP3     OH2      OT      -0.834000       15.9994           0
     21373 TIP3     2964     TIP3     H1       HT       0.417000       1.00800           0
     21374 TIP3     2964     TIP3     H2       HT       0.417000       1.00800           0
     21375 TIP3     2965     TIP3     OH2      OT      -0.834000       15.9994           0
     21376 TIP3     2965     TIP3     H1       HT       0.417000       1.00800           0
     21377 TIP3     2965     TIP3     H2       HT       0.417000       1.00800           0
     21378 TIP3     2966     TIP3     OH2      OT      -0.834000       15.9994           0
     21379 TIP3     2966     TIP3     H1       HT       0.417000       1.00800           0
     21380 TIP3     2966     TIP3     H2       HT       0.417000       1.00800           0
     21381 TIP3     2967     TIP3     OH2      OT      -0.834000       15.9994           0
     21382 TIP3     2967     TIP3     H1       HT       0.417000       1.00800           0
     21383 TIP3     2967     TIP3     H2       HT       0.417000       1.00800           0
     21384 TIP3     2968     TIP3     OH2      OT      -0.834000       15.9994           0
     21385 TIP3     2968     TIP3     H1       HT       0.417000       1.00800           0
     21386 TIP3     2968     TIP3     H2       HT       0.417000       1.00800           0
     21387 TIP3     2969     TIP3     OH2      OT      -0.834000       15.9994           0
     21388 TIP3     2969     TIP3     H1       HT       0.417000       1.00800           0
     21389 TIP3     2969     TIP3     H2       HT       0.417000       1.00800           0
     21390 TIP3     2970     TIP3     OH2      OT      -0.834000       15.9994           0
     21391 TIP3     2970     TIP3     H1       HT       0.417000       1.00800           0
     21392 TIP3     2970     TIP3     H2       HT       0.417000       1.00800           0
     21393 TIP3     2971     TIP3     OH2      OT      -0.834000       15.9994           0
     21394 TIP3     2971     TIP3     H1       HT       0.417000       1.00800           0
     21395 TIP3     2971     TIP3     H2       HT       0.417000       1.00800           0
     21396 TIP3     2972     TIP3     OH2      OT      -0.834000       15.9994           0
     21397 TIP3     2972     TIP3     H1       HT       0.417000       1.00800           0
     21398 TIP3     2972     TIP3     H2       HT       0.417000       1.00800           0
     21399 TIP3     2973     TIP3     OH2      OT      -0.834000       15.9994           0
     21400 TIP3     2973     TIP3     H1       HT       0.417000       1.00800           0
     21401 TIP3     2973     TIP3     H2       HT       0.417000       1.00800           0
     21402 TIP3     2974     TIP3     OH2      OT      -0.834000       15.9994           0
     21403 TIP3     2974     TIP3     H1       HT       0.417000       1.00800           0
     21404 TIP3     2974     TIP3     H2       HT       0.417000       1.00800           0
     21405 TIP3     2975     TIP3     OH2      OT      -0.834000       15.9994           0
     21406 TIP3     2975     TIP3     H1       HT       0.417000       1.00800           0
     21407 TIP3     2975     TIP3     H2       HT       0.417000       1.00800           0
     21408 TIP3     2976     TIP3     OH2      OT      -0.834000       15.9994           0
     21409 TIP3     2976     TIP3     H1       HT       0.417000       1.00800           0
     21410 TIP3     2976     TIP3     H2       HT       0.417000       1.00800           0
     21411 TIP3     2977     TIP3     OH2      OT      -0.834000       15.9994           0
     21412 TIP3     2977     TIP3     H1       HT       0.417000       1.00800           0
     21413 TIP3     2977     TIP3     H2       HT       0.417000       1.00800           0
     21414 TIP3     2978     TIP3     OH2      OT      -0.834000       15.9994           0
     21415 TIP3     2978     TIP3     H1       HT       0.417000       1.00800           0
     21416 TIP3     2978     TIP3     H2       HT       0.417000       1.00800           0
     21417 TIP3     2979     TIP3     OH2      OT      -0.834000       15.9994           0
     21418 TIP3     2979     TIP3     H1       HT       0.417000       1.00800           0
     21419 TIP3     2979     TIP3     H2       HT       0.417000       1.00800           0
     21420 TIP3     2980     TIP3     OH2      OT      -0.834000       15.9994           0
     21421 TIP3     2980     TIP3     H1       HT       0.417000       1.00800           0
     21422 TIP3     2980     TIP3     H2       HT       0.417000       1.00800           0
     21423 TIP3     2981     TIP3     OH2      OT      -0.834000       15.9994           0
     21424 TIP3     2981     TIP3     H1       HT       0.417000       1.00800           0
     21425 TIP3     2981     TIP3     H2       HT       0.417000       1.00800           0
     21426 TIP3     2982     TIP3     OH2      OT      -0.834000       15.9994           0
     21427 TIP3     2982     TIP3     H1       HT       0.417000       1.00800           0
     21428 TIP3     2982     TIP3     H2       HT       0.417000       1.00800           0
     21429 TIP3     2983     TIP3     OH2      OT      -0.834000       15.9994           0
     21430 TIP3     2983     TIP3     H1       HT       0.417000       1.00800           0
     21431 TIP3     2983     TIP3     H2       HT       0.417000       1.00800           0
     21432 TIP3     2984     TIP3     OH2      OT      -0.834000       15.9994           0
     21433 TIP3     2984     TIP3     H1       HT       0.417000       1.00800           0
     21434 TIP3     2984     TIP3     H2       HT       0.417000       1.00800           0
     21435 TIP3     2985     TIP3     OH2      OT      -0.834000       15.9994           0
     21436 TIP3     2985     TIP3     H1       HT       0.417000       1.00800           0
     21437 TIP3     2985     TIP3     H2       HT       0.417000       1.00800           0
     21438 TIP3     2986     TIP3     OH2      OT      -0.834000       15.9994           0
     21439 TIP3     2986     TIP3     H1       HT       0.417000       1.00800           0
     21440 TIP3     2986     TIP3     H2       HT       0.417000       1.00800           0
     21441 TIP3     2987     TIP3     OH2      OT      -0.834000       15.9994           0
     21442 TIP3     2987     TIP3     H1       HT       0.417000       1.00800           0
     21443 TIP3     2987     TIP3     H2       HT       0.417000       1.00800           0
     21444 TIP3     2988     TIP3     OH2      OT      -0.834000       15.9994           0
     21445 TIP3     2988     TIP3     H1       HT       0.417000       1.00800           0
     21446 TIP3     2988     TIP3     H2       HT       0.417000       1.00800           0
     21447 TIP3     2989     TIP3     OH2      OT      -0.834000       15.9994           0
     21448 TIP3     2989     TIP3     H1       HT       0.417000       1.00800           0
     21449 TIP3     2989     TIP3     H2       HT       0.417000       1.00800           0
     21450 TIP3     2990     TIP3     OH2      OT      -0.834000       15.9994           0
     21451 TIP3     2990     TIP3     H1       HT       0.417000       1.00800           0
     21452 TIP3     2990     TIP3     H2       HT       0.417000       1.00800           0
     21453 TIP3     2991     TIP3     OH2      OT      -0.834000       15.9994           0
     21454 TIP3     2991     TIP3     H1       HT       0.417000       1.00800           0
     21455 TIP3     2991     TIP3     H2       HT       0.417000       1.00800           0
     21456 TIP3     2992     TIP3     OH2      OT      -0.834000       15.9994           0
     21457 TIP3     2992     TIP3     H1       HT       0.417000       1.00800           0
     21458 TIP3     2992     TIP3     H2       HT       0.417000       1.00800           0
     21459 TIP3     2993     TIP3     OH2      OT      -0.834000       15.9994           0
     21460 TIP3     2993     TIP3     H1       HT       0.417000       1.00800           0
     21461 TIP3     2993     TIP3     H2       HT       0.417000       1.00800           0
     21462 TIP3     2994     TIP3     OH2      OT      -0.834000       15.9994           0
     21463 TIP3     2994     TIP3     H1       HT       0.417000       1.00800           0
     21464 TIP3     2994     TIP3     H2       HT       0.417000       1.00800           0
     21465 TIP3     2995     TIP3     OH2      OT      -0.834000       15.9994           0
     21466 TIP3     2995     TIP3     H1       HT       0.417000       1.00800           0
     21467 TIP3     2995     TIP3     H2       HT       0.417000       1.00800           0
     21468 TIP3     2996     TIP3     OH2      OT      -0.834000       15.9994           0
     21469 TIP3     2996     TIP3     H1       HT       0.417000       1.00800           0
     21470 TIP3     2996     TIP3     H2       HT       0.417000       1.00800           0
     21471 TIP3     2997     TIP3     OH2      OT      -0.834000       15.9994           0
     21472 TIP3     2997     TIP3     H1       HT       0.417000       1.00800           0
     21473 TIP3     2997     TIP3     H2       HT       0.417000       1.00800           0
     21474 TIP3     2998     TIP3     OH2      OT      -0.834000       15.9994           0
     21475 TIP3     2998     TIP3     H1       HT       0.417000       1.00800           0
     21476 TIP3     2998     TIP3     H2       HT       0.417000       1.00800           0
     21477 TIP3     2999     TIP3     OH2      OT      -0.834000       15.9994           0
     21478 TIP3     2999     TIP3     H1       HT       0.417000       1.00800           0
     21479 TIP3     2999     TIP3     H2       HT       0.417000       1.00800           0
     21480 TIP3     3000     TIP3     OH2      OT      -0.834000       15.9994           0
     21481 TIP3     3000     TIP3     H1       HT       0.417000       1.00800           0
     21482 TIP3     3000     TIP3     H2       HT       0.417000       1.00800           0
     21483 TIP3     3001     TIP3     OH2      OT      -0.834000       15.9994           0
     21484 TIP3     3001     TIP3     H1       HT       0.417000       1.00800           0
     21485 TIP3     3001     TIP3     H2       HT       0.417000       1.00800           0
     21486 TIP3     3002     TIP3     OH2      OT      -0.834000       15.9994           0
     21487 TIP3     3002     TIP3     H1       HT       0.417000       1.00800           0
     21488 TIP3     3002     TIP3     H2       HT       0.417000       1.00800           0
     21489 TIP3     3003     TIP3     OH2      OT      -0.834000       15.9994           0
     21490 TIP3     3003     TIP3     H1       HT       0.417000       1.00800           0
     21491 TIP3     3003     TIP3     H2       HT       0.417000       1.00800           0
     21492 TIP3     3004     TIP3     OH2      OT      -0.834000       15.9994           0
     21493 TIP3     3004     TIP3     H1       HT       0.417000       1.00800           0
     21494 TIP3     3004     TIP3     H2       HT       0.417000       1.00800           0
     21495 TIP3     3005     TIP3     OH2      OT      -0.834000       15.9994           0
     21496 TIP3     3005     TIP3     H1       HT       0.417000       1.00800           0
     21497 TIP3     3005     TIP3     H2       HT       0.417000       1.00800           0
     21498 TIP3     3006     TIP3     OH2      OT      -0.834000       15.9994           0
     21499 TIP3     3006     TIP3     H1       HT       0.417000       1.00800           0
     21500 TIP3     3006     TIP3     H2       HT       0.417000       1.00800           0
     21501 TIP3     3007     TIP3     OH2      OT      -0.834000       15.9994           0
     21502 TIP3     3007     TIP3     H1       HT       0.417000       1.00800           0
     21503 TIP3     3007     TIP3     H2       HT       0.417000       1.00800           0
     21504 TIP3     3008     TIP3     OH2      OT      -0.834000       15.9994           0
     21505 TIP3     3008     TIP3     H1       HT       0.417000       1.00800           0
     21506 TIP3     3008     TIP3     H2       HT       0.417000       1.00800           0
     21507 TIP3     3009     TIP3     OH2      OT      -0.834000       15.9994           0
     21508 TIP3     3009     TIP3     H1       HT       0.417000       1.00800           0
     21509 TIP3     3009     TIP3     H2       HT       0.417000       1.00800           0
     21510 TIP3     3010     TIP3     OH2      OT      -0.834000       15.9994           0
     21511 TIP3     3010     TIP3     H1       HT       0.417000       1.00800           0
     21512 TIP3     3010     TIP3     H2       HT       0.417000       1.00800           0
     21513 TIP3     3011     TIP3     OH2      OT      -0.834000       15.9994           0
     21514 TIP3     3011     TIP3     H1       HT       0.417000       1.00800           0
     21515 TIP3     3011     TIP3     H2       HT       0.417000       1.00800           0
     21516 TIP3     3012     TIP3     OH2      OT      -0.834000       15.9994           0
     21517 TIP3     3012     TIP3     H1       HT       0.417000       1.00800           0
     21518 TIP3     3012     TIP3     H2       HT       0.417000       1.00800           0
     21519 TIP3     3013     TIP3     OH2      OT      -0.834000       15.9994           0
     21520 TIP3     3013     TIP3     H1       HT       0.417000       1.00800           0
     21521 TIP3     3013     TIP3     H2       HT       0.417000       1.00800           0
     21522 TIP3     3014     TIP3     OH2      OT      -0.834000       15.9994           0
     21523 TIP3     3014     TIP3     H1       HT       0.417000       1.00800           0
     21524 TIP3     3014     TIP3     H2       HT       0.417000       1.00800           0
     21525 TIP3     3015     TIP3     OH2      OT      -0.834000       15.9994           0
     21526 TIP3     3015     TIP3     H1       HT       0.417000       1.00800           0
     21527 TIP3     3015     TIP3     H2       HT       0.417000       1.00800           0
     21528 TIP3     3016     TIP3     OH2      OT      -0.834000       15.9994           0
     21529 TIP3     3016     TIP3     H1       HT       0.417000       1.00800           0
     21530 TIP3     3016     TIP3     H2       HT       0.417000       1.00800           0
     21531 TIP3     3017     TIP3     OH2      OT      -0.834000       15.9994           0
     21532 TIP3     3017     TIP3     H1       HT       0.417000       1.00800           0
     21533 TIP3     3017     TIP3     H2       HT       0.417000       1.00800           0
     21534 TIP3     3018     TIP3     OH2      OT      -0.834000       15.9994           0
     21535 TIP3     3018     TIP3     H1       HT       0.417000       1.00800           0
     21536 TIP3     3018     TIP3     H2       HT       0.417000       1.00800           0
     21537 TIP3     3019     TIP3     OH2      OT      -0.834000       15.9994           0
     21538 TIP3     3019     TIP3     H1       HT       0.417000       1.00800           0
     21539 TIP3     3019     TIP3     H2       HT       0.417000       1.00800           0
     21540 TIP3     3020     TIP3     OH2      OT      -0.834000       15.9994           0
     21541 TIP3     3020     TIP3     H1       HT       0.417000       1.00800           0
     21542 TIP3     3020     TIP3     H2       HT       0.417000       1.00800           0
     21543 TIP3     3021     TIP3     OH2      OT      -0.834000       15.9994           0
     21544 TIP3     3021     TIP3     H1       HT       0.417000       1.00800           0
     21545 TIP3     3021     TIP3     H2       HT       0.417000       1.00800           0
     21546 TIP3     3022     TIP3     OH2      OT      -0.834000       15.9994           0
     21547 TIP3     3022     TIP3     H1       HT       0.417000       1.00800           0
     21548 TIP3     3022     TIP3     H2       HT       0.417000       1.00800           0
     21549 TIP3     3023     TIP3     OH2      OT      -0.834000       15.9994           0
     21550 TIP3     3023     TIP3     H1       HT       0.417000       1.00800           0
     21551 TIP3     3023     TIP3     H2       HT       0.417000       1.00800           0
     21552 TIP3     3024     TIP3     OH2      OT      -0.834000       15.9994           0
     21553 TIP3     3024     TIP3     H1       HT       0.417000       1.00800           0
     21554 TIP3     3024     TIP3     H2       HT       0.417000       1.00800           0
     21555 TIP3     3025     TIP3     OH2      OT      -0.834000       15.9994           0
     21556 TIP3     3025     TIP3     H1       HT       0.417000       1.00800           0
     21557 TIP3     3025     TIP3     H2       HT       0.417000       1.00800           0
     21558 TIP3     3026     TIP3     OH2      OT      -0.834000       15.9994           0
     21559 TIP3     3026     TIP3     H1       HT       0.417000       1.00800           0
     21560 TIP3     3026     TIP3     H2       HT       0.417000       1.00800           0
     21561 TIP3     3027     TIP3     OH2      OT      -0.834000       15.9994           0
     21562 TIP3     3027     TIP3     H1       HT       0.417000       1.00800           0
     21563 TIP3     3027     TIP3     H2       HT       0.417000       1.00800           0
     21564 TIP3     3028     TIP3     OH2      OT      -0.834000       15.9994           0
     21565 TIP3     3028     TIP3     H1       HT       0.417000       1.00800           0
     21566 TIP3     3028     TIP3     H2       HT       0.417000       1.00800           0
     21567 TIP3     3029     TIP3     OH2      OT      -0.834000       15.9994           0
     21568 TIP3     3029     TIP3     H1       HT       0.417000       1.00800           0
     21569 TIP3     3029     TIP3     H2       HT       0.417000       1.00800           0
     21570 TIP3     3030     TIP3     OH2      OT      -0.834000       15.9994           0
     21571 TIP3     3030     TIP3     H1       HT       0.417000       1.00800           0
     21572 TIP3     3030     TIP3     H2       HT       0.417000       1.00800           0
     21573 TIP3     3031     TIP3     OH2      OT      -0.834000       15.9994           0
     21574 TIP3     3031     TIP3     H1       HT       0.417000       1.00800           0
     21575 TIP3     3031     TIP3     H2       HT       0.417000       1.00800           0
     21576 TIP3     3032     TIP3     OH2      OT      -0.834000       15.9994           0
     21577 TIP3     3032     TIP3     H1       HT       0.417000       1.00800           0
     21578 TIP3     3032     TIP3     H2       HT       0.417000       1.00800           0
     21579 TIP3     3033     TIP3     OH2      OT      -0.834000       15.9994           0
     21580 TIP3     3033     TIP3     H1       HT       0.417000       1.00800           0
     21581 TIP3     3033     TIP3     H2       HT       0.417000       1.00800           0
     21582 TIP3     3034     TIP3     OH2      OT      -0.834000       15.9994           0
     21583 TIP3     3034     TIP3     H1       HT       0.417000       1.00800           0
     21584 TIP3     3034     TIP3     H2       HT       0.417000       1.00800           0
     21585 TIP3     3035     TIP3     OH2      OT      -0.834000       15.9994           0
     21586 TIP3     3035     TIP3     H1       HT       0.417000       1.00800           0
     21587 TIP3     3035     TIP3     H2       HT       0.417000       1.00800           0
     21588 TIP3     3036     TIP3     OH2      OT      -0.834000       15.9994           0
     21589 TIP3     3036     TIP3     H1       HT       0.417000       1.00800           0
     21590 TIP3     3036     TIP3     H2       HT       0.417000       1.00800           0
     21591 TIP3     3037     TIP3     OH2      OT      -0.834000       15.9994           0
     21592 TIP3     3037     TIP3     H1       HT       0.417000       1.00800           0
     21593 TIP3     3037     TIP3     H2       HT       0.417000       1.00800           0
     21594 TIP3     3038     TIP3     OH2      OT      -0.834000       15.9994           0
     21595 TIP3     3038     TIP3     H1       HT       0.417000       1.00800           0
     21596 TIP3     3038     TIP3     H2       HT       0.417000       1.00800           0
     21597 TIP3     3039     TIP3     OH2      OT      -0.834000       15.9994           0
     21598 TIP3     3039     TIP3     H1       HT       0.417000       1.00800           0
     21599 TIP3     3039     TIP3     H2       HT       0.417000       1.00800           0
     21600 TIP3     3040     TIP3     OH2      OT      -0.834000       15.9994           0
     21601 TIP3     3040     TIP3     H1       HT       0.417000       1.00800           0
     21602 TIP3     3040     TIP3     H2       HT       0.417000       1.00800           0
     21603 TIP3     3041     TIP3     OH2      OT      -0.834000       15.9994           0
     21604 TIP3     3041     TIP3     H1       HT       0.417000       1.00800           0
     21605 TIP3     3041     TIP3     H2       HT       0.417000       1.00800           0
     21606 TIP3     3042     TIP3     OH2      OT      -0.834000       15.9994           0
     21607 TIP3     3042     TIP3     H1       HT       0.417000       1.00800           0
     21608 TIP3     3042     TIP3     H2       HT       0.417000       1.00800           0
     21609 TIP3     3043     TIP3     OH2      OT      -0.834000       15.9994           0
     21610 TIP3     3043     TIP3     H1       HT       0.417000       1.00800           0
     21611 TIP3     3043     TIP3     H2       HT       0.417000       1.00800           0
     21612 TIP3     3044     TIP3     OH2      OT      -0.834000       15.9994           0
     21613 TIP3     3044     TIP3     H1       HT       0.417000       1.00800           0
     21614 TIP3     3044     TIP3     H2       HT       0.417000       1.00800           0
     21615 TIP3     3045     TIP3     OH2      OT      -0.834000       15.9994           0
     21616 TIP3     3045     TIP3     H1       HT       0.417000       1.00800           0
     21617 TIP3     3045     TIP3     H2       HT       0.417000       1.00800           0
     21618 TIP3     3046     TIP3     OH2      OT      -0.834000       15.9994           0
     21619 TIP3     3046     TIP3     H1       HT       0.417000       1.00800           0
     21620 TIP3     3046     TIP3     H2       HT       0.417000       1.00800           0
     21621 TIP3     3047     TIP3     OH2      OT      -0.834000       15.9994           0
     21622 TIP3     3047     TIP3     H1       HT       0.417000       1.00800           0
     21623 TIP3     3047     TIP3     H2       HT       0.417000       1.00800           0
     21624 TIP3     3048     TIP3     OH2      OT      -0.834000       15.9994           0
     21625 TIP3     3048     TIP3     H1       HT       0.417000       1.00800           0
     21626 TIP3     3048     TIP3     H2       HT       0.417000       1.00800           0
     21627 TIP3     3049     TIP3     OH2      OT      -0.834000       15.9994           0
     21628 TIP3     3049     TIP3     H1       HT       0.417000       1.00800           0
     21629 TIP3     3049     TIP3     H2       HT       0.417000       1.00800           0
     21630 TIP3     3050     TIP3     OH2      OT      -0.834000       15.9994           0
     21631 TIP3     3050     TIP3     H1       HT       0.417000       1.00800           0
     21632 TIP3     3050     TIP3     H2       HT       0.417000       1.00800           0
     21633 TIP3     3051     TIP3     OH2      OT      -0.834000       15.9994           0
     21634 TIP3     3051     TIP3     H1       HT       0.417000       1.00800           0
     21635 TIP3     3051     TIP3     H2       HT       0.417000       1.00800           0
     21636 TIP3     3052     TIP3     OH2      OT      -0.834000       15.9994           0
     21637 TIP3     3052     TIP3     H1       HT       0.417000       1.00800           0
     21638 TIP3     3052     TIP3     H2       HT       0.417000       1.00800           0
     21639 TIP3     3053     TIP3     OH2      OT      -0.834000       15.9994           0
     21640 TIP3     3053     TIP3     H1       HT       0.417000       1.00800           0
     21641 TIP3     3053     TIP3     H2       HT       0.417000       1.00800           0
     21642 TIP3     3054     TIP3     OH2      OT      -0.834000       15.9994           0
     21643 TIP3     3054     TIP3     H1       HT       0.417000       1.00800           0
     21644 TIP3     3054     TIP3     H2       HT       0.417000       1.00800           0
     21645 TIP3     3055     TIP3     OH2      OT      -0.834000       15.9994           0
     21646 TIP3     3055     TIP3     H1       HT       0.417000       1.00800           0
     21647 TIP3     3055     TIP3     H2       HT       0.417000       1.00800           0
     21648 TIP3     3056     TIP3     OH2      OT      -0.834000       15.9994           0
     21649 TIP3     3056     TIP3     H1       HT       0.417000       1.00800           0
     21650 TIP3     3056     TIP3     H2       HT       0.417000       1.00800           0
     21651 TIP3     3057     TIP3     OH2      OT      -0.834000       15.9994           0
     21652 TIP3     3057     TIP3     H1       HT       0.417000       1.00800           0
     21653 TIP3     3057     TIP3     H2       HT       0.417000       1.00800           0
     21654 TIP3     3058     TIP3     OH2      OT      -0.834000       15.9994           0
     21655 TIP3     3058     TIP3     H1       HT       0.417000       1.00800           0
     21656 TIP3     3058     TIP3     H2       HT       0.417000       1.00800           0
     21657 TIP3     3059     TIP3     OH2      OT      -0.834000       15.9994           0
     21658 TIP3     3059     TIP3     H1       HT       0.417000       1.00800           0
     21659 TIP3     3059     TIP3     H2       HT       0.417000       1.00800           0
     21660 TIP3     3060     TIP3     OH2      OT      -0.834000       15.9994           0
     21661 TIP3     3060     TIP3     H1       HT       0.417000       1.00800           0
     21662 TIP3     3060     TIP3     H2       HT       0.417000       1.00800           0
     21663 TIP3     3061     TIP3     OH2      OT      -0.834000       15.9994           0
     21664 TIP3     3061     TIP3     H1       HT       0.417000       1.00800           0
     21665 TIP3     3061     TIP3     H2       HT       0.417000       1.00800           0
     21666 TIP3     3062     TIP3     OH2      OT      -0.834000       15.9994           0
     21667 TIP3     3062     TIP3     H1       HT       0.417000       1.00800           0
     21668 TIP3     3062     TIP3     H2       HT       0.417000       1.00800           0
     21669 TIP3     3063     TIP3     OH2      OT      -0.834000       15.9994           0
     21670 TIP3     3063     TIP3     H1       HT       0.417000       1.00800           0
     21671 TIP3     3063     TIP3     H2       HT       0.417000       1.00800           0
     21672 TIP3     3064     TIP3     OH2      OT      -0.834000       15.9994           0
     21673 TIP3     3064     TIP3     H1       HT       0.417000       1.00800           0
     21674 TIP3     3064     TIP3     H2       HT       0.417000       1.00800           0
     21675 TIP3     3065     TIP3     OH2      OT      -0.834000       15.9994           0
     21676 TIP3     3065     TIP3     H1       HT       0.417000       1.00800           0
     21677 TIP3     3065     TIP3     H2       HT       0.417000       1.00800           0
     21678 TIP3     3066     TIP3     OH2      OT      -0.834000       15.9994           0
     21679 TIP3     3066     TIP3     H1       HT       0.417000       1.00800           0
     21680 TIP3     3066     TIP3     H2       HT       0.417000       1.00800           0
     21681 TIP3     3067     TIP3     OH2      OT      -0.834000       15.9994           0
     21682 TIP3     3067     TIP3     H1       HT       0.417000       1.00800           0
     21683 TIP3     3067     TIP3     H2       HT       0.417000       1.00800           0
     21684 TIP3     3068     TIP3     OH2      OT      -0.834000       15.9994           0
     21685 TIP3     3068     TIP3     H1       HT       0.417000       1.00800           0
     21686 TIP3     3068     TIP3     H2       HT       0.417000       1.00800           0
     21687 TIP3     3069     TIP3     OH2      OT      -0.834000       15.9994           0
     21688 TIP3     3069     TIP3     H1       HT       0.417000       1.00800           0
     21689 TIP3     3069     TIP3     H2       HT       0.417000       1.00800           0
     21690 TIP3     3070     TIP3     OH2      OT      -0.834000       15.9994           0
     21691 TIP3     3070     TIP3     H1       HT       0.417000       1.00800           0
     21692 TIP3     3070     TIP3     H2       HT       0.417000       1.00800           0
     21693 TIP3     3071     TIP3     OH2      OT      -0.834000       15.9994           0
     21694 TIP3     3071     TIP3     H1       HT       0.417000       1.00800           0
     21695 TIP3     3071     TIP3     H2       HT       0.417000       1.00800           0
     21696 TIP3     3072     TIP3     OH2      OT      -0.834000       15.9994           0
     21697 TIP3     3072     TIP3     H1       HT       0.417000       1.00800           0
     21698 TIP3     3072     TIP3     H2       HT       0.417000       1.00800           0
     21699 TIP3     3073     TIP3     OH2      OT      -0.834000       15.9994           0
     21700 TIP3     3073     TIP3     H1       HT       0.417000       1.00800           0
     21701 TIP3     3073     TIP3     H2       HT       0.417000       1.00800           0
     21702 TIP3     3074     TIP3     OH2      OT      -0.834000       15.9994           0
     21703 TIP3     3074     TIP3     H1       HT       0.417000       1.00800           0
     21704 TIP3     3074     TIP3     H2       HT       0.417000       1.00800           0
     21705 TIP3     3075     TIP3     OH2      OT      -0.834000       15.9994           0
     21706 TIP3     3075     TIP3     H1       HT       0.417000       1.00800           0
     21707 TIP3     3075     TIP3     H2       HT       0.417000       1.00800           0
     21708 TIP3     3076     TIP3     OH2      OT      -0.834000       15.9994           0
     21709 TIP3     3076     TIP3     H1       HT       0.417000       1.00800           0
     21710 TIP3     3076     TIP3     H2       HT       0.417000       1.00800           0
     21711 TIP3     3077     TIP3     OH2      OT      -0.834000       15.9994           0
     21712 TIP3     3077     TIP3     H1       HT       0.417000       1.00800           0
     21713 TIP3     3077     TIP3     H2       HT       0.417000       1.00800           0
     21714 TIP3     3078     TIP3     OH2      OT      -0.834000       15.9994           0
     21715 TIP3     3078     TIP3     H1       HT       0.417000       1.00800           0
     21716 TIP3     3078     TIP3     H2       HT       0.417000       1.00800           0
     21717 TIP3     3079     TIP3     OH2      OT      -0.834000       15.9994           0
     21718 TIP3     3079     TIP3     H1       HT       0.417000       1.00800           0
     21719 TIP3     3079     TIP3     H2       HT       0.417000       1.00800           0
     21720 TIP3     3080     TIP3     OH2      OT      -0.834000       15.9994           0
     21721 TIP3     3080     TIP3     H1       HT       0.417000       1.00800           0
     21722 TIP3     3080     TIP3     H2       HT       0.417000       1.00800           0
     21723 TIP3     3081     TIP3     OH2      OT      -0.834000       15.9994           0
     21724 TIP3     3081     TIP3     H1       HT       0.417000       1.00800           0
     21725 TIP3     3081     TIP3     H2       HT       0.417000       1.00800           0
     21726 TIP3     3082     TIP3     OH2      OT      -0.834000       15.9994           0
     21727 TIP3     3082     TIP3     H1       HT       0.417000       1.00800           0
     21728 TIP3     3082     TIP3     H2       HT       0.417000       1.00800           0
     21729 TIP3     3083     TIP3     OH2      OT      -0.834000       15.9994           0
     21730 TIP3     3083     TIP3     H1       HT       0.417000       1.00800           0
     21731 TIP3     3083     TIP3     H2       HT       0.417000       1.00800           0
     21732 TIP3     3084     TIP3     OH2      OT      -0.834000       15.9994           0
     21733 TIP3     3084     TIP3     H1       HT       0.417000       1.00800           0
     21734 TIP3     3084     TIP3     H2       HT       0.417000       1.00800           0
     21735 TIP3     3085     TIP3     OH2      OT      -0.834000       15.9994           0
     21736 TIP3     3085     TIP3     H1       HT       0.417000       1.00800           0
     21737 TIP3     3085     TIP3     H2       HT       0.417000       1.00800           0
     21738 TIP3     3086     TIP3     OH2      OT      -0.834000       15.9994           0
     21739 TIP3     3086     TIP3     H1       HT       0.417000       1.00800           0
     21740 TIP3     3086     TIP3     H2       HT       0.417000       1.00800           0
     21741 TIP3     3087     TIP3     OH2      OT      -0.834000       15.9994           0
     21742 TIP3     3087     TIP3     H1       HT       0.417000       1.00800           0
     21743 TIP3     3087     TIP3     H2       HT       0.417000       1.00800           0
     21744 TIP3     3088     TIP3     OH2      OT      -0.834000       15.9994           0
     21745 TIP3     3088     TIP3     H1       HT       0.417000       1.00800           0
     21746 TIP3     3088     TIP3     H2       HT       0.417000       1.00800           0
     21747 TIP3     3089     TIP3     OH2      OT      -0.834000       15.9994           0
     21748 TIP3     3089     TIP3     H1       HT       0.417000       1.00800           0
     21749 TIP3     3089     TIP3     H2       HT       0.417000       1.00800           0
     21750 TIP3     3090     TIP3     OH2      OT      -0.834000       15.9994           0
     21751 TIP3     3090     TIP3     H1       HT       0.417000       1.00800           0
     21752 TIP3     3090     TIP3     H2       HT       0.417000       1.00800           0
     21753 TIP3     3091     TIP3     OH2      OT      -0.834000       15.9994           0
     21754 TIP3     3091     TIP3     H1       HT       0.417000       1.00800           0
     21755 TIP3     3091     TIP3     H2       HT       0.417000       1.00800           0
     21756 TIP3     3092     TIP3     OH2      OT      -0.834000       15.9994           0
     21757 TIP3     3092     TIP3     H1       HT       0.417000       1.00800           0
     21758 TIP3     3092     TIP3     H2       HT       0.417000       1.00800           0
     21759 TIP3     3093     TIP3     OH2      OT      -0.834000       15.9994           0
     21760 TIP3     3093     TIP3     H1       HT       0.417000       1.00800           0
     21761 TIP3     3093     TIP3     H2       HT       0.417000       1.00800           0
     21762 TIP3     3094     TIP3     OH2      OT      -0.834000       15.9994           0
     21763 TIP3     3094     TIP3     H1       HT       0.417000       1.00800           0
     21764 TIP3     3094     TIP3     H2       HT       0.417000       1.00800           0
     21765 TIP3     3095     TIP3     OH2      OT      -0.834000       15.9994           0
     21766 TIP3     3095     TIP3     H1       HT       0.417000       1.00800           0
     21767 TIP3     3095     TIP3     H2       HT       0.417000       1.00800           0
     21768 TIP3     3096     TIP3     OH2      OT      -0.834000       15.9994           0
     21769 TIP3     3096     TIP3     H1       HT       0.417000       1.00800           0
     21770 TIP3     3096     TIP3     H2       HT       0.417000       1.00800           0
     21771 TIP3     3097     TIP3     OH2      OT      -0.834000       15.9994           0
     21772 TIP3     3097     TIP3     H1       HT       0.417000       1.00800           0
     21773 TIP3     3097     TIP3     H2       HT       0.417000       1.00800           0
     21774 TIP3     3098     TIP3     OH2      OT      -0.834000       15.9994           0
     21775 TIP3     3098     TIP3     H1       HT       0.417000       1.00800           0
     21776 TIP3     3098     TIP3     H2       HT       0.417000       1.00800           0
     21777 TIP3     3099     TIP3     OH2      OT      -0.834000       15.9994           0
     21778 TIP3     3099     TIP3     H1       HT       0.417000       1.00800           0
     21779 TIP3     3099     TIP3     H2       HT       0.417000       1.00800           0
     21780 TIP3     3100     TIP3     OH2      OT      -0.834000       15.9994           0
     21781 TIP3     3100     TIP3     H1       HT       0.417000       1.00800           0
     21782 TIP3     3100     TIP3     H2       HT       0.417000       1.00800           0
     21783 TIP3     3101     TIP3     OH2      OT      -0.834000       15.9994           0
     21784 TIP3     3101     TIP3     H1       HT       0.417000       1.00800           0
     21785 TIP3     3101     TIP3     H2       HT       0.417000       1.00800           0
     21786 TIP3     3102     TIP3     OH2      OT      -0.834000       15.9994           0
     21787 TIP3     3102     TIP3     H1       HT       0.417000       1.00800           0
     21788 TIP3     3102     TIP3     H2       HT       0.417000       1.00800           0
     21789 TIP3     3103     TIP3     OH2      OT      -0.834000       15.9994           0
     21790 TIP3     3103     TIP3     H1       HT       0.417000       1.00800           0
     21791 TIP3     3103     TIP3     H2       HT       0.417000       1.00800           0
     21792 TIP3     3104     TIP3     OH2      OT      -0.834000       15.9994           0
     21793 TIP3     3104     TIP3     H1       HT       0.417000       1.00800           0
     21794 TIP3     3104     TIP3     H2       HT       0.417000       1.00800           0
     21795 TIP3     3105     TIP3     OH2      OT      -0.834000       15.9994           0
     21796 TIP3     3105     TIP3     H1       HT       0.417000       1.00800           0
     21797 TIP3     3105     TIP3     H2       HT       0.417000       1.00800           0
     21798 TIP3     3106     TIP3     OH2      OT      -0.834000       15.9994           0
     21799 TIP3     3106     TIP3     H1       HT       0.417000       1.00800           0
     21800 TIP3     3106     TIP3     H2       HT       0.417000       1.00800           0
     21801 TIP3     3107     TIP3     OH2      OT      -0.834000       15.9994           0
     21802 TIP3     3107     TIP3     H1       HT       0.417000       1.00800           0
     21803 TIP3     3107     TIP3     H2       HT       0.417000       1.00800           0
     21804 TIP3     3108     TIP3     OH2      OT      -0.834000       15.9994           0
     21805 TIP3     3108     TIP3     H1       HT       0.417000       1.00800           0
     21806 TIP3     3108     TIP3     H2       HT       0.417000       1.00800           0
     21807 TIP3     3109     TIP3     OH2      OT      -0.834000       15.9994           0
     21808 TIP3     3109     TIP3     H1       HT       0.417000       1.00800           0
     21809 TIP3     3109     TIP3     H2       HT       0.417000       1.00800           0
     21810 TIP3     3110     TIP3     OH2      OT      -0.834000       15.9994           0
     21811 TIP3     3110     TIP3     H1       HT       0.417000       1.00800           0
     21812 TIP3     3110     TIP3     H2       HT       0.417000       1.00800           0
     21813 TIP3     3111     TIP3     OH2      OT      -0.834000       15.9994           0
     21814 TIP3     3111     TIP3     H1       HT       0.417000       1.00800           0
     21815 TIP3     3111     TIP3     H2       HT       0.417000       1.00800           0
     21816 TIP3     3112     TIP3     OH2      OT      -0.834000       15.9994           0
     21817 TIP3     3112     TIP3     H1       HT       0.417000       1.00800           0
     21818 TIP3     3112     TIP3     H2       HT       0.417000       1.00800           0
     21819 TIP3     3113     TIP3     OH2      OT      -0.834000       15.9994           0
     21820 TIP3     3113     TIP3     H1       HT       0.417000       1.00800           0
     21821 TIP3     3113     TIP3     H2       HT       0.417000       1.00800           0
     21822 TIP3     3114     TIP3     OH2      OT      -0.834000       15.9994           0
     21823 TIP3     3114     TIP3     H1       HT       0.417000       1.00800           0
     21824 TIP3     3114     TIP3     H2       HT       0.417000       1.00800           0
     21825 TIP3     3115     TIP3     OH2      OT      -0.834000       15.9994           0
     21826 TIP3     3115     TIP3     H1       HT       0.417000       1.00800           0
     21827 TIP3     3115     TIP3     H2       HT       0.417000       1.00800           0
     21828 TIP3     3116     TIP3     OH2      OT      -0.834000       15.9994           0
     21829 TIP3     3116     TIP3     H1       HT       0.417000       1.00800           0
     21830 TIP3     3116     TIP3     H2       HT       0.417000       1.00800           0
     21831 TIP3     3117     TIP3     OH2      OT      -0.834000       15.9994           0
     21832 TIP3     3117     TIP3     H1       HT       0.417000       1.00800           0
     21833 TIP3     3117     TIP3     H2       HT       0.417000       1.00800           0
     21834 TIP3     3118     TIP3     OH2      OT      -0.834000       15.9994           0
     21835 TIP3     3118     TIP3     H1       HT       0.417000       1.00800           0
     21836 TIP3     3118     TIP3     H2       HT       0.417000       1.00800           0
     21837 TIP3     3119     TIP3     OH2      OT      -0.834000       15.9994           0
     21838 TIP3     3119     TIP3     H1       HT       0.417000       1.00800           0
     21839 TIP3     3119     TIP3     H2       HT       0.417000       1.00800           0
     21840 TIP3     3120     TIP3     OH2      OT      -0.834000       15.9994           0
     21841 TIP3     3120     TIP3     H1       HT       0.417000       1.00800           0
     21842 TIP3     3120     TIP3     H2       HT       0.417000       1.00800           0
     21843 TIP3     3121     TIP3     OH2      OT      -0.834000       15.9994           0
     21844 TIP3     3121     TIP3     H1       HT       0.417000       1.00800           0
     21845 TIP3     3121     TIP3     H2       HT       0.417000       1.00800           0
     21846 TIP3     3122     TIP3     OH2      OT      -0.834000       15.9994           0
     21847 TIP3     3122     TIP3     H1       HT       0.417000       1.00800           0
     21848 TIP3     3122     TIP3     H2       HT       0.417000       1.00800           0
     21849 TIP3     3123     TIP3     OH2      OT      -0.834000       15.9994           0
     21850 TIP3     3123     TIP3     H1       HT       0.417000       1.00800           0
     21851 TIP3     3123     TIP3     H2       HT       0.417000       1.00800           0
     21852 TIP3     3124     TIP3     OH2      OT      -0.834000       15.9994           0
     21853 TIP3     3124     TIP3     H1       HT       0.417000       1.00800           0
     21854 TIP3     3124     TIP3     H2       HT       0.417000       1.00800           0
     21855 TIP3     3125     TIP3     OH2      OT      -0.834000       15.9994           0
     21856 TIP3     3125     TIP3     H1       HT       0.417000       1.00800           0
     21857 TIP3     3125     TIP3     H2       HT       0.417000       1.00800           0
     21858 TIP3     3126     TIP3     OH2      OT      -0.834000       15.9994           0
     21859 TIP3     3126     TIP3     H1       HT       0.417000       1.00800           0
     21860 TIP3     3126     TIP3     H2       HT       0.417000       1.00800           0
     21861 TIP3     3127     TIP3     OH2      OT      -0.834000       15.9994           0
     21862 TIP3     3127     TIP3     H1       HT       0.417000       1.00800           0
     21863 TIP3     3127     TIP3     H2       HT       0.417000       1.00800           0
     21864 TIP3     3128     TIP3     OH2      OT      -0.834000       15.9994           0
     21865 TIP3     3128     TIP3     H1       HT       0.417000       1.00800           0
     21866 TIP3     3128     TIP3     H2       HT       0.417000       1.00800           0
     21867 TIP3     3129     TIP3     OH2      OT      -0.834000       15.9994           0
     21868 TIP3     3129     TIP3     H1       HT       0.417000       1.00800           0
     21869 TIP3     3129     TIP3     H2       HT       0.417000       1.00800           0
     21870 TIP3     3130     TIP3     OH2      OT      -0.834000       15.9994           0
     21871 TIP3     3130     TIP3     H1       HT       0.417000       1.00800           0
     21872 TIP3     3130     TIP3     H2       HT       0.417000       1.00800           0
     21873 TIP3     3131     TIP3     OH2      OT      -0.834000       15.9994           0
     21874 TIP3     3131     TIP3     H1       HT       0.417000       1.00800           0
     21875 TIP3     3131     TIP3     H2       HT       0.417000       1.00800           0
     21876 TIP3     3132     TIP3     OH2      OT      -0.834000       15.9994           0
     21877 TIP3     3132     TIP3     H1       HT       0.417000       1.00800           0
     21878 TIP3     3132     TIP3     H2       HT       0.417000       1.00800           0
     21879 TIP3     3133     TIP3     OH2      OT      -0.834000       15.9994           0
     21880 TIP3     3133     TIP3     H1       HT       0.417000       1.00800           0
     21881 TIP3     3133     TIP3     H2       HT       0.417000       1.00800           0
     21882 TIP3     3134     TIP3     OH2      OT      -0.834000       15.9994           0
     21883 TIP3     3134     TIP3     H1       HT       0.417000       1.00800           0
     21884 TIP3     3134     TIP3     H2       HT       0.417000       1.00800           0
     21885 TIP3     3135     TIP3     OH2      OT      -0.834000       15.9994           0
     21886 TIP3     3135     TIP3     H1       HT       0.417000       1.00800           0
     21887 TIP3     3135     TIP3     H2       HT       0.417000       1.00800           0
     21888 TIP3     3136     TIP3     OH2      OT      -0.834000       15.9994           0
     21889 TIP3     3136     TIP3     H1       HT       0.417000       1.00800           0
     21890 TIP3     3136     TIP3     H2       HT       0.417000       1.00800           0
     21891 TIP3     3137     TIP3     OH2      OT      -0.834000       15.9994           0
     21892 TIP3     3137     TIP3     H1       HT       0.417000       1.00800           0
     21893 TIP3     3137     TIP3     H2       HT       0.417000       1.00800           0
     21894 TIP3     3138     TIP3     OH2      OT      -0.834000       15.9994           0
     21895 TIP3     3138     TIP3     H1       HT       0.417000       1.00800           0
     21896 TIP3     3138     TIP3     H2       HT       0.417000       1.00800           0
     21897 TIP3     3139     TIP3     OH2      OT      -0.834000       15.9994           0
     21898 TIP3     3139     TIP3     H1       HT       0.417000       1.00800           0
     21899 TIP3     3139     TIP3     H2       HT       0.417000       1.00800           0
     21900 TIP3     3140     TIP3     OH2      OT      -0.834000       15.9994           0
     21901 TIP3     3140     TIP3     H1       HT       0.417000       1.00800           0
     21902 TIP3     3140     TIP3     H2       HT       0.417000       1.00800           0
     21903 TIP3     3141     TIP3     OH2      OT      -0.834000       15.9994           0
     21904 TIP3     3141     TIP3     H1       HT       0.417000       1.00800           0
     21905 TIP3     3141     TIP3     H2       HT       0.417000       1.00800           0
     21906 TIP3     3142     TIP3     OH2      OT      -0.834000       15.9994           0
     21907 TIP3     3142     TIP3     H1       HT       0.417000       1.00800           0
     21908 TIP3     3142     TIP3     H2       HT       0.417000       1.00800           0
     21909 TIP3     3143     TIP3     OH2      OT      -0.834000       15.9994           0
     21910 TIP3     3143     TIP3     H1       HT       0.417000       1.00800           0
     21911 TIP3     3143     TIP3     H2       HT       0.417000       1.00800           0
     21912 TIP3     3144     TIP3     OH2      OT      -0.834000       15.9994           0
     21913 TIP3     3144     TIP3     H1       HT       0.417000       1.00800           0
     21914 TIP3     3144     TIP3     H2       HT       0.417000       1.00800           0
     21915 TIP3     3145     TIP3     OH2      OT      -0.834000       15.9994           0
     21916 TIP3     3145     TIP3     H1       HT       0.417000       1.00800           0
     21917 TIP3     3145     TIP3     H2       HT       0.417000       1.00800           0
     21918 TIP3     3146     TIP3     OH2      OT      -0.834000       15.9994           0
     21919 TIP3     3146     TIP3     H1       HT       0.417000       1.00800           0
     21920 TIP3     3146     TIP3     H2       HT       0.417000       1.00800           0
     21921 TIP3     3147     TIP3     OH2      OT      -0.834000       15.9994           0
     21922 TIP3     3147     TIP3     H1       HT       0.417000       1.00800           0
     21923 TIP3     3147     TIP3     H2       HT       0.417000       1.00800           0
     21924 TIP3     3148     TIP3     OH2      OT      -0.834000       15.9994           0
     21925 TIP3     3148     TIP3     H1       HT       0.417000       1.00800           0
     21926 TIP3     3148     TIP3     H2       HT       0.417000       1.00800           0
     21927 TIP3     3149     TIP3     OH2      OT      -0.834000       15.9994           0
     21928 TIP3     3149     TIP3     H1       HT       0.417000       1.00800           0
     21929 TIP3     3149     TIP3     H2       HT       0.417000       1.00800           0
     21930 TIP3     3150     TIP3     OH2      OT      -0.834000       15.9994           0
     21931 TIP3     3150     TIP3     H1       HT       0.417000       1.00800           0
     21932 TIP3     3150     TIP3     H2       HT       0.417000       1.00800           0
     21933 TIP3     3151     TIP3     OH2      OT      -0.834000       15.9994           0
     21934 TIP3     3151     TIP3     H1       HT       0.417000       1.00800           0
     21935 TIP3     3151     TIP3     H2       HT       0.417000       1.00800           0
     21936 TIP3     3152     TIP3     OH2      OT      -0.834000       15.9994           0
     21937 TIP3     3152     TIP3     H1       HT       0.417000       1.00800           0
     21938 TIP3     3152     TIP3     H2       HT       0.417000       1.00800           0
     21939 TIP3     3153     TIP3     OH2      OT      -0.834000       15.9994           0
     21940 TIP3     3153     TIP3     H1       HT       0.417000       1.00800           0
     21941 TIP3     3153     TIP3     H2       HT       0.417000       1.00800           0
     21942 TIP3     3154     TIP3     OH2      OT      -0.834000       15.9994           0
     21943 TIP3     3154     TIP3     H1       HT       0.417000       1.00800           0
     21944 TIP3     3154     TIP3     H2       HT       0.417000       1.00800           0
     21945 TIP3     3155     TIP3     OH2      OT      -0.834000       15.9994           0
     21946 TIP3     3155     TIP3     H1       HT       0.417000       1.00800           0
     21947 TIP3     3155     TIP3     H2       HT       0.417000       1.00800           0
     21948 TIP3     3156     TIP3     OH2      OT      -0.834000       15.9994           0
     21949 TIP3     3156     TIP3     H1       HT       0.417000       1.00800           0
     21950 TIP3     3156     TIP3     H2       HT       0.417000       1.00800           0
     21951 TIP3     3157     TIP3     OH2      OT      -0.834000       15.9994           0
     21952 TIP3     3157     TIP3     H1       HT       0.417000       1.00800           0
     21953 TIP3     3157     TIP3     H2       HT       0.417000       1.00800           0
     21954 TIP3     3158     TIP3     OH2      OT      -0.834000       15.9994           0
     21955 TIP3     3158     TIP3     H1       HT       0.417000       1.00800           0
     21956 TIP3     3158     TIP3     H2       HT       0.417000       1.00800           0
     21957 TIP3     3159     TIP3     OH2      OT      -0.834000       15.9994           0
     21958 TIP3     3159     TIP3     H1       HT       0.417000       1.00800           0
     21959 TIP3     3159     TIP3     H2       HT       0.417000       1.00800           0
     21960 TIP3     3160     TIP3     OH2      OT      -0.834000       15.9994           0
     21961 TIP3     3160     TIP3     H1       HT       0.417000       1.00800           0
     21962 TIP3     3160     TIP3     H2       HT       0.417000       1.00800           0
     21963 TIP3     3161     TIP3     OH2      OT      -0.834000       15.9994           0
     21964 TIP3     3161     TIP3     H1       HT       0.417000       1.00800           0
     21965 TIP3     3161     TIP3     H2       HT       0.417000       1.00800           0
     21966 TIP3     3162     TIP3     OH2      OT      -0.834000       15.9994           0
     21967 TIP3     3162     TIP3     H1       HT       0.417000       1.00800           0
     21968 TIP3     3162     TIP3     H2       HT       0.417000       1.00800           0
     21969 TIP3     3163     TIP3     OH2      OT      -0.834000       15.9994           0
     21970 TIP3     3163     TIP3     H1       HT       0.417000       1.00800           0
     21971 TIP3     3163     TIP3     H2       HT       0.417000       1.00800           0
     21972 TIP3     3164     TIP3     OH2      OT      -0.834000       15.9994           0
     21973 TIP3     3164     TIP3     H1       HT       0.417000       1.00800           0
     21974 TIP3     3164     TIP3     H2       HT       0.417000       1.00800           0
     21975 TIP3     3165     TIP3     OH2      OT      -0.834000       15.9994           0
     21976 TIP3     3165     TIP3     H1       HT       0.417000       1.00800           0
     21977 TIP3     3165     TIP3     H2       HT       0.417000       1.00800           0
     21978 TIP3     3166     TIP3     OH2      OT      -0.834000       15.9994           0
     21979 TIP3     3166     TIP3     H1       HT       0.417000       1.00800           0
     21980 TIP3     3166     TIP3     H2       HT       0.417000       1.00800           0
     21981 TIP3     3167     TIP3     OH2      OT      -0.834000       15.9994           0
     21982 TIP3     3167     TIP3     H1       HT       0.417000       1.00800           0
     21983 TIP3     3167     TIP3     H2       HT       0.417000       1.00800           0
     21984 TIP3     3168     TIP3     OH2      OT      -0.834000       15.9994           0
     21985 TIP3     3168     TIP3     H1       HT       0.417000       1.00800           0
     21986 TIP3     3168     TIP3     H2       HT       0.417000       1.00800           0
     21987 TIP3     3169     TIP3     OH2      OT      -0.834000       15.9994           0
     21988 TIP3     3169     TIP3     H1       HT       0.417000       1.00800           0
     21989 TIP3     3169     TIP3     H2       HT       0.417000       1.00800           0
     21990 TIP3     3170     TIP3     OH2      OT      -0.834000       15.9994           0
     21991 TIP3     3170     TIP3     H1       HT       0.417000       1.00800           0
     21992 TIP3     3170     TIP3     H2       HT       0.417000       1.00800           0
     21993 TIP3     3171     TIP3     OH2      OT      -0.834000       15.9994           0
     21994 TIP3     3171     TIP3     H1       HT       0.417000       1.00800           0
     21995 TIP3     3171     TIP3     H2       HT       0.417000       1.00800           0
     21996 TIP3     3172     TIP3     OH2      OT      -0.834000       15.9994           0
     21997 TIP3     3172     TIP3     H1       HT       0.417000       1.00800           0
     21998 TIP3     3172     TIP3     H2       HT       0.417000       1.00800           0
     21999 TIP3     3173     TIP3     OH2      OT      -0.834000       15.9994           0
     22000 TIP3     3173     TIP3     H1       HT       0.417000       1.00800           0
     22001 TIP3     3173     TIP3     H2       HT       0.417000       1.00800           0
     22002 TIP3     3174     TIP3     OH2      OT      -0.834000       15.9994           0
     22003 TIP3     3174     TIP3     H1       HT       0.417000       1.00800           0
     22004 TIP3     3174     TIP3     H2       HT       0.417000       1.00800           0
     22005 TIP3     3175     TIP3     OH2      OT      -0.834000       15.9994           0
     22006 TIP3     3175     TIP3     H1       HT       0.417000       1.00800           0
     22007 TIP3     3175     TIP3     H2       HT       0.417000       1.00800           0
     22008 TIP3     3176     TIP3     OH2      OT      -0.834000       15.9994           0
     22009 TIP3     3176     TIP3     H1       HT       0.417000       1.00800           0
     22010 TIP3     3176     TIP3     H2       HT       0.417000       1.00800           0
     22011 TIP3     3177     TIP3     OH2      OT      -0.834000       15.9994           0
     22012 TIP3     3177     TIP3     H1       HT       0.417000       1.00800           0
     22013 TIP3     3177     TIP3     H2       HT       0.417000       1.00800           0
     22014 TIP3     3178     TIP3     OH2      OT      -0.834000       15.9994           0
     22015 TIP3     3178     TIP3     H1       HT       0.417000       1.00800           0
     22016 TIP3     3178     TIP3     H2       HT       0.417000       1.00800           0
     22017 TIP3     3179     TIP3     OH2      OT      -0.834000       15.9994           0
     22018 TIP3     3179     TIP3     H1       HT       0.417000       1.00800           0
     22019 TIP3     3179     TIP3     H2       HT       0.417000       1.00800           0
     22020 TIP3     3180     TIP3     OH2      OT      -0.834000       15.9994           0
     22021 TIP3     3180     TIP3     H1       HT       0.417000       1.00800           0
     22022 TIP3     3180     TIP3     H2       HT       0.417000       1.00800           0
     22023 TIP3     3181     TIP3     OH2      OT      -0.834000       15.9994           0
     22024 TIP3     3181     TIP3     H1       HT       0.417000       1.00800           0
     22025 TIP3     3181     TIP3     H2       HT       0.417000       1.00800           0
     22026 TIP3     3182     TIP3     OH2      OT      -0.834000       15.9994           0
     22027 TIP3     3182     TIP3     H1       HT       0.417000       1.00800           0
     22028 TIP3     3182     TIP3     H2       HT       0.417000       1.00800           0
     22029 TIP3     3183     TIP3     OH2      OT      -0.834000       15.9994           0
     22030 TIP3     3183     TIP3     H1       HT       0.417000       1.00800           0
     22031 TIP3     3183     TIP3     H2       HT       0.417000       1.00800           0
     22032 TIP3     3184     TIP3     OH2      OT      -0.834000       15.9994           0
     22033 TIP3     3184     TIP3     H1       HT       0.417000       1.00800           0
     22034 TIP3     3184     TIP3     H2       HT       0.417000       1.00800           0
     22035 TIP3     3185     TIP3     OH2      OT      -0.834000       15.9994           0
     22036 TIP3     3185     TIP3     H1       HT       0.417000       1.00800           0
     22037 TIP3     3185     TIP3     H2       HT       0.417000       1.00800           0
     22038 TIP3     3186     TIP3     OH2      OT      -0.834000       15.9994           0
     22039 TIP3     3186     TIP3     H1       HT       0.417000       1.00800           0
     22040 TIP3     3186     TIP3     H2       HT       0.417000       1.00800           0
     22041 TIP3     3187     TIP3     OH2      OT      -0.834000       15.9994           0
     22042 TIP3     3187     TIP3     H1       HT       0.417000       1.00800           0
     22043 TIP3     3187     TIP3     H2       HT       0.417000       1.00800           0
     22044 TIP3     3188     TIP3     OH2      OT      -0.834000       15.9994           0
     22045 TIP3     3188     TIP3     H1       HT       0.417000       1.00800           0
     22046 TIP3     3188     TIP3     H2       HT       0.417000       1.00800           0
     22047 TIP3     3189     TIP3     OH2      OT      -0.834000       15.9994           0
     22048 TIP3     3189     TIP3     H1       HT       0.417000       1.00800           0
     22049 TIP3     3189     TIP3     H2       HT       0.417000       1.00800           0
     22050 TIP3     3190     TIP3     OH2      OT      -0.834000       15.9994           0
     22051 TIP3     3190     TIP3     H1       HT       0.417000       1.00800           0
     22052 TIP3     3190     TIP3     H2       HT       0.417000       1.00800           0
     22053 TIP3     3191     TIP3     OH2      OT      -0.834000       15.9994           0
     22054 TIP3     3191     TIP3     H1       HT       0.417000       1.00800           0
     22055 TIP3     3191     TIP3     H2       HT       0.417000       1.00800           0
     22056 TIP3     3192     TIP3     OH2      OT      -0.834000       15.9994           0
     22057 TIP3     3192     TIP3     H1       HT       0.417000       1.00800           0
     22058 TIP3     3192     TIP3     H2       HT       0.417000       1.00800           0
     22059 TIP3     3193     TIP3     OH2      OT      -0.834000       15.9994           0
     22060 TIP3     3193     TIP3     H1       HT       0.417000       1.00800           0
     22061 TIP3     3193     TIP3     H2       HT       0.417000       1.00800           0
     22062 TIP3     3194     TIP3     OH2      OT      -0.834000       15.9994           0
     22063 TIP3     3194     TIP3     H1       HT       0.417000       1.00800           0
     22064 TIP3     3194     TIP3     H2       HT       0.417000       1.00800           0
     22065 TIP3     3195     TIP3     OH2      OT      -0.834000       15.9994           0
     22066 TIP3     3195     TIP3     H1       HT       0.417000       1.00800           0
     22067 TIP3     3195     TIP3     H2       HT       0.417000       1.00800           0
     22068 TIP3     3196     TIP3     OH2      OT      -0.834000       15.9994           0
     22069 TIP3     3196     TIP3     H1       HT       0.417000       1.00800           0
     22070 TIP3     3196     TIP3     H2       HT       0.417000       1.00800           0
     22071 TIP3     3197     TIP3     OH2      OT      -0.834000       15.9994           0
     22072 TIP3     3197     TIP3     H1       HT       0.417000       1.00800           0
     22073 TIP3     3197     TIP3     H2       HT       0.417000       1.00800           0
     22074 TIP3     3198     TIP3     OH2      OT      -0.834000       15.9994           0
     22075 TIP3     3198     TIP3     H1       HT       0.417000       1.00800           0
     22076 TIP3     3198     TIP3     H2       HT       0.417000       1.00800           0
     22077 TIP3     3199     TIP3     OH2      OT      -0.834000       15.9994           0
     22078 TIP3     3199     TIP3     H1       HT       0.417000       1.00800           0
     22079 TIP3     3199     TIP3     H2       HT       0.417000       1.00800           0
     22080 TIP3     3200     TIP3     OH2      OT      -0.834000       15.9994           0
     22081 TIP3     3200     TIP3     H1       HT       0.417000       1.00800           0
     22082 TIP3     3200     TIP3     H2       HT       0.417000       1.00800           0
     22083 TIP3     3201     TIP3     OH2      OT      -0.834000       15.9994           0
     22084 TIP3     3201     TIP3     H1       HT       0.417000       1.00800           0
     22085 TIP3     3201     TIP3     H2       HT       0.417000       1.00800           0
     22086 TIP3     3202     TIP3     OH2      OT      -0.834000       15.9994           0
     22087 TIP3     3202     TIP3     H1       HT       0.417000       1.00800           0
     22088 TIP3     3202     TIP3     H2       HT       0.417000       1.00800           0
     22089 TIP3     3203     TIP3     OH2      OT      -0.834000       15.9994           0
     22090 TIP3     3203     TIP3     H1       HT       0.417000       1.00800           0
     22091 TIP3     3203     TIP3     H2       HT       0.417000       1.00800           0
     22092 TIP3     3204     TIP3     OH2      OT      -0.834000       15.9994           0
     22093 TIP3     3204     TIP3     H1       HT       0.417000       1.00800           0
     22094 TIP3     3204     TIP3     H2       HT       0.417000       1.00800           0
     22095 TIP3     3205     TIP3     OH2      OT      -0.834000       15.9994           0
     22096 TIP3     3205     TIP3     H1       HT       0.417000       1.00800           0
     22097 TIP3     3205     TIP3     H2       HT       0.417000       1.00800           0
     22098 TIP3     3206     TIP3     OH2      OT      -0.834000       15.9994           0
     22099 TIP3     3206     TIP3     H1       HT       0.417000       1.00800           0
     22100 TIP3     3206     TIP3     H2       HT       0.417000       1.00800           0
     22101 TIP3     3207     TIP3     OH2      OT      -0.834000       15.9994           0
     22102 TIP3     3207     TIP3     H1       HT       0.417000       1.00800           0
     22103 TIP3     3207     TIP3     H2       HT       0.417000       1.00800           0
     22104 TIP3     3208     TIP3     OH2      OT      -0.834000       15.9994           0
     22105 TIP3     3208     TIP3     H1       HT       0.417000       1.00800           0
     22106 TIP3     3208     TIP3     H2       HT       0.417000       1.00800           0
     22107 TIP3     3209     TIP3     OH2      OT      -0.834000       15.9994           0
     22108 TIP3     3209     TIP3     H1       HT       0.417000       1.00800           0
     22109 TIP3     3209     TIP3     H2       HT       0.417000       1.00800           0
     22110 TIP3     3210     TIP3     OH2      OT      -0.834000       15.9994           0
     22111 TIP3     3210     TIP3     H1       HT       0.417000       1.00800           0
     22112 TIP3     3210     TIP3     H2       HT       0.417000       1.00800           0
     22113 TIP3     3211     TIP3     OH2      OT      -0.834000       15.9994           0
     22114 TIP3     3211     TIP3     H1       HT       0.417000       1.00800           0
     22115 TIP3     3211     TIP3     H2       HT       0.417000       1.00800           0
     22116 TIP3     3212     TIP3     OH2      OT      -0.834000       15.9994           0
     22117 TIP3     3212     TIP3     H1       HT       0.417000       1.00800           0
     22118 TIP3     3212     TIP3     H2       HT       0.417000       1.00800           0
     22119 TIP3     3213     TIP3     OH2      OT      -0.834000       15.9994           0
     22120 TIP3     3213     TIP3     H1       HT       0.417000       1.00800           0
     22121 TIP3     3213     TIP3     H2       HT       0.417000       1.00800           0
     22122 TIP3     3214     TIP3     OH2      OT      -0.834000       15.9994           0
     22123 TIP3     3214     TIP3     H1       HT       0.417000       1.00800           0
     22124 TIP3     3214     TIP3     H2       HT       0.417000       1.00800           0
     22125 TIP3     3215     TIP3     OH2      OT      -0.834000       15.9994           0
     22126 TIP3     3215     TIP3     H1       HT       0.417000       1.00800           0
     22127 TIP3     3215     TIP3     H2       HT       0.417000       1.00800           0
     22128 TIP3     3216     TIP3     OH2      OT      -0.834000       15.9994           0
     22129 TIP3     3216     TIP3     H1       HT       0.417000       1.00800           0
     22130 TIP3     3216     TIP3     H2       HT       0.417000       1.00800           0
     22131 TIP3     3217     TIP3     OH2      OT      -0.834000       15.9994           0
     22132 TIP3     3217     TIP3     H1       HT       0.417000       1.00800           0
     22133 TIP3     3217     TIP3     H2       HT       0.417000       1.00800           0
     22134 TIP3     3218     TIP3     OH2      OT      -0.834000       15.9994           0
     22135 TIP3     3218     TIP3     H1       HT       0.417000       1.00800           0
     22136 TIP3     3218     TIP3     H2       HT       0.417000       1.00800           0
     22137 TIP3     3219     TIP3     OH2      OT      -0.834000       15.9994           0
     22138 TIP3     3219     TIP3     H1       HT       0.417000       1.00800           0
     22139 TIP3     3219     TIP3     H2       HT       0.417000       1.00800           0
     22140 TIP3     3220     TIP3     OH2      OT      -0.834000       15.9994           0
     22141 TIP3     3220     TIP3     H1       HT       0.417000       1.00800           0
     22142 TIP3     3220     TIP3     H2       HT       0.417000       1.00800           0
     22143 TIP3     3221     TIP3     OH2      OT      -0.834000       15.9994           0
     22144 TIP3     3221     TIP3     H1       HT       0.417000       1.00800           0
     22145 TIP3     3221     TIP3     H2       HT       0.417000       1.00800           0
     22146 TIP3     3222     TIP3     OH2      OT      -0.834000       15.9994           0
     22147 TIP3     3222     TIP3     H1       HT       0.417000       1.00800           0
     22148 TIP3     3222     TIP3     H2       HT       0.417000       1.00800           0
     22149 TIP3     3223     TIP3     OH2      OT      -0.834000       15.9994           0
     22150 TIP3     3223     TIP3     H1       HT       0.417000       1.00800           0
     22151 TIP3     3223     TIP3     H2       HT       0.417000       1.00800           0
     22152 TIP3     3224     TIP3     OH2      OT      -0.834000       15.9994           0
     22153 TIP3     3224     TIP3     H1       HT       0.417000       1.00800           0
     22154 TIP3     3224     TIP3     H2       HT       0.417000       1.00800           0
     22155 TIP3     3225     TIP3     OH2      OT      -0.834000       15.9994           0
     22156 TIP3     3225     TIP3     H1       HT       0.417000       1.00800           0
     22157 TIP3     3225     TIP3     H2       HT       0.417000       1.00800           0
     22158 TIP3     3226     TIP3     OH2      OT      -0.834000       15.9994           0
     22159 TIP3     3226     TIP3     H1       HT       0.417000       1.00800           0
     22160 TIP3     3226     TIP3     H2       HT       0.417000       1.00800           0
     22161 TIP3     3227     TIP3     OH2      OT      -0.834000       15.9994           0
     22162 TIP3     3227     TIP3     H1       HT       0.417000       1.00800           0
     22163 TIP3     3227     TIP3     H2       HT       0.417000       1.00800           0
     22164 TIP3     3228     TIP3     OH2      OT      -0.834000       15.9994           0
     22165 TIP3     3228     TIP3     H1       HT       0.417000       1.00800           0
     22166 TIP3     3228     TIP3     H2       HT       0.417000       1.00800           0
     22167 TIP3     3229     TIP3     OH2      OT      -0.834000       15.9994           0
     22168 TIP3     3229     TIP3     H1       HT       0.417000       1.00800           0
     22169 TIP3     3229     TIP3     H2       HT       0.417000       1.00800           0
     22170 TIP3     3230     TIP3     OH2      OT      -0.834000       15.9994           0
     22171 TIP3     3230     TIP3     H1       HT       0.417000       1.00800           0
     22172 TIP3     3230     TIP3     H2       HT       0.417000       1.00800           0
     22173 TIP3     3231     TIP3     OH2      OT      -0.834000       15.9994           0
     22174 TIP3     3231     TIP3     H1       HT       0.417000       1.00800           0
     22175 TIP3     3231     TIP3     H2       HT       0.417000       1.00800           0
     22176 TIP3     3232     TIP3     OH2      OT      -0.834000       15.9994           0
     22177 TIP3     3232     TIP3     H1       HT       0.417000       1.00800           0
     22178 TIP3     3232     TIP3     H2       HT       0.417000       1.00800           0
     22179 TIP3     3233     TIP3     OH2      OT      -0.834000       15.9994           0
     22180 TIP3     3233     TIP3     H1       HT       0.417000       1.00800           0
     22181 TIP3     3233     TIP3     H2       HT       0.417000       1.00800           0
     22182 TIP3     3234     TIP3     OH2      OT      -0.834000       15.9994           0
     22183 TIP3     3234     TIP3     H1       HT       0.417000       1.00800           0
     22184 TIP3     3234     TIP3     H2       HT       0.417000       1.00800           0
     22185 TIP3     3235     TIP3     OH2      OT      -0.834000       15.9994           0
     22186 TIP3     3235     TIP3     H1       HT       0.417000       1.00800           0
     22187 TIP3     3235     TIP3     H2       HT       0.417000       1.00800           0
     22188 TIP3     3236     TIP3     OH2      OT      -0.834000       15.9994           0
     22189 TIP3     3236     TIP3     H1       HT       0.417000       1.00800           0
     22190 TIP3     3236     TIP3     H2       HT       0.417000       1.00800           0
     22191 TIP3     3237     TIP3     OH2      OT      -0.834000       15.9994           0
     22192 TIP3     3237     TIP3     H1       HT       0.417000       1.00800           0
     22193 TIP3     3237     TIP3     H2       HT       0.417000       1.00800           0
     22194 TIP3     3238     TIP3     OH2      OT      -0.834000       15.9994           0
     22195 TIP3     3238     TIP3     H1       HT       0.417000       1.00800           0
     22196 TIP3     3238     TIP3     H2       HT       0.417000       1.00800           0
     22197 TIP3     3239     TIP3     OH2      OT      -0.834000       15.9994           0
     22198 TIP3     3239     TIP3     H1       HT       0.417000       1.00800           0
     22199 TIP3     3239     TIP3     H2       HT       0.417000       1.00800           0
     22200 TIP3     3240     TIP3     OH2      OT      -0.834000       15.9994           0
     22201 TIP3     3240     TIP3     H1       HT       0.417000       1.00800           0
     22202 TIP3     3240     TIP3     H2       HT       0.417000       1.00800           0
     22203 TIP3     3241     TIP3     OH2      OT      -0.834000       15.9994           0
     22204 TIP3     3241     TIP3     H1       HT       0.417000       1.00800           0
     22205 TIP3     3241     TIP3     H2       HT       0.417000       1.00800           0
     22206 TIP3     3242     TIP3     OH2      OT      -0.834000       15.9994           0
     22207 TIP3     3242     TIP3     H1       HT       0.417000       1.00800           0
     22208 TIP3     3242     TIP3     H2       HT       0.417000       1.00800           0
     22209 TIP3     3243     TIP3     OH2      OT      -0.834000       15.9994           0
     22210 TIP3     3243     TIP3     H1       HT       0.417000       1.00800           0
     22211 TIP3     3243     TIP3     H2       HT       0.417000       1.00800           0
     22212 TIP3     3244     TIP3     OH2      OT      -0.834000       15.9994           0
     22213 TIP3     3244     TIP3     H1       HT       0.417000       1.00800           0
     22214 TIP3     3244     TIP3     H2       HT       0.417000       1.00800           0
     22215 TIP3     3245     TIP3     OH2      OT      -0.834000       15.9994           0
     22216 TIP3     3245     TIP3     H1       HT       0.417000       1.00800           0
     22217 TIP3     3245     TIP3     H2       HT       0.417000       1.00800           0
     22218 TIP3     3246     TIP3     OH2      OT      -0.834000       15.9994           0
     22219 TIP3     3246     TIP3     H1       HT       0.417000       1.00800           0
     22220 TIP3     3246     TIP3     H2       HT       0.417000       1.00800           0
     22221 TIP3     3247     TIP3     OH2      OT      -0.834000       15.9994           0
     22222 TIP3     3247     TIP3     H1       HT       0.417000       1.00800           0
     22223 TIP3     3247     TIP3     H2       HT       0.417000       1.00800           0
     22224 TIP3     3248     TIP3     OH2      OT      -0.834000       15.9994           0
     22225 TIP3     3248     TIP3     H1       HT       0.417000       1.00800           0
     22226 TIP3     3248     TIP3     H2       HT       0.417000       1.00800           0
     22227 TIP3     3249     TIP3     OH2      OT      -0.834000       15.9994           0
     22228 TIP3     3249     TIP3     H1       HT       0.417000       1.00800           0
     22229 TIP3     3249     TIP3     H2       HT       0.417000       1.00800           0
     22230 TIP3     3250     TIP3     OH2      OT      -0.834000       15.9994           0
     22231 TIP3     3250     TIP3     H1       HT       0.417000       1.00800           0
     22232 TIP3     3250     TIP3     H2       HT       0.417000       1.00800           0
     22233 TIP3     3251     TIP3     OH2      OT      -0.834000       15.9994           0
     22234 TIP3     3251     TIP3     H1       HT       0.417000       1.00800           0
     22235 TIP3     3251     TIP3     H2       HT       0.417000       1.00800           0
     22236 TIP3     3252     TIP3     OH2      OT      -0.834000       15.9994           0
     22237 TIP3     3252     TIP3     H1       HT       0.417000       1.00800           0
     22238 TIP3     3252     TIP3     H2       HT       0.417000       1.00800           0
     22239 TIP3     3253     TIP3     OH2      OT      -0.834000       15.9994           0
     22240 TIP3     3253     TIP3     H1       HT       0.417000       1.00800           0
     22241 TIP3     3253     TIP3     H2       HT       0.417000       1.00800           0
     22242 TIP3     3254     TIP3     OH2      OT      -0.834000       15.9994           0
     22243 TIP3     3254     TIP3     H1       HT       0.417000       1.00800           0
     22244 TIP3     3254     TIP3     H2       HT       0.417000       1.00800           0
     22245 TIP3     3255     TIP3     OH2      OT      -0.834000       15.9994           0
     22246 TIP3     3255     TIP3     H1       HT       0.417000       1.00800           0
     22247 TIP3     3255     TIP3     H2       HT       0.417000       1.00800           0
     22248 TIP3     3256     TIP3     OH2      OT      -0.834000       15.9994           0
     22249 TIP3     3256     TIP3     H1       HT       0.417000       1.00800           0
     22250 TIP3     3256     TIP3     H2       HT       0.417000       1.00800           0
     22251 TIP3     3257     TIP3     OH2      OT      -0.834000       15.9994           0
     22252 TIP3     3257     TIP3     H1       HT       0.417000       1.00800           0
     22253 TIP3     3257     TIP3     H2       HT       0.417000       1.00800           0
     22254 TIP3     3258     TIP3     OH2      OT      -0.834000       15.9994           0
     22255 TIP3     3258     TIP3     H1       HT       0.417000       1.00800           0
     22256 TIP3     3258     TIP3     H2       HT       0.417000       1.00800           0
     22257 TIP3     3259     TIP3     OH2      OT      -0.834000       15.9994           0
     22258 TIP3     3259     TIP3     H1       HT       0.417000       1.00800           0
     22259 TIP3     3259     TIP3     H2       HT       0.417000       1.00800           0
     22260 TIP3     3260     TIP3     OH2      OT      -0.834000       15.9994           0
     22261 TIP3     3260     TIP3     H1       HT       0.417000       1.00800           0
     22262 TIP3     3260     TIP3     H2       HT       0.417000       1.00800           0
     22263 TIP3     3261     TIP3     OH2      OT      -0.834000       15.9994           0
     22264 TIP3     3261     TIP3     H1       HT       0.417000       1.00800           0
     22265 TIP3     3261     TIP3     H2       HT       0.417000       1.00800           0
     22266 TIP3     3262     TIP3     OH2      OT      -0.834000       15.9994           0
     22267 TIP3     3262     TIP3     H1       HT       0.417000       1.00800           0
     22268 TIP3     3262     TIP3     H2       HT       0.417000       1.00800           0
     22269 TIP3     3263     TIP3     OH2      OT      -0.834000       15.9994           0
     22270 TIP3     3263     TIP3     H1       HT       0.417000       1.00800           0
     22271 TIP3     3263     TIP3     H2       HT       0.417000       1.00800           0
     22272 TIP3     3264     TIP3     OH2      OT      -0.834000       15.9994           0
     22273 TIP3     3264     TIP3     H1       HT       0.417000       1.00800           0
     22274 TIP3     3264     TIP3     H2       HT       0.417000       1.00800           0
     22275 TIP3     3265     TIP3     OH2      OT      -0.834000       15.9994           0
     22276 TIP3     3265     TIP3     H1       HT       0.417000       1.00800           0
     22277 TIP3     3265     TIP3     H2       HT       0.417000       1.00800           0
     22278 TIP3     3266     TIP3     OH2      OT      -0.834000       15.9994           0
     22279 TIP3     3266     TIP3     H1       HT       0.417000       1.00800           0
     22280 TIP3     3266     TIP3     H2       HT       0.417000       1.00800           0
     22281 TIP3     3267     TIP3     OH2      OT      -0.834000       15.9994           0
     22282 TIP3     3267     TIP3     H1       HT       0.417000       1.00800           0
     22283 TIP3     3267     TIP3     H2       HT       0.417000       1.00800           0
     22284 TIP3     3268     TIP3     OH2      OT      -0.834000       15.9994           0
     22285 TIP3     3268     TIP3     H1       HT       0.417000       1.00800           0
     22286 TIP3     3268     TIP3     H2       HT       0.417000       1.00800           0
     22287 TIP3     3269     TIP3     OH2      OT      -0.834000       15.9994           0
     22288 TIP3     3269     TIP3     H1       HT       0.417000       1.00800           0
     22289 TIP3     3269     TIP3     H2       HT       0.417000       1.00800           0
     22290 TIP3     3270     TIP3     OH2      OT      -0.834000       15.9994           0
     22291 TIP3     3270     TIP3     H1       HT       0.417000       1.00800           0
     22292 TIP3     3270     TIP3     H2       HT       0.417000       1.00800           0
     22293 TIP3     3271     TIP3     OH2      OT      -0.834000       15.9994           0
     22294 TIP3     3271     TIP3     H1       HT       0.417000       1.00800           0
     22295 TIP3     3271     TIP3     H2       HT       0.417000       1.00800           0
     22296 TIP3     3272     TIP3     OH2      OT      -0.834000       15.9994           0
     22297 TIP3     3272     TIP3     H1       HT       0.417000       1.00800           0
     22298 TIP3     3272     TIP3     H2       HT       0.417000       1.00800           0
     22299 TIP3     3273     TIP3     OH2      OT      -0.834000       15.9994           0
     22300 TIP3     3273     TIP3     H1       HT       0.417000       1.00800           0
     22301 TIP3     3273     TIP3     H2       HT       0.417000       1.00800           0
     22302 TIP3     3274     TIP3     OH2      OT      -0.834000       15.9994           0
     22303 TIP3     3274     TIP3     H1       HT       0.417000       1.00800           0
     22304 TIP3     3274     TIP3     H2       HT       0.417000       1.00800           0
     22305 TIP3     3275     TIP3     OH2      OT      -0.834000       15.9994           0
     22306 TIP3     3275     TIP3     H1       HT       0.417000       1.00800           0
     22307 TIP3     3275     TIP3     H2       HT       0.417000       1.00800           0
     22308 TIP3     3276     TIP3     OH2      OT      -0.834000       15.9994           0
     22309 TIP3     3276     TIP3     H1       HT       0.417000       1.00800           0
     22310 TIP3     3276     TIP3     H2       HT       0.417000       1.00800           0
     22311 TIP3     3277     TIP3     OH2      OT      -0.834000       15.9994           0
     22312 TIP3     3277     TIP3     H1       HT       0.417000       1.00800           0
     22313 TIP3     3277     TIP3     H2       HT       0.417000       1.00800           0
     22314 TIP3     3278     TIP3     OH2      OT      -0.834000       15.9994           0
     22315 TIP3     3278     TIP3     H1       HT       0.417000       1.00800           0
     22316 TIP3     3278     TIP3     H2       HT       0.417000       1.00800           0
     22317 TIP3     3279     TIP3     OH2      OT      -0.834000       15.9994           0
     22318 TIP3     3279     TIP3     H1       HT       0.417000       1.00800           0
     22319 TIP3     3279     TIP3     H2       HT       0.417000       1.00800           0
     22320 TIP3     3280     TIP3     OH2      OT      -0.834000       15.9994           0
     22321 TIP3     3280     TIP3     H1       HT       0.417000       1.00800           0
     22322 TIP3     3280     TIP3     H2       HT       0.417000       1.00800           0
     22323 TIP3     3281     TIP3     OH2      OT      -0.834000       15.9994           0
     22324 TIP3     3281     TIP3     H1       HT       0.417000       1.00800           0
     22325 TIP3     3281     TIP3     H2       HT       0.417000       1.00800           0
     22326 TIP3     3282     TIP3     OH2      OT      -0.834000       15.9994           0
     22327 TIP3     3282     TIP3     H1       HT       0.417000       1.00800           0
     22328 TIP3     3282     TIP3     H2       HT       0.417000       1.00800           0
     22329 TIP3     3283     TIP3     OH2      OT      -0.834000       15.9994           0
     22330 TIP3     3283     TIP3     H1       HT       0.417000       1.00800           0
     22331 TIP3     3283     TIP3     H2       HT       0.417000       1.00800           0
     22332 TIP3     3284     TIP3     OH2      OT      -0.834000       15.9994           0
     22333 TIP3     3284     TIP3     H1       HT       0.417000       1.00800           0
     22334 TIP3     3284     TIP3     H2       HT       0.417000       1.00800           0
     22335 TIP3     3285     TIP3     OH2      OT      -0.834000       15.9994           0
     22336 TIP3     3285     TIP3     H1       HT       0.417000       1.00800           0
     22337 TIP3     3285     TIP3     H2       HT       0.417000       1.00800           0
     22338 TIP3     3286     TIP3     OH2      OT      -0.834000       15.9994           0
     22339 TIP3     3286     TIP3     H1       HT       0.417000       1.00800           0
     22340 TIP3     3286     TIP3     H2       HT       0.417000       1.00800           0
     22341 TIP3     3287     TIP3     OH2      OT      -0.834000       15.9994           0
     22342 TIP3     3287     TIP3     H1       HT       0.417000       1.00800           0
     22343 TIP3     3287     TIP3     H2       HT       0.417000       1.00800           0
     22344 TIP3     3288     TIP3     OH2      OT      -0.834000       15.9994           0
     22345 TIP3     3288     TIP3     H1       HT       0.417000       1.00800           0
     22346 TIP3     3288     TIP3     H2       HT       0.417000       1.00800           0
     22347 TIP3     3289     TIP3     OH2      OT      -0.834000       15.9994           0
     22348 TIP3     3289     TIP3     H1       HT       0.417000       1.00800           0
     22349 TIP3     3289     TIP3     H2       HT       0.417000       1.00800           0
     22350 TIP3     3290     TIP3     OH2      OT      -0.834000       15.9994           0
     22351 TIP3     3290     TIP3     H1       HT       0.417000       1.00800           0
     22352 TIP3     3290     TIP3     H2       HT       0.417000       1.00800           0
     22353 TIP3     3291     TIP3     OH2      OT      -0.834000       15.9994           0
     22354 TIP3     3291     TIP3     H1       HT       0.417000       1.00800           0
     22355 TIP3     3291     TIP3     H2       HT       0.417000       1.00800           0
     22356 TIP3     3292     TIP3     OH2      OT      -0.834000       15.9994           0
     22357 TIP3     3292     TIP3     H1       HT       0.417000       1.00800           0
     22358 TIP3     3292     TIP3     H2       HT       0.417000       1.00800           0
     22359 TIP3     3293     TIP3     OH2      OT      -0.834000       15.9994           0
     22360 TIP3     3293     TIP3     H1       HT       0.417000       1.00800           0
     22361 TIP3     3293     TIP3     H2       HT       0.417000       1.00800           0
     22362 TIP3     3294     TIP3     OH2      OT      -0.834000       15.9994           0
     22363 TIP3     3294     TIP3     H1       HT       0.417000       1.00800           0
     22364 TIP3     3294     TIP3     H2       HT       0.417000       1.00800           0
     22365 TIP3     3295     TIP3     OH2      OT      -0.834000       15.9994           0
     22366 TIP3     3295     TIP3     H1       HT       0.417000       1.00800           0
     22367 TIP3     3295     TIP3     H2       HT       0.417000       1.00800           0
     22368 TIP3     3296     TIP3     OH2      OT      -0.834000       15.9994           0
     22369 TIP3     3296     TIP3     H1       HT       0.417000       1.00800           0
     22370 TIP3     3296     TIP3     H2       HT       0.417000       1.00800           0
     22371 TIP3     3297     TIP3     OH2      OT      -0.834000       15.9994           0
     22372 TIP3     3297     TIP3     H1       HT       0.417000       1.00800           0
     22373 TIP3     3297     TIP3     H2       HT       0.417000       1.00800           0
     22374 TIP3     3298     TIP3     OH2      OT      -0.834000       15.9994           0
     22375 TIP3     3298     TIP3     H1       HT       0.417000       1.00800           0
     22376 TIP3     3298     TIP3     H2       HT       0.417000       1.00800           0
     22377 TIP3     3299     TIP3     OH2      OT      -0.834000       15.9994           0
     22378 TIP3     3299     TIP3     H1       HT       0.417000       1.00800           0
     22379 TIP3     3299     TIP3     H2       HT       0.417000       1.00800           0
     22380 TIP3     3300     TIP3     OH2      OT      -0.834000       15.9994           0
     22381 TIP3     3300     TIP3     H1       HT       0.417000       1.00800           0
     22382 TIP3     3300     TIP3     H2       HT       0.417000       1.00800           0
     22383 TIP3     3301     TIP3     OH2      OT      -0.834000       15.9994           0
     22384 TIP3     3301     TIP3     H1       HT       0.417000       1.00800           0
     22385 TIP3     3301     TIP3     H2       HT       0.417000       1.00800           0
     22386 TIP3     3302     TIP3     OH2      OT      -0.834000       15.9994           0
     22387 TIP3     3302     TIP3     H1       HT       0.417000       1.00800           0
     22388 TIP3     3302     TIP3     H2       HT       0.417000       1.00800           0
     22389 TIP3     3303     TIP3     OH2      OT      -0.834000       15.9994           0
     22390 TIP3     3303     TIP3     H1       HT       0.417000       1.00800           0
     22391 TIP3     3303     TIP3     H2       HT       0.417000       1.00800           0
     22392 TIP3     3304     TIP3     OH2      OT      -0.834000       15.9994           0
     22393 TIP3     3304     TIP3     H1       HT       0.417000       1.00800           0
     22394 TIP3     3304     TIP3     H2       HT       0.417000       1.00800           0
     22395 TIP3     3305     TIP3     OH2      OT      -0.834000       15.9994           0
     22396 TIP3     3305     TIP3     H1       HT       0.417000       1.00800           0
     22397 TIP3     3305     TIP3     H2       HT       0.417000       1.00800           0
     22398 TIP3     3306     TIP3     OH2      OT      -0.834000       15.9994           0
     22399 TIP3     3306     TIP3     H1       HT       0.417000       1.00800           0
     22400 TIP3     3306     TIP3     H2       HT       0.417000       1.00800           0
     22401 TIP3     3307     TIP3     OH2      OT      -0.834000       15.9994           0
     22402 TIP3     3307     TIP3     H1       HT       0.417000       1.00800           0
     22403 TIP3     3307     TIP3     H2       HT       0.417000       1.00800           0
     22404 TIP3     3308     TIP3     OH2      OT      -0.834000       15.9994           0
     22405 TIP3     3308     TIP3     H1       HT       0.417000       1.00800           0
     22406 TIP3     3308     TIP3     H2       HT       0.417000       1.00800           0
     22407 TIP3     3309     TIP3     OH2      OT      -0.834000       15.9994           0
     22408 TIP3     3309     TIP3     H1       HT       0.417000       1.00800           0
     22409 TIP3     3309     TIP3     H2       HT       0.417000       1.00800           0
     22410 TIP3     3310     TIP3     OH2      OT      -0.834000       15.9994           0
     22411 TIP3     3310     TIP3     H1       HT       0.417000       1.00800           0
     22412 TIP3     3310     TIP3     H2       HT       0.417000       1.00800           0
     22413 TIP3     3311     TIP3     OH2      OT      -0.834000       15.9994           0
     22414 TIP3     3311     TIP3     H1       HT       0.417000       1.00800           0
     22415 TIP3     3311     TIP3     H2       HT       0.417000       1.00800           0
     22416 TIP3     3312     TIP3     OH2      OT      -0.834000       15.9994           0
     22417 TIP3     3312     TIP3     H1       HT       0.417000       1.00800           0
     22418 TIP3     3312     TIP3     H2       HT       0.417000       1.00800           0
     22419 TIP3     3313     TIP3     OH2      OT      -0.834000       15.9994           0
     22420 TIP3     3313     TIP3     H1       HT       0.417000       1.00800           0
     22421 TIP3     3313     TIP3     H2       HT       0.417000       1.00800           0
     22422 TIP3     3314     TIP3     OH2      OT      -0.834000       15.9994           0
     22423 TIP3     3314     TIP3     H1       HT       0.417000       1.00800           0
     22424 TIP3     3314     TIP3     H2       HT       0.417000       1.00800           0
     22425 TIP3     3315     TIP3     OH2      OT      -0.834000       15.9994           0
     22426 TIP3     3315     TIP3     H1       HT       0.417000       1.00800           0
     22427 TIP3     3315     TIP3     H2       HT       0.417000       1.00800           0
     22428 TIP3     3316     TIP3     OH2      OT      -0.834000       15.9994           0
     22429 TIP3     3316     TIP3     H1       HT       0.417000       1.00800           0
     22430 TIP3     3316     TIP3     H2       HT       0.417000       1.00800           0
     22431 TIP3     3317     TIP3     OH2      OT      -0.834000       15.9994           0
     22432 TIP3     3317     TIP3     H1       HT       0.417000       1.00800           0
     22433 TIP3     3317     TIP3     H2       HT       0.417000       1.00800           0
     22434 TIP3     3318     TIP3     OH2      OT      -0.834000       15.9994           0
     22435 TIP3     3318     TIP3     H1       HT       0.417000       1.00800           0
     22436 TIP3     3318     TIP3     H2       HT       0.417000       1.00800           0
     22437 TIP3     3319     TIP3     OH2      OT      -0.834000       15.9994           0
     22438 TIP3     3319     TIP3     H1       HT       0.417000       1.00800           0
     22439 TIP3     3319     TIP3     H2       HT       0.417000       1.00800           0
     22440 TIP3     3320     TIP3     OH2      OT      -0.834000       15.9994           0
     22441 TIP3     3320     TIP3     H1       HT       0.417000       1.00800           0
     22442 TIP3     3320     TIP3     H2       HT       0.417000       1.00800           0
     22443 TIP3     3321     TIP3     OH2      OT      -0.834000       15.9994           0
     22444 TIP3     3321     TIP3     H1       HT       0.417000       1.00800           0
     22445 TIP3     3321     TIP3     H2       HT       0.417000       1.00800           0
     22446 TIP3     3322     TIP3     OH2      OT      -0.834000       15.9994           0
     22447 TIP3     3322     TIP3     H1       HT       0.417000       1.00800           0
     22448 TIP3     3322     TIP3     H2       HT       0.417000       1.00800           0
     22449 TIP3     3323     TIP3     OH2      OT      -0.834000       15.9994           0
     22450 TIP3     3323     TIP3     H1       HT       0.417000       1.00800           0
     22451 TIP3     3323     TIP3     H2       HT       0.417000       1.00800           0
     22452 TIP3     3324     TIP3     OH2      OT      -0.834000       15.9994           0
     22453 TIP3     3324     TIP3     H1       HT       0.417000       1.00800           0
     22454 TIP3     3324     TIP3     H2       HT       0.417000       1.00800           0
     22455 TIP3     3325     TIP3     OH2      OT      -0.834000       15.9994           0
     22456 TIP3     3325     TIP3     H1       HT       0.417000       1.00800           0
     22457 TIP3     3325     TIP3     H2       HT       0.417000       1.00800           0
     22458 TIP3     3326     TIP3     OH2      OT      -0.834000       15.9994           0
     22459 TIP3     3326     TIP3     H1       HT       0.417000       1.00800           0
     22460 TIP3     3326     TIP3     H2       HT       0.417000       1.00800           0
     22461 TIP3     3327     TIP3     OH2      OT      -0.834000       15.9994           0
     22462 TIP3     3327     TIP3     H1       HT       0.417000       1.00800           0
     22463 TIP3     3327     TIP3     H2       HT       0.417000       1.00800           0
     22464 TIP3     3328     TIP3     OH2      OT      -0.834000       15.9994           0
     22465 TIP3     3328     TIP3     H1       HT       0.417000       1.00800           0
     22466 TIP3     3328     TIP3     H2       HT       0.417000       1.00800           0
     22467 TIP3     3329     TIP3     OH2      OT      -0.834000       15.9994           0
     22468 TIP3     3329     TIP3     H1       HT       0.417000       1.00800           0
     22469 TIP3     3329     TIP3     H2       HT       0.417000       1.00800           0
     22470 TIP3     3330     TIP3     OH2      OT      -0.834000       15.9994           0
     22471 TIP3     3330     TIP3     H1       HT       0.417000       1.00800           0
     22472 TIP3     3330     TIP3     H2       HT       0.417000       1.00800           0
     22473 TIP3     3331     TIP3     OH2      OT      -0.834000       15.9994           0
     22474 TIP3     3331     TIP3     H1       HT       0.417000       1.00800           0
     22475 TIP3     3331     TIP3     H2       HT       0.417000       1.00800           0
     22476 TIP3     3332     TIP3     OH2      OT      -0.834000       15.9994           0
     22477 TIP3     3332     TIP3     H1       HT       0.417000       1.00800           0
     22478 TIP3     3332     TIP3     H2       HT       0.417000       1.00800           0
     22479 TIP3     3333     TIP3     OH2      OT      -0.834000       15.9994           0
     22480 TIP3     3333     TIP3     H1       HT       0.417000       1.00800           0
     22481 TIP3     3333     TIP3     H2       HT       0.417000       1.00800           0
     22482 TIP3     3334     TIP3     OH2      OT      -0.834000       15.9994           0
     22483 TIP3     3334     TIP3     H1       HT       0.417000       1.00800           0
     22484 TIP3     3334     TIP3     H2       HT       0.417000       1.00800           0
     22485 TIP3     3335     TIP3     OH2      OT      -0.834000       15.9994           0
     22486 TIP3     3335     TIP3     H1       HT       0.417000       1.00800           0
     22487 TIP3     3335     TIP3     H2       HT       0.417000       1.00800           0
     22488 TIP3     3336     TIP3     OH2      OT      -0.834000       15.9994           0
     22489 TIP3     3336     TIP3     H1       HT       0.417000       1.00800           0
     22490 TIP3     3336     TIP3     H2       HT       0.417000       1.00800           0
     22491 TIP3     3337     TIP3     OH2      OT      -0.834000       15.9994           0
     22492 TIP3     3337     TIP3     H1       HT       0.417000       1.00800           0
     22493 TIP3     3337     TIP3     H2       HT       0.417000       1.00800           0
     22494 TIP3     3338     TIP3     OH2      OT      -0.834000       15.9994           0
     22495 TIP3     3338     TIP3     H1       HT       0.417000       1.00800           0
     22496 TIP3     3338     TIP3     H2       HT       0.417000       1.00800           0
     22497 TIP3     3339     TIP3     OH2      OT      -0.834000       15.9994           0
     22498 TIP3     3339     TIP3     H1       HT       0.417000       1.00800           0
     22499 TIP3     3339     TIP3     H2       HT       0.417000       1.00800           0
     22500 TIP3     3340     TIP3     OH2      OT      -0.834000       15.9994           0
     22501 TIP3     3340     TIP3     H1       HT       0.417000       1.00800           0
     22502 TIP3     3340     TIP3     H2       HT       0.417000       1.00800           0
     22503 TIP3     3341     TIP3     OH2      OT      -0.834000       15.9994           0
     22504 TIP3     3341     TIP3     H1       HT       0.417000       1.00800           0
     22505 TIP3     3341     TIP3     H2       HT       0.417000       1.00800           0
     22506 TIP3     3342     TIP3     OH2      OT      -0.834000       15.9994           0
     22507 TIP3     3342     TIP3     H1       HT       0.417000       1.00800           0
     22508 TIP3     3342     TIP3     H2       HT       0.417000       1.00800           0
     22509 TIP3     3343     TIP3     OH2      OT      -0.834000       15.9994           0
     22510 TIP3     3343     TIP3     H1       HT       0.417000       1.00800           0
     22511 TIP3     3343     TIP3     H2       HT       0.417000       1.00800           0
     22512 TIP3     3344     TIP3     OH2      OT      -0.834000       15.9994           0
     22513 TIP3     3344     TIP3     H1       HT       0.417000       1.00800           0
     22514 TIP3     3344     TIP3     H2       HT       0.417000       1.00800           0
     22515 TIP3     3345     TIP3     OH2      OT      -0.834000       15.9994           0
     22516 TIP3     3345     TIP3     H1       HT       0.417000       1.00800           0
     22517 TIP3     3345     TIP3     H2       HT       0.417000       1.00800           0
     22518 TIP3     3346     TIP3     OH2      OT      -0.834000       15.9994           0
     22519 TIP3     3346     TIP3     H1       HT       0.417000       1.00800           0
     22520 TIP3     3346     TIP3     H2       HT       0.417000       1.00800           0
     22521 TIP3     3347     TIP3     OH2      OT      -0.834000       15.9994           0
     22522 TIP3     3347     TIP3     H1       HT       0.417000       1.00800           0
     22523 TIP3     3347     TIP3     H2       HT       0.417000       1.00800           0
     22524 TIP3     3348     TIP3     OH2      OT      -0.834000       15.9994           0
     22525 TIP3     3348     TIP3     H1       HT       0.417000       1.00800           0
     22526 TIP3     3348     TIP3     H2       HT       0.417000       1.00800           0
     22527 TIP3     3349     TIP3     OH2      OT      -0.834000       15.9994           0
     22528 TIP3     3349     TIP3     H1       HT       0.417000       1.00800           0
     22529 TIP3     3349     TIP3     H2       HT       0.417000       1.00800           0
     22530 TIP3     3350     TIP3     OH2      OT      -0.834000       15.9994           0
     22531 TIP3     3350     TIP3     H1       HT       0.417000       1.00800           0
     22532 TIP3     3350     TIP3     H2       HT       0.417000       1.00800           0
     22533 TIP3     3351     TIP3     OH2      OT      -0.834000       15.9994           0
     22534 TIP3     3351     TIP3     H1       HT       0.417000       1.00800           0
     22535 TIP3     3351     TIP3     H2       HT       0.417000       1.00800           0
     22536 TIP3     3352     TIP3     OH2      OT      -0.834000       15.9994           0
     22537 TIP3     3352     TIP3     H1       HT       0.417000       1.00800           0
     22538 TIP3     3352     TIP3     H2       HT       0.417000       1.00800           0
     22539 TIP3     3353     TIP3     OH2      OT      -0.834000       15.9994           0
     22540 TIP3     3353     TIP3     H1       HT       0.417000       1.00800           0
     22541 TIP3     3353     TIP3     H2       HT       0.417000       1.00800           0
     22542 TIP3     3354     TIP3     OH2      OT      -0.834000       15.9994           0
     22543 TIP3     3354     TIP3     H1       HT       0.417000       1.00800           0
     22544 TIP3     3354     TIP3     H2       HT       0.417000       1.00800           0
     22545 TIP3     3355     TIP3     OH2      OT      -0.834000       15.9994           0
     22546 TIP3     3355     TIP3     H1       HT       0.417000       1.00800           0
     22547 TIP3     3355     TIP3     H2       HT       0.417000       1.00800           0
     22548 TIP3     3356     TIP3     OH2      OT      -0.834000       15.9994           0
     22549 TIP3     3356     TIP3     H1       HT       0.417000       1.00800           0
     22550 TIP3     3356     TIP3     H2       HT       0.417000       1.00800           0
     22551 TIP3     3357     TIP3     OH2      OT      -0.834000       15.9994           0
     22552 TIP3     3357     TIP3     H1       HT       0.417000       1.00800           0
     22553 TIP3     3357     TIP3     H2       HT       0.417000       1.00800           0
     22554 TIP3     3358     TIP3     OH2      OT      -0.834000       15.9994           0
     22555 TIP3     3358     TIP3     H1       HT       0.417000       1.00800           0
     22556 TIP3     3358     TIP3     H2       HT       0.417000       1.00800           0
     22557 TIP3     3359     TIP3     OH2      OT      -0.834000       15.9994           0
     22558 TIP3     3359     TIP3     H1       HT       0.417000       1.00800           0
     22559 TIP3     3359     TIP3     H2       HT       0.417000       1.00800           0
     22560 TIP3     3360     TIP3     OH2      OT      -0.834000       15.9994           0
     22561 TIP3     3360     TIP3     H1       HT       0.417000       1.00800           0
     22562 TIP3     3360     TIP3     H2       HT       0.417000       1.00800           0
     22563 TIP3     3361     TIP3     OH2      OT      -0.834000       15.9994           0
     22564 TIP3     3361     TIP3     H1       HT       0.417000       1.00800           0
     22565 TIP3     3361     TIP3     H2       HT       0.417000       1.00800           0
     22566 TIP3     3362     TIP3     OH2      OT      -0.834000       15.9994           0
     22567 TIP3     3362     TIP3     H1       HT       0.417000       1.00800           0
     22568 TIP3     3362     TIP3     H2       HT       0.417000       1.00800           0
     22569 TIP3     3363     TIP3     OH2      OT      -0.834000       15.9994           0
     22570 TIP3     3363     TIP3     H1       HT       0.417000       1.00800           0
     22571 TIP3     3363     TIP3     H2       HT       0.417000       1.00800           0
     22572 TIP3     3364     TIP3     OH2      OT      -0.834000       15.9994           0
     22573 TIP3     3364     TIP3     H1       HT       0.417000       1.00800           0
     22574 TIP3     3364     TIP3     H2       HT       0.417000       1.00800           0
     22575 TIP3     3365     TIP3     OH2      OT      -0.834000       15.9994           0
     22576 TIP3     3365     TIP3     H1       HT       0.417000       1.00800           0
     22577 TIP3     3365     TIP3     H2       HT       0.417000       1.00800           0
     22578 TIP3     3366     TIP3     OH2      OT      -0.834000       15.9994           0
     22579 TIP3     3366     TIP3     H1       HT       0.417000       1.00800           0
     22580 TIP3     3366     TIP3     H2       HT       0.417000       1.00800           0
     22581 TIP3     3367     TIP3     OH2      OT      -0.834000       15.9994           0
     22582 TIP3     3367     TIP3     H1       HT       0.417000       1.00800           0
     22583 TIP3     3367     TIP3     H2       HT       0.417000       1.00800           0
     22584 TIP3     3368     TIP3     OH2      OT      -0.834000       15.9994           0
     22585 TIP3     3368     TIP3     H1       HT       0.417000       1.00800           0
     22586 TIP3     3368     TIP3     H2       HT       0.417000       1.00800           0
     22587 TIP3     3369     TIP3     OH2      OT      -0.834000       15.9994           0
     22588 TIP3     3369     TIP3     H1       HT       0.417000       1.00800           0
     22589 TIP3     3369     TIP3     H2       HT       0.417000       1.00800           0
     22590 TIP3     3370     TIP3     OH2      OT      -0.834000       15.9994           0
     22591 TIP3     3370     TIP3     H1       HT       0.417000       1.00800           0
     22592 TIP3     3370     TIP3     H2       HT       0.417000       1.00800           0
     22593 TIP3     3371     TIP3     OH2      OT      -0.834000       15.9994           0
     22594 TIP3     3371     TIP3     H1       HT       0.417000       1.00800           0
     22595 TIP3     3371     TIP3     H2       HT       0.417000       1.00800           0
     22596 TIP3     3372     TIP3     OH2      OT      -0.834000       15.9994           0
     22597 TIP3     3372     TIP3     H1       HT       0.417000       1.00800           0
     22598 TIP3     3372     TIP3     H2       HT       0.417000       1.00800           0
     22599 TIP3     3373     TIP3     OH2      OT      -0.834000       15.9994           0
     22600 TIP3     3373     TIP3     H1       HT       0.417000       1.00800           0
     22601 TIP3     3373     TIP3     H2       HT       0.417000       1.00800           0
     22602 TIP3     3374     TIP3     OH2      OT      -0.834000       15.9994           0
     22603 TIP3     3374     TIP3     H1       HT       0.417000       1.00800           0
     22604 TIP3     3374     TIP3     H2       HT       0.417000       1.00800           0
     22605 TIP3     3375     TIP3     OH2      OT      -0.834000       15.9994           0
     22606 TIP3     3375     TIP3     H1       HT       0.417000       1.00800           0
     22607 TIP3     3375     TIP3     H2       HT       0.417000       1.00800           0
     22608 TIP3     3376     TIP3     OH2      OT      -0.834000       15.9994           0
     22609 TIP3     3376     TIP3     H1       HT       0.417000       1.00800           0
     22610 TIP3     3376     TIP3     H2       HT       0.417000       1.00800           0
     22611 TIP3     3377     TIP3     OH2      OT      -0.834000       15.9994           0
     22612 TIP3     3377     TIP3     H1       HT       0.417000       1.00800           0
     22613 TIP3     3377     TIP3     H2       HT       0.417000       1.00800           0
     22614 TIP3     3378     TIP3     OH2      OT      -0.834000       15.9994           0
     22615 TIP3     3378     TIP3     H1       HT       0.417000       1.00800           0
     22616 TIP3     3378     TIP3     H2       HT       0.417000       1.00800           0
     22617 TIP3     3379     TIP3     OH2      OT      -0.834000       15.9994           0
     22618 TIP3     3379     TIP3     H1       HT       0.417000       1.00800           0
     22619 TIP3     3379     TIP3     H2       HT       0.417000       1.00800           0
     22620 TIP3     3380     TIP3     OH2      OT      -0.834000       15.9994           0
     22621 TIP3     3380     TIP3     H1       HT       0.417000       1.00800           0
     22622 TIP3     3380     TIP3     H2       HT       0.417000       1.00800           0
     22623 TIP3     3381     TIP3     OH2      OT      -0.834000       15.9994           0
     22624 TIP3     3381     TIP3     H1       HT       0.417000       1.00800           0
     22625 TIP3     3381     TIP3     H2       HT       0.417000       1.00800           0
     22626 TIP3     3382     TIP3     OH2      OT      -0.834000       15.9994           0
     22627 TIP3     3382     TIP3     H1       HT       0.417000       1.00800           0
     22628 TIP3     3382     TIP3     H2       HT       0.417000       1.00800           0
     22629 TIP3     3383     TIP3     OH2      OT      -0.834000       15.9994           0
     22630 TIP3     3383     TIP3     H1       HT       0.417000       1.00800           0
     22631 TIP3     3383     TIP3     H2       HT       0.417000       1.00800           0
     22632 TIP3     3384     TIP3     OH2      OT      -0.834000       15.9994           0
     22633 TIP3     3384     TIP3     H1       HT       0.417000       1.00800           0
     22634 TIP3     3384     TIP3     H2       HT       0.417000       1.00800           0
     22635 TIP3     3385     TIP3     OH2      OT      -0.834000       15.9994           0
     22636 TIP3     3385     TIP3     H1       HT       0.417000       1.00800           0
     22637 TIP3     3385     TIP3     H2       HT       0.417000       1.00800           0
     22638 TIP3     3386     TIP3     OH2      OT      -0.834000       15.9994           0
     22639 TIP3     3386     TIP3     H1       HT       0.417000       1.00800           0
     22640 TIP3     3386     TIP3     H2       HT       0.417000       1.00800           0
     22641 TIP3     3387     TIP3     OH2      OT      -0.834000       15.9994           0
     22642 TIP3     3387     TIP3     H1       HT       0.417000       1.00800           0
     22643 TIP3     3387     TIP3     H2       HT       0.417000       1.00800           0
     22644 TIP3     3388     TIP3     OH2      OT      -0.834000       15.9994           0
     22645 TIP3     3388     TIP3     H1       HT       0.417000       1.00800           0
     22646 TIP3     3388     TIP3     H2       HT       0.417000       1.00800           0
     22647 TIP3     3389     TIP3     OH2      OT      -0.834000       15.9994           0
     22648 TIP3     3389     TIP3     H1       HT       0.417000       1.00800           0
     22649 TIP3     3389     TIP3     H2       HT       0.417000       1.00800           0
     22650 TIP3     3390     TIP3     OH2      OT      -0.834000       15.9994           0
     22651 TIP3     3390     TIP3     H1       HT       0.417000       1.00800           0
     22652 TIP3     3390     TIP3     H2       HT       0.417000       1.00800           0
     22653 TIP3     3391     TIP3     OH2      OT      -0.834000       15.9994           0
     22654 TIP3     3391     TIP3     H1       HT       0.417000       1.00800           0
     22655 TIP3     3391     TIP3     H2       HT       0.417000       1.00800           0
     22656 TIP3     3392     TIP3     OH2      OT      -0.834000       15.9994           0
     22657 TIP3     3392     TIP3     H1       HT       0.417000       1.00800           0
     22658 TIP3     3392     TIP3     H2       HT       0.417000       1.00800           0
     22659 TIP3     3393     TIP3     OH2      OT      -0.834000       15.9994           0
     22660 TIP3     3393     TIP3     H1       HT       0.417000       1.00800           0
     22661 TIP3     3393     TIP3     H2       HT       0.417000       1.00800           0
     22662 TIP3     3394     TIP3     OH2      OT      -0.834000       15.9994           0
     22663 TIP3     3394     TIP3     H1       HT       0.417000       1.00800           0
     22664 TIP3     3394     TIP3     H2       HT       0.417000       1.00800           0
     22665 TIP3     3395     TIP3     OH2      OT      -0.834000       15.9994           0
     22666 TIP3     3395     TIP3     H1       HT       0.417000       1.00800           0
     22667 TIP3     3395     TIP3     H2       HT       0.417000       1.00800           0
     22668 TIP3     3396     TIP3     OH2      OT      -0.834000       15.9994           0
     22669 TIP3     3396     TIP3     H1       HT       0.417000       1.00800           0
     22670 TIP3     3396     TIP3     H2       HT       0.417000       1.00800           0
     22671 TIP3     3397     TIP3     OH2      OT      -0.834000       15.9994           0
     22672 TIP3     3397     TIP3     H1       HT       0.417000       1.00800           0
     22673 TIP3     3397     TIP3     H2       HT       0.417000       1.00800           0
     22674 TIP3     3398     TIP3     OH2      OT      -0.834000       15.9994           0
     22675 TIP3     3398     TIP3     H1       HT       0.417000       1.00800           0
     22676 TIP3     3398     TIP3     H2       HT       0.417000       1.00800           0
     22677 TIP3     3399     TIP3     OH2      OT      -0.834000       15.9994           0
     22678 TIP3     3399     TIP3     H1       HT       0.417000       1.00800           0
     22679 TIP3     3399     TIP3     H2       HT       0.417000       1.00800           0
     22680 TIP3     3400     TIP3     OH2      OT      -0.834000       15.9994           0
     22681 TIP3     3400     TIP3     H1       HT       0.417000       1.00800           0
     22682 TIP3     3400     TIP3     H2       HT       0.417000       1.00800           0
     22683 TIP3     3401     TIP3     OH2      OT      -0.834000       15.9994           0
     22684 TIP3     3401     TIP3     H1       HT       0.417000       1.00800           0
     22685 TIP3     3401     TIP3     H2       HT       0.417000       1.00800           0
     22686 TIP3     3402     TIP3     OH2      OT      -0.834000       15.9994           0
     22687 TIP3     3402     TIP3     H1       HT       0.417000       1.00800           0
     22688 TIP3     3402     TIP3     H2       HT       0.417000       1.00800           0
     22689 TIP3     3403     TIP3     OH2      OT      -0.834000       15.9994           0
     22690 TIP3     3403     TIP3     H1       HT       0.417000       1.00800           0
     22691 TIP3     3403     TIP3     H2       HT       0.417000       1.00800           0
     22692 TIP3     3404     TIP3     OH2      OT      -0.834000       15.9994           0
     22693 TIP3     3404     TIP3     H1       HT       0.417000       1.00800           0
     22694 TIP3     3404     TIP3     H2       HT       0.417000       1.00800           0
     22695 TIP3     3405     TIP3     OH2      OT      -0.834000       15.9994           0
     22696 TIP3     3405     TIP3     H1       HT       0.417000       1.00800           0
     22697 TIP3     3405     TIP3     H2       HT       0.417000       1.00800           0
     22698 TIP3     3406     TIP3     OH2      OT      -0.834000       15.9994           0
     22699 TIP3     3406     TIP3     H1       HT       0.417000       1.00800           0
     22700 TIP3     3406     TIP3     H2       HT       0.417000       1.00800           0
     22701 TIP3     3407     TIP3     OH2      OT      -0.834000       15.9994           0
     22702 TIP3     3407     TIP3     H1       HT       0.417000       1.00800           0
     22703 TIP3     3407     TIP3     H2       HT       0.417000       1.00800           0
     22704 TIP3     3408     TIP3     OH2      OT      -0.834000       15.9994           0
     22705 TIP3     3408     TIP3     H1       HT       0.417000       1.00800           0
     22706 TIP3     3408     TIP3     H2       HT       0.417000       1.00800           0
     22707 TIP3     3409     TIP3     OH2      OT      -0.834000       15.9994           0
     22708 TIP3     3409     TIP3     H1       HT       0.417000       1.00800           0
     22709 TIP3     3409     TIP3     H2       HT       0.417000       1.00800           0
     22710 TIP3     3410     TIP3     OH2      OT      -0.834000       15.9994           0
     22711 TIP3     3410     TIP3     H1       HT       0.417000       1.00800           0
     22712 TIP3     3410     TIP3     H2       HT       0.417000       1.00800           0
     22713 TIP3     3411     TIP3     OH2      OT      -0.834000       15.9994           0
     22714 TIP3     3411     TIP3     H1       HT       0.417000       1.00800           0
     22715 TIP3     3411     TIP3     H2       HT       0.417000       1.00800           0
     22716 TIP3     3412     TIP3     OH2      OT      -0.834000       15.9994           0
     22717 TIP3     3412     TIP3     H1       HT       0.417000       1.00800           0
     22718 TIP3     3412     TIP3     H2       HT       0.417000       1.00800           0
     22719 TIP3     3413     TIP3     OH2      OT      -0.834000       15.9994           0
     22720 TIP3     3413     TIP3     H1       HT       0.417000       1.00800           0
     22721 TIP3     3413     TIP3     H2       HT       0.417000       1.00800           0
     22722 TIP3     3414     TIP3     OH2      OT      -0.834000       15.9994           0
     22723 TIP3     3414     TIP3     H1       HT       0.417000       1.00800           0
     22724 TIP3     3414     TIP3     H2       HT       0.417000       1.00800           0
     22725 TIP3     3415     TIP3     OH2      OT      -0.834000       15.9994           0
     22726 TIP3     3415     TIP3     H1       HT       0.417000       1.00800           0
     22727 TIP3     3415     TIP3     H2       HT       0.417000       1.00800           0
     22728 TIP3     3416     TIP3     OH2      OT      -0.834000       15.9994           0
     22729 TIP3     3416     TIP3     H1       HT       0.417000       1.00800           0
     22730 TIP3     3416     TIP3     H2       HT       0.417000       1.00800           0
     22731 TIP3     3417     TIP3     OH2      OT      -0.834000       15.9994           0
     22732 TIP3     3417     TIP3     H1       HT       0.417000       1.00800           0
     22733 TIP3     3417     TIP3     H2       HT       0.417000       1.00800           0
     22734 TIP3     3418     TIP3     OH2      OT      -0.834000       15.9994           0
     22735 TIP3     3418     TIP3     H1       HT       0.417000       1.00800           0
     22736 TIP3     3418     TIP3     H2       HT       0.417000       1.00800           0
     22737 TIP3     3419     TIP3     OH2      OT      -0.834000       15.9994           0
     22738 TIP3     3419     TIP3     H1       HT       0.417000       1.00800           0
     22739 TIP3     3419     TIP3     H2       HT       0.417000       1.00800           0
     22740 TIP3     3420     TIP3     OH2      OT      -0.834000       15.9994           0
     22741 TIP3     3420     TIP3     H1       HT       0.417000       1.00800           0
     22742 TIP3     3420     TIP3     H2       HT       0.417000       1.00800           0
     22743 TIP3     3421     TIP3     OH2      OT      -0.834000       15.9994           0
     22744 TIP3     3421     TIP3     H1       HT       0.417000       1.00800           0
     22745 TIP3     3421     TIP3     H2       HT       0.417000       1.00800           0
     22746 TIP3     3422     TIP3     OH2      OT      -0.834000       15.9994           0
     22747 TIP3     3422     TIP3     H1       HT       0.417000       1.00800           0
     22748 TIP3     3422     TIP3     H2       HT       0.417000       1.00800           0
     22749 TIP3     3423     TIP3     OH2      OT      -0.834000       15.9994           0
     22750 TIP3     3423     TIP3     H1       HT       0.417000       1.00800           0
     22751 TIP3     3423     TIP3     H2       HT       0.417000       1.00800           0
     22752 TIP3     3424     TIP3     OH2      OT      -0.834000       15.9994           0
     22753 TIP3     3424     TIP3     H1       HT       0.417000       1.00800           0
     22754 TIP3     3424     TIP3     H2       HT       0.417000       1.00800           0
     22755 TIP3     3425     TIP3     OH2      OT      -0.834000       15.9994           0
     22756 TIP3     3425     TIP3     H1       HT       0.417000       1.00800           0
     22757 TIP3     3425     TIP3     H2       HT       0.417000       1.00800           0
     22758 TIP3     3426     TIP3     OH2      OT      -0.834000       15.9994           0
     22759 TIP3     3426     TIP3     H1       HT       0.417000       1.00800           0
     22760 TIP3     3426     TIP3     H2       HT       0.417000       1.00800           0
     22761 TIP3     3427     TIP3     OH2      OT      -0.834000       15.9994           0
     22762 TIP3     3427     TIP3     H1       HT       0.417000       1.00800           0
     22763 TIP3     3427     TIP3     H2       HT       0.417000       1.00800           0
     22764 TIP3     3428     TIP3     OH2      OT      -0.834000       15.9994           0
     22765 TIP3     3428     TIP3     H1       HT       0.417000       1.00800           0
     22766 TIP3     3428     TIP3     H2       HT       0.417000       1.00800           0
     22767 TIP3     3429     TIP3     OH2      OT      -0.834000       15.9994           0
     22768 TIP3     3429     TIP3     H1       HT       0.417000       1.00800           0
     22769 TIP3     3429     TIP3     H2       HT       0.417000       1.00800           0
     22770 TIP3     3430     TIP3     OH2      OT      -0.834000       15.9994           0
     22771 TIP3     3430     TIP3     H1       HT       0.417000       1.00800           0
     22772 TIP3     3430     TIP3     H2       HT       0.417000       1.00800           0
     22773 TIP3     3431     TIP3     OH2      OT      -0.834000       15.9994           0
     22774 TIP3     3431     TIP3     H1       HT       0.417000       1.00800           0
     22775 TIP3     3431     TIP3     H2       HT       0.417000       1.00800           0
     22776 TIP3     3432     TIP3     OH2      OT      -0.834000       15.9994           0
     22777 TIP3     3432     TIP3     H1       HT       0.417000       1.00800           0
     22778 TIP3     3432     TIP3     H2       HT       0.417000       1.00800           0
     22779 TIP3     3433     TIP3     OH2      OT      -0.834000       15.9994           0
     22780 TIP3     3433     TIP3     H1       HT       0.417000       1.00800           0
     22781 TIP3     3433     TIP3     H2       HT       0.417000       1.00800           0
     22782 TIP3     3434     TIP3     OH2      OT      -0.834000       15.9994           0
     22783 TIP3     3434     TIP3     H1       HT       0.417000       1.00800           0
     22784 TIP3     3434     TIP3     H2       HT       0.417000       1.00800           0
     22785 TIP3     3435     TIP3     OH2      OT      -0.834000       15.9994           0
     22786 TIP3     3435     TIP3     H1       HT       0.417000       1.00800           0
     22787 TIP3     3435     TIP3     H2       HT       0.417000       1.00800           0
     22788 TIP3     3436     TIP3     OH2      OT      -0.834000       15.9994           0
     22789 TIP3     3436     TIP3     H1       HT       0.417000       1.00800           0
     22790 TIP3     3436     TIP3     H2       HT       0.417000       1.00800           0
     22791 TIP3     3437     TIP3     OH2      OT      -0.834000       15.9994           0
     22792 TIP3     3437     TIP3     H1       HT       0.417000       1.00800           0
     22793 TIP3     3437     TIP3     H2       HT       0.417000       1.00800           0
     22794 TIP3     3438     TIP3     OH2      OT      -0.834000       15.9994           0
     22795 TIP3     3438     TIP3     H1       HT       0.417000       1.00800           0
     22796 TIP3     3438     TIP3     H2       HT       0.417000       1.00800           0
     22797 TIP3     3439     TIP3     OH2      OT      -0.834000       15.9994           0
     22798 TIP3     3439     TIP3     H1       HT       0.417000       1.00800           0
     22799 TIP3     3439     TIP3     H2       HT       0.417000       1.00800           0
     22800 TIP3     3440     TIP3     OH2      OT      -0.834000       15.9994           0
     22801 TIP3     3440     TIP3     H1       HT       0.417000       1.00800           0
     22802 TIP3     3440     TIP3     H2       HT       0.417000       1.00800           0
     22803 TIP3     3441     TIP3     OH2      OT      -0.834000       15.9994           0
     22804 TIP3     3441     TIP3     H1       HT       0.417000       1.00800           0
     22805 TIP3     3441     TIP3     H2       HT       0.417000       1.00800           0
     22806 TIP3     3442     TIP3     OH2      OT      -0.834000       15.9994           0
     22807 TIP3     3442     TIP3     H1       HT       0.417000       1.00800           0
     22808 TIP3     3442     TIP3     H2       HT       0.417000       1.00800           0
     22809 TIP3     3443     TIP3     OH2      OT      -0.834000       15.9994           0
     22810 TIP3     3443     TIP3     H1       HT       0.417000       1.00800           0
     22811 TIP3     3443     TIP3     H2       HT       0.417000       1.00800           0
     22812 TIP3     3444     TIP3     OH2      OT      -0.834000       15.9994           0
     22813 TIP3     3444     TIP3     H1       HT       0.417000       1.00800           0
     22814 TIP3     3444     TIP3     H2       HT       0.417000       1.00800           0
     22815 TIP3     3445     TIP3     OH2      OT      -0.834000       15.9994           0
     22816 TIP3     3445     TIP3     H1       HT       0.417000       1.00800           0
     22817 TIP3     3445     TIP3     H2       HT       0.417000       1.00800           0
     22818 TIP3     3446     TIP3     OH2      OT      -0.834000       15.9994           0
     22819 TIP3     3446     TIP3     H1       HT       0.417000       1.00800           0
     22820 TIP3     3446     TIP3     H2       HT       0.417000       1.00800           0
     22821 TIP3     3447     TIP3     OH2      OT      -0.834000       15.9994           0
     22822 TIP3     3447     TIP3     H1       HT       0.417000       1.00800           0
     22823 TIP3     3447     TIP3     H2       HT       0.417000       1.00800           0
     22824 TIP3     3448     TIP3     OH2      OT      -0.834000       15.9994           0
     22825 TIP3     3448     TIP3     H1       HT       0.417000       1.00800           0
     22826 TIP3     3448     TIP3     H2       HT       0.417000       1.00800           0
     22827 TIP3     3449     TIP3     OH2      OT      -0.834000       15.9994           0
     22828 TIP3     3449     TIP3     H1       HT       0.417000       1.00800           0
     22829 TIP3     3449     TIP3     H2       HT       0.417000       1.00800           0
     22830 TIP3     3450     TIP3     OH2      OT      -0.834000       15.9994           0
     22831 TIP3     3450     TIP3     H1       HT       0.417000       1.00800           0
     22832 TIP3     3450     TIP3     H2       HT       0.417000       1.00800           0
     22833 TIP3     3451     TIP3     OH2      OT      -0.834000       15.9994           0
     22834 TIP3     3451     TIP3     H1       HT       0.417000       1.00800           0
     22835 TIP3     3451     TIP3     H2       HT       0.417000       1.00800           0
     22836 TIP3     3452     TIP3     OH2      OT      -0.834000       15.9994           0
     22837 TIP3     3452     TIP3     H1       HT       0.417000       1.00800           0
     22838 TIP3     3452     TIP3     H2       HT       0.417000       1.00800           0
     22839 TIP3     3453     TIP3     OH2      OT      -0.834000       15.9994           0
     22840 TIP3     3453     TIP3     H1       HT       0.417000       1.00800           0
     22841 TIP3     3453     TIP3     H2       HT       0.417000       1.00800           0
     22842 TIP3     3454     TIP3     OH2      OT      -0.834000       15.9994           0
     22843 TIP3     3454     TIP3     H1       HT       0.417000       1.00800           0
     22844 TIP3     3454     TIP3     H2       HT       0.417000       1.00800           0
     22845 TIP3     3455     TIP3     OH2      OT      -0.834000       15.9994           0
     22846 TIP3     3455     TIP3     H1       HT       0.417000       1.00800           0
     22847 TIP3     3455     TIP3     H2       HT       0.417000       1.00800           0
     22848 TIP3     3456     TIP3     OH2      OT      -0.834000       15.9994           0
     22849 TIP3     3456     TIP3     H1       HT       0.417000       1.00800           0
     22850 TIP3     3456     TIP3     H2       HT       0.417000       1.00800           0
     22851 TIP3     3457     TIP3     OH2      OT      -0.834000       15.9994           0
     22852 TIP3     3457     TIP3     H1       HT       0.417000       1.00800           0
     22853 TIP3     3457     TIP3     H2       HT       0.417000       1.00800           0
     22854 TIP3     3458     TIP3     OH2      OT      -0.834000       15.9994           0
     22855 TIP3     3458     TIP3     H1       HT       0.417000       1.00800           0
     22856 TIP3     3458     TIP3     H2       HT       0.417000       1.00800           0
     22857 TIP3     3459     TIP3     OH2      OT      -0.834000       15.9994           0
     22858 TIP3     3459     TIP3     H1       HT       0.417000       1.00800           0
     22859 TIP3     3459     TIP3     H2       HT       0.417000       1.00800           0
     22860 TIP3     3460     TIP3     OH2      OT      -0.834000       15.9994           0
     22861 TIP3     3460     TIP3     H1       HT       0.417000       1.00800           0
     22862 TIP3     3460     TIP3     H2       HT       0.417000       1.00800           0
     22863 TIP3     3461     TIP3     OH2      OT      -0.834000       15.9994           0
     22864 TIP3     3461     TIP3     H1       HT       0.417000       1.00800           0
     22865 TIP3     3461     TIP3     H2       HT       0.417000       1.00800           0
     22866 TIP3     3462     TIP3     OH2      OT      -0.834000       15.9994           0
     22867 TIP3     3462     TIP3     H1       HT       0.417000       1.00800           0
     22868 TIP3     3462     TIP3     H2       HT       0.417000       1.00800           0
     22869 TIP3     3463     TIP3     OH2      OT      -0.834000       15.9994           0
     22870 TIP3     3463     TIP3     H1       HT       0.417000       1.00800           0
     22871 TIP3     3463     TIP3     H2       HT       0.417000       1.00800           0
     22872 TIP3     3464     TIP3     OH2      OT      -0.834000       15.9994           0
     22873 TIP3     3464     TIP3     H1       HT       0.417000       1.00800           0
     22874 TIP3     3464     TIP3     H2       HT       0.417000       1.00800           0
     22875 TIP3     3465     TIP3     OH2      OT      -0.834000       15.9994           0
     22876 TIP3     3465     TIP3     H1       HT       0.417000       1.00800           0
     22877 TIP3     3465     TIP3     H2       HT       0.417000       1.00800           0
     22878 TIP3     3466     TIP3     OH2      OT      -0.834000       15.9994           0
     22879 TIP3     3466     TIP3     H1       HT       0.417000       1.00800           0
     22880 TIP3     3466     TIP3     H2       HT       0.417000       1.00800           0
     22881 TIP3     3467     TIP3     OH2      OT      -0.834000       15.9994           0
     22882 TIP3     3467     TIP3     H1       HT       0.417000       1.00800           0
     22883 TIP3     3467     TIP3     H2       HT       0.417000       1.00800           0
     22884 TIP3     3468     TIP3     OH2      OT      -0.834000       15.9994           0
     22885 TIP3     3468     TIP3     H1       HT       0.417000       1.00800           0
     22886 TIP3     3468     TIP3     H2       HT       0.417000       1.00800           0
     22887 TIP3     3469     TIP3     OH2      OT      -0.834000       15.9994           0
     22888 TIP3     3469     TIP3     H1       HT       0.417000       1.00800           0
     22889 TIP3     3469     TIP3     H2       HT       0.417000       1.00800           0
     22890 TIP3     3470     TIP3     OH2      OT      -0.834000       15.9994           0
     22891 TIP3     3470     TIP3     H1       HT       0.417000       1.00800           0
     22892 TIP3     3470     TIP3     H2       HT       0.417000       1.00800           0
     22893 TIP3     3471     TIP3     OH2      OT      -0.834000       15.9994           0
     22894 TIP3     3471     TIP3     H1       HT       0.417000       1.00800           0
     22895 TIP3     3471     TIP3     H2       HT       0.417000       1.00800           0
     22896 TIP3     3472     TIP3     OH2      OT      -0.834000       15.9994           0
     22897 TIP3     3472     TIP3     H1       HT       0.417000       1.00800           0
     22898 TIP3     3472     TIP3     H2       HT       0.417000       1.00800           0
     22899 TIP3     3473     TIP3     OH2      OT      -0.834000       15.9994           0
     22900 TIP3     3473     TIP3     H1       HT       0.417000       1.00800           0
     22901 TIP3     3473     TIP3     H2       HT       0.417000       1.00800           0
     22902 TIP3     3474     TIP3     OH2      OT      -0.834000       15.9994           0
     22903 TIP3     3474     TIP3     H1       HT       0.417000       1.00800           0
     22904 TIP3     3474     TIP3     H2       HT       0.417000       1.00800           0
     22905 TIP3     3475     TIP3     OH2      OT      -0.834000       15.9994           0
     22906 TIP3     3475     TIP3     H1       HT       0.417000       1.00800           0
     22907 TIP3     3475     TIP3     H2       HT       0.417000       1.00800           0
     22908 TIP3     3476     TIP3     OH2      OT      -0.834000       15.9994           0
     22909 TIP3     3476     TIP3     H1       HT       0.417000       1.00800           0
     22910 TIP3     3476     TIP3     H2       HT       0.417000       1.00800           0
     22911 TIP3     3477     TIP3     OH2      OT      -0.834000       15.9994           0
     22912 TIP3     3477     TIP3     H1       HT       0.417000       1.00800           0
     22913 TIP3     3477     TIP3     H2       HT       0.417000       1.00800           0
     22914 TIP3     3478     TIP3     OH2      OT      -0.834000       15.9994           0
     22915 TIP3     3478     TIP3     H1       HT       0.417000       1.00800           0
     22916 TIP3     3478     TIP3     H2       HT       0.417000       1.00800           0
     22917 TIP3     3479     TIP3     OH2      OT      -0.834000       15.9994           0
     22918 TIP3     3479     TIP3     H1       HT       0.417000       1.00800           0
     22919 TIP3     3479     TIP3     H2       HT       0.417000       1.00800           0
     22920 TIP3     3480     TIP3     OH2      OT      -0.834000       15.9994           0
     22921 TIP3     3480     TIP3     H1       HT       0.417000       1.00800           0
     22922 TIP3     3480     TIP3     H2       HT       0.417000       1.00800           0
     22923 TIP3     3481     TIP3     OH2      OT      -0.834000       15.9994           0
     22924 TIP3     3481     TIP3     H1       HT       0.417000       1.00800           0
     22925 TIP3     3481     TIP3     H2       HT       0.417000       1.00800           0
     22926 TIP3     3482     TIP3     OH2      OT      -0.834000       15.9994           0
     22927 TIP3     3482     TIP3     H1       HT       0.417000       1.00800           0
     22928 TIP3     3482     TIP3     H2       HT       0.417000       1.00800           0
     22929 TIP3     3483     TIP3     OH2      OT      -0.834000       15.9994           0
     22930 TIP3     3483     TIP3     H1       HT       0.417000       1.00800           0
     22931 TIP3     3483     TIP3     H2       HT       0.417000       1.00800           0
     22932 TIP3     3484     TIP3     OH2      OT      -0.834000       15.9994           0
     22933 TIP3     3484     TIP3     H1       HT       0.417000       1.00800           0
     22934 TIP3     3484     TIP3     H2       HT       0.417000       1.00800           0
     22935 TIP3     3485     TIP3     OH2      OT      -0.834000       15.9994           0
     22936 TIP3     3485     TIP3     H1       HT       0.417000       1.00800           0
     22937 TIP3     3485     TIP3     H2       HT       0.417000       1.00800           0
     22938 TIP3     3486     TIP3     OH2      OT      -0.834000       15.9994           0
     22939 TIP3     3486     TIP3     H1       HT       0.417000       1.00800           0
     22940 TIP3     3486     TIP3     H2       HT       0.417000       1.00800           0
     22941 TIP3     3487     TIP3     OH2      OT      -0.834000       15.9994           0
     22942 TIP3     3487     TIP3     H1       HT       0.417000       1.00800           0
     22943 TIP3     3487     TIP3     H2       HT       0.417000       1.00800           0
     22944 TIP3     3488     TIP3     OH2      OT      -0.834000       15.9994           0
     22945 TIP3     3488     TIP3     H1       HT       0.417000       1.00800           0
     22946 TIP3     3488     TIP3     H2       HT       0.417000       1.00800           0
     22947 TIP3     3489     TIP3     OH2      OT      -0.834000       15.9994           0
     22948 TIP3     3489     TIP3     H1       HT       0.417000       1.00800           0
     22949 TIP3     3489     TIP3     H2       HT       0.417000       1.00800           0
     22950 TIP3     3490     TIP3     OH2      OT      -0.834000       15.9994           0
     22951 TIP3     3490     TIP3     H1       HT       0.417000       1.00800           0
     22952 TIP3     3490     TIP3     H2       HT       0.417000       1.00800           0
     22953 TIP3     3491     TIP3     OH2      OT      -0.834000       15.9994           0
     22954 TIP3     3491     TIP3     H1       HT       0.417000       1.00800           0
     22955 TIP3     3491     TIP3     H2       HT       0.417000       1.00800           0
     22956 TIP3     3492     TIP3     OH2      OT      -0.834000       15.9994           0
     22957 TIP3     3492     TIP3     H1       HT       0.417000       1.00800           0
     22958 TIP3     3492     TIP3     H2       HT       0.417000       1.00800           0
     22959 TIP3     3493     TIP3     OH2      OT      -0.834000       15.9994           0
     22960 TIP3     3493     TIP3     H1       HT       0.417000       1.00800           0
     22961 TIP3     3493     TIP3     H2       HT       0.417000       1.00800           0
     22962 TIP3     3494     TIP3     OH2      OT      -0.834000       15.9994           0
     22963 TIP3     3494     TIP3     H1       HT       0.417000       1.00800           0
     22964 TIP3     3494     TIP3     H2       HT       0.417000       1.00800           0
     22965 TIP3     3495     TIP3     OH2      OT      -0.834000       15.9994           0
     22966 TIP3     3495     TIP3     H1       HT       0.417000       1.00800           0
     22967 TIP3     3495     TIP3     H2       HT       0.417000       1.00800           0
     22968 TIP3     3496     TIP3     OH2      OT      -0.834000       15.9994           0
     22969 TIP3     3496     TIP3     H1       HT       0.417000       1.00800           0
     22970 TIP3     3496     TIP3     H2       HT       0.417000       1.00800           0
     22971 TIP3     3497     TIP3     OH2      OT      -0.834000       15.9994           0
     22972 TIP3     3497     TIP3     H1       HT       0.417000       1.00800           0
     22973 TIP3     3497     TIP3     H2       HT       0.417000       1.00800           0
     22974 TIP3     3498     TIP3     OH2      OT      -0.834000       15.9994           0
     22975 TIP3     3498     TIP3     H1       HT       0.417000       1.00800           0
     22976 TIP3     3498     TIP3     H2       HT       0.417000       1.00800           0
     22977 TIP3     3499     TIP3     OH2      OT      -0.834000       15.9994           0
     22978 TIP3     3499     TIP3     H1       HT       0.417000       1.00800           0
     22979 TIP3     3499     TIP3     H2       HT       0.417000       1.00800           0
     22980 TIP3     3500     TIP3     OH2      OT      -0.834000       15.9994           0
     22981 TIP3     3500     TIP3     H1       HT       0.417000       1.00800           0
     22982 TIP3     3500     TIP3     H2       HT       0.417000       1.00800           0
     22983 TIP3     3501     TIP3     OH2      OT      -0.834000       15.9994           0
     22984 TIP3     3501     TIP3     H1       HT       0.417000       1.00800           0
     22985 TIP3     3501     TIP3     H2       HT       0.417000       1.00800           0
     22986 TIP3     3502     TIP3     OH2      OT      -0.834000       15.9994           0
     22987 TIP3     3502     TIP3     H1       HT       0.417000       1.00800           0
     22988 TIP3     3502     TIP3     H2       HT       0.417000       1.00800           0
     22989 TIP3     3503     TIP3     OH2      OT      -0.834000       15.9994           0
     22990 TIP3     3503     TIP3     H1       HT       0.417000       1.00800           0
     22991 TIP3     3503     TIP3     H2       HT       0.417000       1.00800           0
     22992 TIP3     3504     TIP3     OH2      OT      -0.834000       15.9994           0
     22993 TIP3     3504     TIP3     H1       HT       0.417000       1.00800           0
     22994 TIP3     3504     TIP3     H2       HT       0.417000       1.00800           0
     22995 TIP3     3505     TIP3     OH2      OT      -0.834000       15.9994           0
     22996 TIP3     3505     TIP3     H1       HT       0.417000       1.00800           0
     22997 TIP3     3505     TIP3     H2       HT       0.417000       1.00800           0
     22998 TIP3     3506     TIP3     OH2      OT      -0.834000       15.9994           0
     22999 TIP3     3506     TIP3     H1       HT       0.417000       1.00800           0
     23000 TIP3     3506     TIP3     H2       HT       0.417000       1.00800           0
     23001 TIP3     3507     TIP3     OH2      OT      -0.834000       15.9994           0
     23002 TIP3     3507     TIP3     H1       HT       0.417000       1.00800           0
     23003 TIP3     3507     TIP3     H2       HT       0.417000       1.00800           0
     23004 TIP3     3508     TIP3     OH2      OT      -0.834000       15.9994           0
     23005 TIP3     3508     TIP3     H1       HT       0.417000       1.00800           0
     23006 TIP3     3508     TIP3     H2       HT       0.417000       1.00800           0
     23007 TIP3     3509     TIP3     OH2      OT      -0.834000       15.9994           0
     23008 TIP3     3509     TIP3     H1       HT       0.417000       1.00800           0
     23009 TIP3     3509     TIP3     H2       HT       0.417000       1.00800           0
     23010 TIP3     3510     TIP3     OH2      OT      -0.834000       15.9994           0
     23011 TIP3     3510     TIP3     H1       HT       0.417000       1.00800           0
     23012 TIP3     3510     TIP3     H2       HT       0.417000       1.00800           0
     23013 TIP3     3511     TIP3     OH2      OT      -0.834000       15.9994           0
     23014 TIP3     3511     TIP3     H1       HT       0.417000       1.00800           0
     23015 TIP3     3511     TIP3     H2       HT       0.417000       1.00800           0
     23016 TIP3     3512     TIP3     OH2      OT      -0.834000       15.9994           0
     23017 TIP3     3512     TIP3     H1       HT       0.417000       1.00800           0
     23018 TIP3     3512     TIP3     H2       HT       0.417000       1.00800           0
     23019 TIP3     3513     TIP3     OH2      OT      -0.834000       15.9994           0
     23020 TIP3     3513     TIP3     H1       HT       0.417000       1.00800           0
     23021 TIP3     3513     TIP3     H2       HT       0.417000       1.00800           0
     23022 TIP3     3514     TIP3     OH2      OT      -0.834000       15.9994           0
     23023 TIP3     3514     TIP3     H1       HT       0.417000       1.00800           0
     23024 TIP3     3514     TIP3     H2       HT       0.417000       1.00800           0
     23025 TIP3     3515     TIP3     OH2      OT      -0.834000       15.9994           0
     23026 TIP3     3515     TIP3     H1       HT       0.417000       1.00800           0
     23027 TIP3     3515     TIP3     H2       HT       0.417000       1.00800           0
     23028 TIP3     3516     TIP3     OH2      OT      -0.834000       15.9994           0
     23029 TIP3     3516     TIP3     H1       HT       0.417000       1.00800           0
     23030 TIP3     3516     TIP3     H2       HT       0.417000       1.00800           0
     23031 TIP3     3517     TIP3     OH2      OT      -0.834000       15.9994           0
     23032 TIP3     3517     TIP3     H1       HT       0.417000       1.00800           0
     23033 TIP3     3517     TIP3     H2       HT       0.417000       1.00800           0
     23034 TIP3     3518     TIP3     OH2      OT      -0.834000       15.9994           0
     23035 TIP3     3518     TIP3     H1       HT       0.417000       1.00800           0
     23036 TIP3     3518     TIP3     H2       HT       0.417000       1.00800           0
     23037 TIP3     3519     TIP3     OH2      OT      -0.834000       15.9994           0
     23038 TIP3     3519     TIP3     H1       HT       0.417000       1.00800           0
     23039 TIP3     3519     TIP3     H2       HT       0.417000       1.00800           0
     23040 TIP3     3520     TIP3     OH2      OT      -0.834000       15.9994           0
     23041 TIP3     3520     TIP3     H1       HT       0.417000       1.00800           0
     23042 TIP3     3520     TIP3     H2       HT       0.417000       1.00800           0
     23043 TIP3     3521     TIP3     OH2      OT      -0.834000       15.9994           0
     23044 TIP3     3521     TIP3     H1       HT       0.417000       1.00800           0
     23045 TIP3     3521     TIP3     H2       HT       0.417000       1.00800           0
     23046 TIP3     3522     TIP3     OH2      OT      -0.834000       15.9994           0
     23047 TIP3     3522     TIP3     H1       HT       0.417000       1.00800           0
     23048 TIP3     3522     TIP3     H2       HT       0.417000       1.00800           0
     23049 TIP3     3523     TIP3     OH2      OT      -0.834000       15.9994           0
     23050 TIP3     3523     TIP3     H1       HT       0.417000       1.00800           0
     23051 TIP3     3523     TIP3     H2       HT       0.417000       1.00800           0
     23052 TIP3     3524     TIP3     OH2      OT      -0.834000       15.9994           0
     23053 TIP3     3524     TIP3     H1       HT       0.417000       1.00800           0
     23054 TIP3     3524     TIP3     H2       HT       0.417000       1.00800           0
     23055 TIP3     3525     TIP3     OH2      OT      -0.834000       15.9994           0
     23056 TIP3     3525     TIP3     H1       HT       0.417000       1.00800           0
     23057 TIP3     3525     TIP3     H2       HT       0.417000       1.00800           0
     23058 TIP3     3526     TIP3     OH2      OT      -0.834000       15.9994           0
     23059 TIP3     3526     TIP3     H1       HT       0.417000       1.00800           0
     23060 TIP3     3526     TIP3     H2       HT       0.417000       1.00800           0
     23061 TIP3     3527     TIP3     OH2      OT      -0.834000       15.9994           0
     23062 TIP3     3527     TIP3     H1       HT       0.417000       1.00800           0
     23063 TIP3     3527     TIP3     H2       HT       0.417000       1.00800           0
     23064 TIP3     3528     TIP3     OH2      OT      -0.834000       15.9994           0
     23065 TIP3     3528     TIP3     H1       HT       0.417000       1.00800           0
     23066 TIP3     3528     TIP3     H2       HT       0.417000       1.00800           0
     23067 TIP3     3529     TIP3     OH2      OT      -0.834000       15.9994           0
     23068 TIP3     3529     TIP3     H1       HT       0.417000       1.00800           0
     23069 TIP3     3529     TIP3     H2       HT       0.417000       1.00800           0
     23070 TIP3     3530     TIP3     OH2      OT      -0.834000       15.9994           0
     23071 TIP3     3530     TIP3     H1       HT       0.417000       1.00800           0
     23072 TIP3     3530     TIP3     H2       HT       0.417000       1.00800           0
     23073 TIP3     3531     TIP3     OH2      OT      -0.834000       15.9994           0
     23074 TIP3     3531     TIP3     H1       HT       0.417000       1.00800           0
     23075 TIP3     3531     TIP3     H2       HT       0.417000       1.00800           0
     23076 TIP3     3532     TIP3     OH2      OT      -0.834000       15.9994           0
     23077 TIP3     3532     TIP3     H1       HT       0.417000       1.00800           0
     23078 TIP3     3532     TIP3     H2       HT       0.417000       1.00800           0
     23079 TIP3     3533     TIP3     OH2      OT      -0.834000       15.9994           0
     23080 TIP3     3533     TIP3     H1       HT       0.417000       1.00800           0
     23081 TIP3     3533     TIP3     H2       HT       0.417000       1.00800           0
     23082 TIP3     3534     TIP3     OH2      OT      -0.834000       15.9994           0
     23083 TIP3     3534     TIP3     H1       HT       0.417000       1.00800           0
     23084 TIP3     3534     TIP3     H2       HT       0.417000       1.00800           0
     23085 TIP3     3535     TIP3     OH2      OT      -0.834000       15.9994           0
     23086 TIP3     3535     TIP3     H1       HT       0.417000       1.00800           0
     23087 TIP3     3535     TIP3     H2       HT       0.417000       1.00800           0
     23088 TIP3     3536     TIP3     OH2      OT      -0.834000       15.9994           0
     23089 TIP3     3536     TIP3     H1       HT       0.417000       1.00800           0
     23090 TIP3     3536     TIP3     H2       HT       0.417000       1.00800           0
     23091 TIP3     3537     TIP3     OH2      OT      -0.834000       15.9994           0
     23092 TIP3     3537     TIP3     H1       HT       0.417000       1.00800           0
     23093 TIP3     3537     TIP3     H2       HT       0.417000       1.00800           0
     23094 TIP3     3538     TIP3     OH2      OT      -0.834000       15.9994           0
     23095 TIP3     3538     TIP3     H1       HT       0.417000       1.00800           0
     23096 TIP3     3538     TIP3     H2       HT       0.417000       1.00800           0
     23097 TIP3     3539     TIP3     OH2      OT      -0.834000       15.9994           0
     23098 TIP3     3539     TIP3     H1       HT       0.417000       1.00800           0
     23099 TIP3     3539     TIP3     H2       HT       0.417000       1.00800           0
     23100 TIP3     3540     TIP3     OH2      OT      -0.834000       15.9994           0
     23101 TIP3     3540     TIP3     H1       HT       0.417000       1.00800           0
     23102 TIP3     3540     TIP3     H2       HT       0.417000       1.00800           0
     23103 TIP3     3541     TIP3     OH2      OT      -0.834000       15.9994           0
     23104 TIP3     3541     TIP3     H1       HT       0.417000       1.00800           0
     23105 TIP3     3541     TIP3     H2       HT       0.417000       1.00800           0
     23106 TIP3     3542     TIP3     OH2      OT      -0.834000       15.9994           0
     23107 TIP3     3542     TIP3     H1       HT       0.417000       1.00800           0
     23108 TIP3     3542     TIP3     H2       HT       0.417000       1.00800           0
     23109 TIP3     3543     TIP3     OH2      OT      -0.834000       15.9994           0
     23110 TIP3     3543     TIP3     H1       HT       0.417000       1.00800           0
     23111 TIP3     3543     TIP3     H2       HT       0.417000       1.00800           0
     23112 TIP3     3544     TIP3     OH2      OT      -0.834000       15.9994           0
     23113 TIP3     3544     TIP3     H1       HT       0.417000       1.00800           0
     23114 TIP3     3544     TIP3     H2       HT       0.417000       1.00800           0
     23115 TIP3     3545     TIP3     OH2      OT      -0.834000       15.9994           0
     23116 TIP3     3545     TIP3     H1       HT       0.417000       1.00800           0
     23117 TIP3     3545     TIP3     H2       HT       0.417000       1.00800           0
     23118 TIP3     3546     TIP3     OH2      OT      -0.834000       15.9994           0
     23119 TIP3     3546     TIP3     H1       HT       0.417000       1.00800           0
     23120 TIP3     3546     TIP3     H2       HT       0.417000       1.00800           0
     23121 TIP3     3547     TIP3     OH2      OT      -0.834000       15.9994           0
     23122 TIP3     3547     TIP3     H1       HT       0.417000       1.00800           0
     23123 TIP3     3547     TIP3     H2       HT       0.417000       1.00800           0
     23124 TIP3     3548     TIP3     OH2      OT      -0.834000       15.9994           0
     23125 TIP3     3548     TIP3     H1       HT       0.417000       1.00800           0
     23126 TIP3     3548     TIP3     H2       HT       0.417000       1.00800           0
     23127 TIP3     3549     TIP3     OH2      OT      -0.834000       15.9994           0
     23128 TIP3     3549     TIP3     H1       HT       0.417000       1.00800           0
     23129 TIP3     3549     TIP3     H2       HT       0.417000       1.00800           0
     23130 TIP3     3550     TIP3     OH2      OT      -0.834000       15.9994           0
     23131 TIP3     3550     TIP3     H1       HT       0.417000       1.00800           0
     23132 TIP3     3550     TIP3     H2       HT       0.417000       1.00800           0
     23133 TIP3     3551     TIP3     OH2      OT      -0.834000       15.9994           0
     23134 TIP3     3551     TIP3     H1       HT       0.417000       1.00800           0
     23135 TIP3     3551     TIP3     H2       HT       0.417000       1.00800           0
     23136 TIP3     3552     TIP3     OH2      OT      -0.834000       15.9994           0
     23137 TIP3     3552     TIP3     H1       HT       0.417000       1.00800           0
     23138 TIP3     3552     TIP3     H2       HT       0.417000       1.00800           0
     23139 TIP3     3553     TIP3     OH2      OT      -0.834000       15.9994           0
     23140 TIP3     3553     TIP3     H1       HT       0.417000       1.00800           0
     23141 TIP3     3553     TIP3     H2       HT       0.417000       1.00800           0
     23142 TIP3     3554     TIP3     OH2      OT      -0.834000       15.9994           0
     23143 TIP3     3554     TIP3     H1       HT       0.417000       1.00800           0
     23144 TIP3     3554     TIP3     H2       HT       0.417000       1.00800           0
     23145 TIP3     3555     TIP3     OH2      OT      -0.834000       15.9994           0
     23146 TIP3     3555     TIP3     H1       HT       0.417000       1.00800           0
     23147 TIP3     3555     TIP3     H2       HT       0.417000       1.00800           0
     23148 TIP3     3556     TIP3     OH2      OT      -0.834000       15.9994           0
     23149 TIP3     3556     TIP3     H1       HT       0.417000       1.00800           0
     23150 TIP3     3556     TIP3     H2       HT       0.417000       1.00800           0
     23151 TIP3     3557     TIP3     OH2      OT      -0.834000       15.9994           0
     23152 TIP3     3557     TIP3     H1       HT       0.417000       1.00800           0
     23153 TIP3     3557     TIP3     H2       HT       0.417000       1.00800           0
     23154 TIP3     3558     TIP3     OH2      OT      -0.834000       15.9994           0
     23155 TIP3     3558     TIP3     H1       HT       0.417000       1.00800           0
     23156 TIP3     3558     TIP3     H2       HT       0.417000       1.00800           0
     23157 TIP3     3559     TIP3     OH2      OT      -0.834000       15.9994           0
     23158 TIP3     3559     TIP3     H1       HT       0.417000       1.00800           0
     23159 TIP3     3559     TIP3     H2       HT       0.417000       1.00800           0
     23160 TIP3     3560     TIP3     OH2      OT      -0.834000       15.9994           0
     23161 TIP3     3560     TIP3     H1       HT       0.417000       1.00800           0
     23162 TIP3     3560     TIP3     H2       HT       0.417000       1.00800           0
     23163 TIP3     3561     TIP3     OH2      OT      -0.834000       15.9994           0
     23164 TIP3     3561     TIP3     H1       HT       0.417000       1.00800           0
     23165 TIP3     3561     TIP3     H2       HT       0.417000       1.00800           0
     23166 TIP3     3562     TIP3     OH2      OT      -0.834000       15.9994           0
     23167 TIP3     3562     TIP3     H1       HT       0.417000       1.00800           0
     23168 TIP3     3562     TIP3     H2       HT       0.417000       1.00800           0
     23169 TIP3     3563     TIP3     OH2      OT      -0.834000       15.9994           0
     23170 TIP3     3563     TIP3     H1       HT       0.417000       1.00800           0
     23171 TIP3     3563     TIP3     H2       HT       0.417000       1.00800           0
     23172 TIP3     3564     TIP3     OH2      OT      -0.834000       15.9994           0
     23173 TIP3     3564     TIP3     H1       HT       0.417000       1.00800           0
     23174 TIP3     3564     TIP3     H2       HT       0.417000       1.00800           0
     23175 TIP3     3565     TIP3     OH2      OT      -0.834000       15.9994           0
     23176 TIP3     3565     TIP3     H1       HT       0.417000       1.00800           0
     23177 TIP3     3565     TIP3     H2       HT       0.417000       1.00800           0
     23178 TIP3     3566     TIP3     OH2      OT      -0.834000       15.9994           0
     23179 TIP3     3566     TIP3     H1       HT       0.417000       1.00800           0
     23180 TIP3     3566     TIP3     H2       HT       0.417000       1.00800           0
     23181 TIP3     3567     TIP3     OH2      OT      -0.834000       15.9994           0
     23182 TIP3     3567     TIP3     H1       HT       0.417000       1.00800           0
     23183 TIP3     3567     TIP3     H2       HT       0.417000       1.00800           0
     23184 TIP3     3568     TIP3     OH2      OT      -0.834000       15.9994           0
     23185 TIP3     3568     TIP3     H1       HT       0.417000       1.00800           0
     23186 TIP3     3568     TIP3     H2       HT       0.417000       1.00800           0
     23187 TIP3     3569     TIP3     OH2      OT      -0.834000       15.9994           0
     23188 TIP3     3569     TIP3     H1       HT       0.417000       1.00800           0
     23189 TIP3     3569     TIP3     H2       HT       0.417000       1.00800           0
     23190 TIP3     3570     TIP3     OH2      OT      -0.834000       15.9994           0
     23191 TIP3     3570     TIP3     H1       HT       0.417000       1.00800           0
     23192 TIP3     3570     TIP3     H2       HT       0.417000       1.00800           0
     23193 TIP3     3571     TIP3     OH2      OT      -0.834000       15.9994           0
     23194 TIP3     3571     TIP3     H1       HT       0.417000       1.00800           0
     23195 TIP3     3571     TIP3     H2       HT       0.417000       1.00800           0
     23196 TIP3     3572     TIP3     OH2      OT      -0.834000       15.9994           0
     23197 TIP3     3572     TIP3     H1       HT       0.417000       1.00800           0
     23198 TIP3     3572     TIP3     H2       HT       0.417000       1.00800           0
     23199 TIP3     3573     TIP3     OH2      OT      -0.834000       15.9994           0
     23200 TIP3     3573     TIP3     H1       HT       0.417000       1.00800           0
     23201 TIP3     3573     TIP3     H2       HT       0.417000       1.00800           0
     23202 TIP3     3574     TIP3     OH2      OT      -0.834000       15.9994           0
     23203 TIP3     3574     TIP3     H1       HT       0.417000       1.00800           0
     23204 TIP3     3574     TIP3     H2       HT       0.417000       1.00800           0
     23205 TIP3     3575     TIP3     OH2      OT      -0.834000       15.9994           0
     23206 TIP3     3575     TIP3     H1       HT       0.417000       1.00800           0
     23207 TIP3     3575     TIP3     H2       HT       0.417000       1.00800           0
     23208 TIP3     3576     TIP3     OH2      OT      -0.834000       15.9994           0
     23209 TIP3     3576     TIP3     H1       HT       0.417000       1.00800           0
     23210 TIP3     3576     TIP3     H2       HT       0.417000       1.00800           0
     23211 TIP3     3577     TIP3     OH2      OT      -0.834000       15.9994           0
     23212 TIP3     3577     TIP3     H1       HT       0.417000       1.00800           0
     23213 TIP3     3577     TIP3     H2       HT       0.417000       1.00800           0
     23214 TIP3     3578     TIP3     OH2      OT      -0.834000       15.9994           0
     23215 TIP3     3578     TIP3     H1       HT       0.417000       1.00800           0
     23216 TIP3     3578     TIP3     H2       HT       0.417000       1.00800           0
     23217 TIP3     3579     TIP3     OH2      OT      -0.834000       15.9994           0
     23218 TIP3     3579     TIP3     H1       HT       0.417000       1.00800           0
     23219 TIP3     3579     TIP3     H2       HT       0.417000       1.00800           0
     23220 TIP3     3580     TIP3     OH2      OT      -0.834000       15.9994           0
     23221 TIP3     3580     TIP3     H1       HT       0.417000       1.00800           0
     23222 TIP3     3580     TIP3     H2       HT       0.417000       1.00800           0
     23223 TIP3     3581     TIP3     OH2      OT      -0.834000       15.9994           0
     23224 TIP3     3581     TIP3     H1       HT       0.417000       1.00800           0
     23225 TIP3     3581     TIP3     H2       HT       0.417000       1.00800           0
     23226 TIP3     3582     TIP3     OH2      OT      -0.834000       15.9994           0
     23227 TIP3     3582     TIP3     H1       HT       0.417000       1.00800           0
     23228 TIP3     3582     TIP3     H2       HT       0.417000       1.00800           0
     23229 TIP3     3583     TIP3     OH2      OT      -0.834000       15.9994           0
     23230 TIP3     3583     TIP3     H1       HT       0.417000       1.00800           0
     23231 TIP3     3583     TIP3     H2       HT       0.417000       1.00800           0
     23232 TIP3     3584     TIP3     OH2      OT      -0.834000       15.9994           0
     23233 TIP3     3584     TIP3     H1       HT       0.417000       1.00800           0
     23234 TIP3     3584     TIP3     H2       HT       0.417000       1.00800           0
     23235 TIP3     3585     TIP3     OH2      OT      -0.834000       15.9994           0
     23236 TIP3     3585     TIP3     H1       HT       0.417000       1.00800           0
     23237 TIP3     3585     TIP3     H2       HT       0.417000       1.00800           0
     23238 TIP3     3586     TIP3     OH2      OT      -0.834000       15.9994           0
     23239 TIP3     3586     TIP3     H1       HT       0.417000       1.00800           0
     23240 TIP3     3586     TIP3     H2       HT       0.417000       1.00800           0
     23241 TIP3     3587     TIP3     OH2      OT      -0.834000       15.9994           0
     23242 TIP3     3587     TIP3     H1       HT       0.417000       1.00800           0
     23243 TIP3     3587     TIP3     H2       HT       0.417000       1.00800           0
     23244 TIP3     3588     TIP3     OH2      OT      -0.834000       15.9994           0
     23245 TIP3     3588     TIP3     H1       HT       0.417000       1.00800           0
     23246 TIP3     3588     TIP3     H2       HT       0.417000       1.00800           0
     23247 TIP3     3589     TIP3     OH2      OT      -0.834000       15.9994           0
     23248 TIP3     3589     TIP3     H1       HT       0.417000       1.00800           0
     23249 TIP3     3589     TIP3     H2       HT       0.417000       1.00800           0
     23250 TIP3     3590     TIP3     OH2      OT      -0.834000       15.9994           0
     23251 TIP3     3590     TIP3     H1       HT       0.417000       1.00800           0
     23252 TIP3     3590     TIP3     H2       HT       0.417000       1.00800           0
     23253 TIP3     3591     TIP3     OH2      OT      -0.834000       15.9994           0
     23254 TIP3     3591     TIP3     H1       HT       0.417000       1.00800           0
     23255 TIP3     3591     TIP3     H2       HT       0.417000       1.00800           0
     23256 TIP3     3592     TIP3     OH2      OT      -0.834000       15.9994           0
     23257 TIP3     3592     TIP3     H1       HT       0.417000       1.00800           0
     23258 TIP3     3592     TIP3     H2       HT       0.417000       1.00800           0
     23259 TIP3     3593     TIP3     OH2      OT      -0.834000       15.9994           0
     23260 TIP3     3593     TIP3     H1       HT       0.417000       1.00800           0
     23261 TIP3     3593     TIP3     H2       HT       0.417000       1.00800           0
     23262 TIP3     3594     TIP3     OH2      OT      -0.834000       15.9994           0
     23263 TIP3     3594     TIP3     H1       HT       0.417000       1.00800           0
     23264 TIP3     3594     TIP3     H2       HT       0.417000       1.00800           0
     23265 TIP3     3595     TIP3     OH2      OT      -0.834000       15.9994           0
     23266 TIP3     3595     TIP3     H1       HT       0.417000       1.00800           0
     23267 TIP3     3595     TIP3     H2       HT       0.417000       1.00800           0
     23268 TIP3     3596     TIP3     OH2      OT      -0.834000       15.9994           0
     23269 TIP3     3596     TIP3     H1       HT       0.417000       1.00800           0
     23270 TIP3     3596     TIP3     H2       HT       0.417000       1.00800           0
     23271 TIP3     3597     TIP3     OH2      OT      -0.834000       15.9994           0
     23272 TIP3     3597     TIP3     H1       HT       0.417000       1.00800           0
     23273 TIP3     3597     TIP3     H2       HT       0.417000       1.00800           0
     23274 TIP3     3598     TIP3     OH2      OT      -0.834000       15.9994           0
     23275 TIP3     3598     TIP3     H1       HT       0.417000       1.00800           0
     23276 TIP3     3598     TIP3     H2       HT       0.417000       1.00800           0
     23277 TIP3     3599     TIP3     OH2      OT      -0.834000       15.9994           0
     23278 TIP3     3599     TIP3     H1       HT       0.417000       1.00800           0
     23279 TIP3     3599     TIP3     H2       HT       0.417000       1.00800           0
     23280 TIP3     3600     TIP3     OH2      OT      -0.834000       15.9994           0
     23281 TIP3     3600     TIP3     H1       HT       0.417000       1.00800           0
     23282 TIP3     3600     TIP3     H2       HT       0.417000       1.00800           0
     23283 TIP3     3601     TIP3     OH2      OT      -0.834000       15.9994           0
     23284 TIP3     3601     TIP3     H1       HT       0.417000       1.00800           0
     23285 TIP3     3601     TIP3     H2       HT       0.417000       1.00800           0
     23286 TIP3     3602     TIP3     OH2      OT      -0.834000       15.9994           0
     23287 TIP3     3602     TIP3     H1       HT       0.417000       1.00800           0
     23288 TIP3     3602     TIP3     H2       HT       0.417000       1.00800           0
     23289 TIP3     3603     TIP3     OH2      OT      -0.834000       15.9994           0
     23290 TIP3     3603     TIP3     H1       HT       0.417000       1.00800           0
     23291 TIP3     3603     TIP3     H2       HT       0.417000       1.00800           0
     23292 TIP3     3604     TIP3     OH2      OT      -0.834000       15.9994           0
     23293 TIP3     3604     TIP3     H1       HT       0.417000       1.00800           0
     23294 TIP3     3604     TIP3     H2       HT       0.417000       1.00800           0
     23295 TIP3     3605     TIP3     OH2      OT      -0.834000       15.9994           0
     23296 TIP3     3605     TIP3     H1       HT       0.417000       1.00800           0
     23297 TIP3     3605     TIP3     H2       HT       0.417000       1.00800           0
     23298 TIP3     3606     TIP3     OH2      OT      -0.834000       15.9994           0
     23299 TIP3     3606     TIP3     H1       HT       0.417000       1.00800           0
     23300 TIP3     3606     TIP3     H2       HT       0.417000       1.00800           0
     23301 TIP3     3607     TIP3     OH2      OT      -0.834000       15.9994           0
     23302 TIP3     3607     TIP3     H1       HT       0.417000       1.00800           0
     23303 TIP3     3607     TIP3     H2       HT       0.417000       1.00800           0
     23304 TIP3     3608     TIP3     OH2      OT      -0.834000       15.9994           0
     23305 TIP3     3608     TIP3     H1       HT       0.417000       1.00800           0
     23306 TIP3     3608     TIP3     H2       HT       0.417000       1.00800           0
     23307 TIP3     3609     TIP3     OH2      OT      -0.834000       15.9994           0
     23308 TIP3     3609     TIP3     H1       HT       0.417000       1.00800           0
     23309 TIP3     3609     TIP3     H2       HT       0.417000       1.00800           0
     23310 TIP3     3610     TIP3     OH2      OT      -0.834000       15.9994           0
     23311 TIP3     3610     TIP3     H1       HT       0.417000       1.00800           0
     23312 TIP3     3610     TIP3     H2       HT       0.417000       1.00800           0
     23313 TIP3     3611     TIP3     OH2      OT      -0.834000       15.9994           0
     23314 TIP3     3611     TIP3     H1       HT       0.417000       1.00800           0
     23315 TIP3     3611     TIP3     H2       HT       0.417000       1.00800           0
     23316 TIP3     3612     TIP3     OH2      OT      -0.834000       15.9994           0
     23317 TIP3     3612     TIP3     H1       HT       0.417000       1.00800           0
     23318 TIP3     3612     TIP3     H2       HT       0.417000       1.00800           0
     23319 TIP3     3613     TIP3     OH2      OT      -0.834000       15.9994           0
     23320 TIP3     3613     TIP3     H1       HT       0.417000       1.00800           0
     23321 TIP3     3613     TIP3     H2       HT       0.417000       1.00800           0
     23322 TIP3     3614     TIP3     OH2      OT      -0.834000       15.9994           0
     23323 TIP3     3614     TIP3     H1       HT       0.417000       1.00800           0
     23324 TIP3     3614     TIP3     H2       HT       0.417000       1.00800           0
     23325 TIP3     3615     TIP3     OH2      OT      -0.834000       15.9994           0
     23326 TIP3     3615     TIP3     H1       HT       0.417000       1.00800           0
     23327 TIP3     3615     TIP3     H2       HT       0.417000       1.00800           0
     23328 TIP3     3616     TIP3     OH2      OT      -0.834000       15.9994           0
     23329 TIP3     3616     TIP3     H1       HT       0.417000       1.00800           0
     23330 TIP3     3616     TIP3     H2       HT       0.417000       1.00800           0
     23331 TIP3     3617     TIP3     OH2      OT      -0.834000       15.9994           0
     23332 TIP3     3617     TIP3     H1       HT       0.417000       1.00800           0
     23333 TIP3     3617     TIP3     H2       HT       0.417000       1.00800           0
     23334 TIP3     3618     TIP3     OH2      OT      -0.834000       15.9994           0
     23335 TIP3     3618     TIP3     H1       HT       0.417000       1.00800           0
     23336 TIP3     3618     TIP3     H2       HT       0.417000       1.00800           0
     23337 TIP3     3619     TIP3     OH2      OT      -0.834000       15.9994           0
     23338 TIP3     3619     TIP3     H1       HT       0.417000       1.00800           0
     23339 TIP3     3619     TIP3     H2       HT       0.417000       1.00800           0
     23340 TIP3     3620     TIP3     OH2      OT      -0.834000       15.9994           0
     23341 TIP3     3620     TIP3     H1       HT       0.417000       1.00800           0
     23342 TIP3     3620     TIP3     H2       HT       0.417000       1.00800           0
     23343 TIP3     3621     TIP3     OH2      OT      -0.834000       15.9994           0
     23344 TIP3     3621     TIP3     H1       HT       0.417000       1.00800           0
     23345 TIP3     3621     TIP3     H2       HT       0.417000       1.00800           0
     23346 TIP3     3622     TIP3     OH2      OT      -0.834000       15.9994           0
     23347 TIP3     3622     TIP3     H1       HT       0.417000       1.00800           0
     23348 TIP3     3622     TIP3     H2       HT       0.417000       1.00800           0
     23349 TIP3     3623     TIP3     OH2      OT      -0.834000       15.9994           0
     23350 TIP3     3623     TIP3     H1       HT       0.417000       1.00800           0
     23351 TIP3     3623     TIP3     H2       HT       0.417000       1.00800           0
     23352 TIP3     3624     TIP3     OH2      OT      -0.834000       15.9994           0
     23353 TIP3     3624     TIP3     H1       HT       0.417000       1.00800           0
     23354 TIP3     3624     TIP3     H2       HT       0.417000       1.00800           0
     23355 TIP3     3625     TIP3     OH2      OT      -0.834000       15.9994           0
     23356 TIP3     3625     TIP3     H1       HT       0.417000       1.00800           0
     23357 TIP3     3625     TIP3     H2       HT       0.417000       1.00800           0
     23358 TIP3     3626     TIP3     OH2      OT      -0.834000       15.9994           0
     23359 TIP3     3626     TIP3     H1       HT       0.417000       1.00800           0
     23360 TIP3     3626     TIP3     H2       HT       0.417000       1.00800           0
     23361 TIP3     3627     TIP3     OH2      OT      -0.834000       15.9994           0
     23362 TIP3     3627     TIP3     H1       HT       0.417000       1.00800           0
     23363 TIP3     3627     TIP3     H2       HT       0.417000       1.00800           0
     23364 TIP3     3628     TIP3     OH2      OT      -0.834000       15.9994           0
     23365 TIP3     3628     TIP3     H1       HT       0.417000       1.00800           0
     23366 TIP3     3628     TIP3     H2       HT       0.417000       1.00800           0
     23367 TIP3     3629     TIP3     OH2      OT      -0.834000       15.9994           0
     23368 TIP3     3629     TIP3     H1       HT       0.417000       1.00800           0
     23369 TIP3     3629     TIP3     H2       HT       0.417000       1.00800           0
     23370 TIP3     3630     TIP3     OH2      OT      -0.834000       15.9994           0
     23371 TIP3     3630     TIP3     H1       HT       0.417000       1.00800           0
     23372 TIP3     3630     TIP3     H2       HT       0.417000       1.00800           0
     23373 TIP3     3631     TIP3     OH2      OT      -0.834000       15.9994           0
     23374 TIP3     3631     TIP3     H1       HT       0.417000       1.00800           0
     23375 TIP3     3631     TIP3     H2       HT       0.417000       1.00800           0
     23376 TIP3     3632     TIP3     OH2      OT      -0.834000       15.9994           0
     23377 TIP3     3632     TIP3     H1       HT       0.417000       1.00800           0
     23378 TIP3     3632     TIP3     H2       HT       0.417000       1.00800           0
     23379 TIP3     3633     TIP3     OH2      OT      -0.834000       15.9994           0
     23380 TIP3     3633     TIP3     H1       HT       0.417000       1.00800           0
     23381 TIP3     3633     TIP3     H2       HT       0.417000       1.00800           0
     23382 TIP3     3634     TIP3     OH2      OT      -0.834000       15.9994           0
     23383 TIP3     3634     TIP3     H1       HT       0.417000       1.00800           0
     23384 TIP3     3634     TIP3     H2       HT       0.417000       1.00800           0
     23385 TIP3     3635     TIP3     OH2      OT      -0.834000       15.9994           0
     23386 TIP3     3635     TIP3     H1       HT       0.417000       1.00800           0
     23387 TIP3     3635     TIP3     H2       HT       0.417000       1.00800           0
     23388 TIP3     3636     TIP3     OH2      OT      -0.834000       15.9994           0
     23389 TIP3     3636     TIP3     H1       HT       0.417000       1.00800           0
     23390 TIP3     3636     TIP3     H2       HT       0.417000       1.00800           0
     23391 TIP3     3637     TIP3     OH2      OT      -0.834000       15.9994           0
     23392 TIP3     3637     TIP3     H1       HT       0.417000       1.00800           0
     23393 TIP3     3637     TIP3     H2       HT       0.417000       1.00800           0
     23394 TIP3     3638     TIP3     OH2      OT      -0.834000       15.9994           0
     23395 TIP3     3638     TIP3     H1       HT       0.417000       1.00800           0
     23396 TIP3     3638     TIP3     H2       HT       0.417000       1.00800           0
     23397 TIP3     3639     TIP3     OH2      OT      -0.834000       15.9994           0
     23398 TIP3     3639     TIP3     H1       HT       0.417000       1.00800           0
     23399 TIP3     3639     TIP3     H2       HT       0.417000       1.00800           0
     23400 TIP3     3640     TIP3     OH2      OT      -0.834000       15.9994           0
     23401 TIP3     3640     TIP3     H1       HT       0.417000       1.00800           0
     23402 TIP3     3640     TIP3     H2       HT       0.417000       1.00800           0
     23403 TIP3     3641     TIP3     OH2      OT      -0.834000       15.9994           0
     23404 TIP3     3641     TIP3     H1       HT       0.417000       1.00800           0
     23405 TIP3     3641     TIP3     H2       HT       0.417000       1.00800           0
     23406 TIP3     3642     TIP3     OH2      OT      -0.834000       15.9994           0
     23407 TIP3     3642     TIP3     H1       HT       0.417000       1.00800           0
     23408 TIP3     3642     TIP3     H2       HT       0.417000       1.00800           0
     23409 TIP3     3643     TIP3     OH2      OT      -0.834000       15.9994           0
     23410 TIP3     3643     TIP3     H1       HT       0.417000       1.00800           0
     23411 TIP3     3643     TIP3     H2       HT       0.417000       1.00800           0
     23412 TIP3     3644     TIP3     OH2      OT      -0.834000       15.9994           0
     23413 TIP3     3644     TIP3     H1       HT       0.417000       1.00800           0
     23414 TIP3     3644     TIP3     H2       HT       0.417000       1.00800           0
     23415 TIP3     3645     TIP3     OH2      OT      -0.834000       15.9994           0
     23416 TIP3     3645     TIP3     H1       HT       0.417000       1.00800           0
     23417 TIP3     3645     TIP3     H2       HT       0.417000       1.00800           0
     23418 TIP3     3646     TIP3     OH2      OT      -0.834000       15.9994           0
     23419 TIP3     3646     TIP3     H1       HT       0.417000       1.00800           0
     23420 TIP3     3646     TIP3     H2       HT       0.417000       1.00800           0
     23421 TIP3     3647     TIP3     OH2      OT      -0.834000       15.9994           0
     23422 TIP3     3647     TIP3     H1       HT       0.417000       1.00800           0
     23423 TIP3     3647     TIP3     H2       HT       0.417000       1.00800           0
     23424 TIP3     3648     TIP3     OH2      OT      -0.834000       15.9994           0
     23425 TIP3     3648     TIP3     H1       HT       0.417000       1.00800           0
     23426 TIP3     3648     TIP3     H2       HT       0.417000       1.00800           0
     23427 TIP3     3649     TIP3     OH2      OT      -0.834000       15.9994           0
     23428 TIP3     3649     TIP3     H1       HT       0.417000       1.00800           0
     23429 TIP3     3649     TIP3     H2       HT       0.417000       1.00800           0
     23430 TIP3     3650     TIP3     OH2      OT      -0.834000       15.9994           0
     23431 TIP3     3650     TIP3     H1       HT       0.417000       1.00800           0
     23432 TIP3     3650     TIP3     H2       HT       0.417000       1.00800           0
     23433 TIP3     3651     TIP3     OH2      OT      -0.834000       15.9994           0
     23434 TIP3     3651     TIP3     H1       HT       0.417000       1.00800           0
     23435 TIP3     3651     TIP3     H2       HT       0.417000       1.00800           0
     23436 TIP3     3652     TIP3     OH2      OT      -0.834000       15.9994           0
     23437 TIP3     3652     TIP3     H1       HT       0.417000       1.00800           0
     23438 TIP3     3652     TIP3     H2       HT       0.417000       1.00800           0
     23439 TIP3     3653     TIP3     OH2      OT      -0.834000       15.9994           0
     23440 TIP3     3653     TIP3     H1       HT       0.417000       1.00800           0
     23441 TIP3     3653     TIP3     H2       HT       0.417000       1.00800           0
     23442 TIP3     3654     TIP3     OH2      OT      -0.834000       15.9994           0
     23443 TIP3     3654     TIP3     H1       HT       0.417000       1.00800           0
     23444 TIP3     3654     TIP3     H2       HT       0.417000       1.00800           0
     23445 TIP3     3655     TIP3     OH2      OT      -0.834000       15.9994           0
     23446 TIP3     3655     TIP3     H1       HT       0.417000       1.00800           0
     23447 TIP3     3655     TIP3     H2       HT       0.417000       1.00800           0
     23448 TIP3     3656     TIP3     OH2      OT      -0.834000       15.9994           0
     23449 TIP3     3656     TIP3     H1       HT       0.417000       1.00800           0
     23450 TIP3     3656     TIP3     H2       HT       0.417000       1.00800           0
     23451 TIP3     3657     TIP3     OH2      OT      -0.834000       15.9994           0
     23452 TIP3     3657     TIP3     H1       HT       0.417000       1.00800           0
     23453 TIP3     3657     TIP3     H2       HT       0.417000       1.00800           0
     23454 TIP3     3658     TIP3     OH2      OT      -0.834000       15.9994           0
     23455 TIP3     3658     TIP3     H1       HT       0.417000       1.00800           0
     23456 TIP3     3658     TIP3     H2       HT       0.417000       1.00800           0
     23457 TIP3     3659     TIP3     OH2      OT      -0.834000       15.9994           0
     23458 TIP3     3659     TIP3     H1       HT       0.417000       1.00800           0
     23459 TIP3     3659     TIP3     H2       HT       0.417000       1.00800           0
     23460 TIP3     3660     TIP3     OH2      OT      -0.834000       15.9994           0
     23461 TIP3     3660     TIP3     H1       HT       0.417000       1.00800           0
     23462 TIP3     3660     TIP3     H2       HT       0.417000       1.00800           0
     23463 TIP3     3661     TIP3     OH2      OT      -0.834000       15.9994           0
     23464 TIP3     3661     TIP3     H1       HT       0.417000       1.00800           0
     23465 TIP3     3661     TIP3     H2       HT       0.417000       1.00800           0
     23466 TIP3     3662     TIP3     OH2      OT      -0.834000       15.9994           0
     23467 TIP3     3662     TIP3     H1       HT       0.417000       1.00800           0
     23468 TIP3     3662     TIP3     H2       HT       0.417000       1.00800           0
     23469 TIP3     3663     TIP3     OH2      OT      -0.834000       15.9994           0
     23470 TIP3     3663     TIP3     H1       HT       0.417000       1.00800           0
     23471 TIP3     3663     TIP3     H2       HT       0.417000       1.00800           0
     23472 TIP3     3664     TIP3     OH2      OT      -0.834000       15.9994           0
     23473 TIP3     3664     TIP3     H1       HT       0.417000       1.00800           0
     23474 TIP3     3664     TIP3     H2       HT       0.417000       1.00800           0
     23475 TIP3     3665     TIP3     OH2      OT      -0.834000       15.9994           0
     23476 TIP3     3665     TIP3     H1       HT       0.417000       1.00800           0
     23477 TIP3     3665     TIP3     H2       HT       0.417000       1.00800           0
     23478 TIP3     3666     TIP3     OH2      OT      -0.834000       15.9994           0
     23479 TIP3     3666     TIP3     H1       HT       0.417000       1.00800           0
     23480 TIP3     3666     TIP3     H2       HT       0.417000       1.00800           0
     23481 TIP3     3667     TIP3     OH2      OT      -0.834000       15.9994           0
     23482 TIP3     3667     TIP3     H1       HT       0.417000       1.00800           0
     23483 TIP3     3667     TIP3     H2       HT       0.417000       1.00800           0
     23484 TIP3     3668     TIP3     OH2      OT      -0.834000       15.9994           0
     23485 TIP3     3668     TIP3     H1       HT       0.417000       1.00800           0
     23486 TIP3     3668     TIP3     H2       HT       0.417000       1.00800           0
     23487 TIP3     3669     TIP3     OH2      OT      -0.834000       15.9994           0
     23488 TIP3     3669     TIP3     H1       HT       0.417000       1.00800           0
     23489 TIP3     3669     TIP3     H2       HT       0.417000       1.00800           0
     23490 TIP3     3670     TIP3     OH2      OT      -0.834000       15.9994           0
     23491 TIP3     3670     TIP3     H1       HT       0.417000       1.00800           0
     23492 TIP3     3670     TIP3     H2       HT       0.417000       1.00800           0
     23493 TIP3     3671     TIP3     OH2      OT      -0.834000       15.9994           0
     23494 TIP3     3671     TIP3     H1       HT       0.417000       1.00800           0
     23495 TIP3     3671     TIP3     H2       HT       0.417000       1.00800           0
     23496 TIP3     3672     TIP3     OH2      OT      -0.834000       15.9994           0
     23497 TIP3     3672     TIP3     H1       HT       0.417000       1.00800           0
     23498 TIP3     3672     TIP3     H2       HT       0.417000       1.00800           0
     23499 TIP3     3673     TIP3     OH2      OT      -0.834000       15.9994           0
     23500 TIP3     3673     TIP3     H1       HT       0.417000       1.00800           0
     23501 TIP3     3673     TIP3     H2       HT       0.417000       1.00800           0
     23502 TIP3     3674     TIP3     OH2      OT      -0.834000       15.9994           0
     23503 TIP3     3674     TIP3     H1       HT       0.417000       1.00800           0
     23504 TIP3     3674     TIP3     H2       HT       0.417000       1.00800           0
     23505 TIP3     3675     TIP3     OH2      OT      -0.834000       15.9994           0
     23506 TIP3     3675     TIP3     H1       HT       0.417000       1.00800           0
     23507 TIP3     3675     TIP3     H2       HT       0.417000       1.00800           0
     23508 TIP3     3676     TIP3     OH2      OT      -0.834000       15.9994           0
     23509 TIP3     3676     TIP3     H1       HT       0.417000       1.00800           0
     23510 TIP3     3676     TIP3     H2       HT       0.417000       1.00800           0
     23511 TIP3     3677     TIP3     OH2      OT      -0.834000       15.9994           0
     23512 TIP3     3677     TIP3     H1       HT       0.417000       1.00800           0
     23513 TIP3     3677     TIP3     H2       HT       0.417000       1.00800           0
     23514 TIP3     3678     TIP3     OH2      OT      -0.834000       15.9994           0
     23515 TIP3     3678     TIP3     H1       HT       0.417000       1.00800           0
     23516 TIP3     3678     TIP3     H2       HT       0.417000       1.00800           0
     23517 TIP3     3679     TIP3     OH2      OT      -0.834000       15.9994           0
     23518 TIP3     3679     TIP3     H1       HT       0.417000       1.00800           0
     23519 TIP3     3679     TIP3     H2       HT       0.417000       1.00800           0
     23520 TIP3     3680     TIP3     OH2      OT      -0.834000       15.9994           0
     23521 TIP3     3680     TIP3     H1       HT       0.417000       1.00800           0
     23522 TIP3     3680     TIP3     H2       HT       0.417000       1.00800           0
     23523 TIP3     3681     TIP3     OH2      OT      -0.834000       15.9994           0
     23524 TIP3     3681     TIP3     H1       HT       0.417000       1.00800           0
     23525 TIP3     3681     TIP3     H2       HT       0.417000       1.00800           0
     23526 TIP3     3682     TIP3     OH2      OT      -0.834000       15.9994           0
     23527 TIP3     3682     TIP3     H1       HT       0.417000       1.00800           0
     23528 TIP3     3682     TIP3     H2       HT       0.417000       1.00800           0
     23529 TIP3     3683     TIP3     OH2      OT      -0.834000       15.9994           0
     23530 TIP3     3683     TIP3     H1       HT       0.417000       1.00800           0
     23531 TIP3     3683     TIP3     H2       HT       0.417000       1.00800           0
     23532 TIP3     3684     TIP3     OH2      OT      -0.834000       15.9994           0
     23533 TIP3     3684     TIP3     H1       HT       0.417000       1.00800           0
     23534 TIP3     3684     TIP3     H2       HT       0.417000       1.00800           0
     23535 TIP3     3685     TIP3     OH2      OT      -0.834000       15.9994           0
     23536 TIP3     3685     TIP3     H1       HT       0.417000       1.00800           0
     23537 TIP3     3685     TIP3     H2       HT       0.417000       1.00800           0
     23538 TIP3     3686     TIP3     OH2      OT      -0.834000       15.9994           0
     23539 TIP3     3686     TIP3     H1       HT       0.417000       1.00800           0
     23540 TIP3     3686     TIP3     H2       HT       0.417000       1.00800           0
     23541 TIP3     3687     TIP3     OH2      OT      -0.834000       15.9994           0
     23542 TIP3     3687     TIP3     H1       HT       0.417000       1.00800           0
     23543 TIP3     3687     TIP3     H2       HT       0.417000       1.00800           0
     23544 TIP3     3688     TIP3     OH2      OT      -0.834000       15.9994           0
     23545 TIP3     3688     TIP3     H1       HT       0.417000       1.00800           0
     23546 TIP3     3688     TIP3     H2       HT       0.417000       1.00800           0
     23547 TIP3     3689     TIP3     OH2      OT      -0.834000       15.9994           0
     23548 TIP3     3689     TIP3     H1       HT       0.417000       1.00800           0
     23549 TIP3     3689     TIP3     H2       HT       0.417000       1.00800           0
     23550 TIP3     3690     TIP3     OH2      OT      -0.834000       15.9994           0
     23551 TIP3     3690     TIP3     H1       HT       0.417000       1.00800           0
     23552 TIP3     3690     TIP3     H2       HT       0.417000       1.00800           0
     23553 TIP3     3691     TIP3     OH2      OT      -0.834000       15.9994           0
     23554 TIP3     3691     TIP3     H1       HT       0.417000       1.00800           0
     23555 TIP3     3691     TIP3     H2       HT       0.417000       1.00800           0
     23556 TIP3     3692     TIP3     OH2      OT      -0.834000       15.9994           0
     23557 TIP3     3692     TIP3     H1       HT       0.417000       1.00800           0
     23558 TIP3     3692     TIP3     H2       HT       0.417000       1.00800           0
     23559 TIP3     3693     TIP3     OH2      OT      -0.834000       15.9994           0
     23560 TIP3     3693     TIP3     H1       HT       0.417000       1.00800           0
     23561 TIP3     3693     TIP3     H2       HT       0.417000       1.00800           0
     23562 TIP3     3694     TIP3     OH2      OT      -0.834000       15.9994           0
     23563 TIP3     3694     TIP3     H1       HT       0.417000       1.00800           0
     23564 TIP3     3694     TIP3     H2       HT       0.417000       1.00800           0
     23565 TIP3     3695     TIP3     OH2      OT      -0.834000       15.9994           0
     23566 TIP3     3695     TIP3     H1       HT       0.417000       1.00800           0
     23567 TIP3     3695     TIP3     H2       HT       0.417000       1.00800           0
     23568 TIP3     3696     TIP3     OH2      OT      -0.834000       15.9994           0
     23569 TIP3     3696     TIP3     H1       HT       0.417000       1.00800           0
     23570 TIP3     3696     TIP3     H2       HT       0.417000       1.00800           0
     23571 TIP3     3697     TIP3     OH2      OT      -0.834000       15.9994           0
     23572 TIP3     3697     TIP3     H1       HT       0.417000       1.00800           0
     23573 TIP3     3697     TIP3     H2       HT       0.417000       1.00800           0
     23574 TIP3     3698     TIP3     OH2      OT      -0.834000       15.9994           0
     23575 TIP3     3698     TIP3     H1       HT       0.417000       1.00800           0
     23576 TIP3     3698     TIP3     H2       HT       0.417000       1.00800           0
     23577 TIP3     3699     TIP3     OH2      OT      -0.834000       15.9994           0
     23578 TIP3     3699     TIP3     H1       HT       0.417000       1.00800           0
     23579 TIP3     3699     TIP3     H2       HT       0.417000       1.00800           0
     23580 TIP3     3700     TIP3     OH2      OT      -0.834000       15.9994           0
     23581 TIP3     3700     TIP3     H1       HT       0.417000       1.00800           0
     23582 TIP3     3700     TIP3     H2       HT       0.417000       1.00800           0
     23583 TIP3     3701     TIP3     OH2      OT      -0.834000       15.9994           0
     23584 TIP3     3701     TIP3     H1       HT       0.417000       1.00800           0
     23585 TIP3     3701     TIP3     H2       HT       0.417000       1.00800           0
     23586 TIP3     3702     TIP3     OH2      OT      -0.834000       15.9994           0
     23587 TIP3     3702     TIP3     H1       HT       0.417000       1.00800           0
     23588 TIP3     3702     TIP3     H2       HT       0.417000       1.00800           0
     23589 TIP3     3703     TIP3     OH2      OT      -0.834000       15.9994           0
     23590 TIP3     3703     TIP3     H1       HT       0.417000       1.00800           0
     23591 TIP3     3703     TIP3     H2       HT       0.417000       1.00800           0
     23592 TIP3     3704     TIP3     OH2      OT      -0.834000       15.9994           0
     23593 TIP3     3704     TIP3     H1       HT       0.417000       1.00800           0
     23594 TIP3     3704     TIP3     H2       HT       0.417000       1.00800           0
     23595 TIP3     3705     TIP3     OH2      OT      -0.834000       15.9994           0
     23596 TIP3     3705     TIP3     H1       HT       0.417000       1.00800           0
     23597 TIP3     3705     TIP3     H2       HT       0.417000       1.00800           0
     23598 TIP3     3706     TIP3     OH2      OT      -0.834000       15.9994           0
     23599 TIP3     3706     TIP3     H1       HT       0.417000       1.00800           0
     23600 TIP3     3706     TIP3     H2       HT       0.417000       1.00800           0
     23601 TIP3     3707     TIP3     OH2      OT      -0.834000       15.9994           0
     23602 TIP3     3707     TIP3     H1       HT       0.417000       1.00800           0
     23603 TIP3     3707     TIP3     H2       HT       0.417000       1.00800           0
     23604 TIP3     3708     TIP3     OH2      OT      -0.834000       15.9994           0
     23605 TIP3     3708     TIP3     H1       HT       0.417000       1.00800           0
     23606 TIP3     3708     TIP3     H2       HT       0.417000       1.00800           0
     23607 TIP3     3709     TIP3     OH2      OT      -0.834000       15.9994           0
     23608 TIP3     3709     TIP3     H1       HT       0.417000       1.00800           0
     23609 TIP3     3709     TIP3     H2       HT       0.417000       1.00800           0
     23610 TIP3     3710     TIP3     OH2      OT      -0.834000       15.9994           0
     23611 TIP3     3710     TIP3     H1       HT       0.417000       1.00800           0
     23612 TIP3     3710     TIP3     H2       HT       0.417000       1.00800           0
     23613 TIP3     3711     TIP3     OH2      OT      -0.834000       15.9994           0
     23614 TIP3     3711     TIP3     H1       HT       0.417000       1.00800           0
     23615 TIP3     3711     TIP3     H2       HT       0.417000       1.00800           0
     23616 TIP3     3712     TIP3     OH2      OT      -0.834000       15.9994           0
     23617 TIP3     3712     TIP3     H1       HT       0.417000       1.00800           0
     23618 TIP3     3712     TIP3     H2       HT       0.417000       1.00800           0
     23619 TIP3     3713     TIP3     OH2      OT      -0.834000       15.9994           0
     23620 TIP3     3713     TIP3     H1       HT       0.417000       1.00800           0
     23621 TIP3     3713     TIP3     H2       HT       0.417000       1.00800           0
     23622 TIP3     3714     TIP3     OH2      OT      -0.834000       15.9994           0
     23623 TIP3     3714     TIP3     H1       HT       0.417000       1.00800           0
     23624 TIP3     3714     TIP3     H2       HT       0.417000       1.00800           0
     23625 TIP3     3715     TIP3     OH2      OT      -0.834000       15.9994           0
     23626 TIP3     3715     TIP3     H1       HT       0.417000       1.00800           0
     23627 TIP3     3715     TIP3     H2       HT       0.417000       1.00800           0
     23628 TIP3     3716     TIP3     OH2      OT      -0.834000       15.9994           0
     23629 TIP3     3716     TIP3     H1       HT       0.417000       1.00800           0
     23630 TIP3     3716     TIP3     H2       HT       0.417000       1.00800           0
     23631 TIP3     3717     TIP3     OH2      OT      -0.834000       15.9994           0
     23632 TIP3     3717     TIP3     H1       HT       0.417000       1.00800           0
     23633 TIP3     3717     TIP3     H2       HT       0.417000       1.00800           0
     23634 TIP3     3718     TIP3     OH2      OT      -0.834000       15.9994           0
     23635 TIP3     3718     TIP3     H1       HT       0.417000       1.00800           0
     23636 TIP3     3718     TIP3     H2       HT       0.417000       1.00800           0
     23637 TIP3     3719     TIP3     OH2      OT      -0.834000       15.9994           0
     23638 TIP3     3719     TIP3     H1       HT       0.417000       1.00800           0
     23639 TIP3     3719     TIP3     H2       HT       0.417000       1.00800           0
     23640 TIP3     3720     TIP3     OH2      OT      -0.834000       15.9994           0
     23641 TIP3     3720     TIP3     H1       HT       0.417000       1.00800           0
     23642 TIP3     3720     TIP3     H2       HT       0.417000       1.00800           0
     23643 TIP3     3721     TIP3     OH2      OT      -0.834000       15.9994           0
     23644 TIP3     3721     TIP3     H1       HT       0.417000       1.00800           0
     23645 TIP3     3721     TIP3     H2       HT       0.417000       1.00800           0
     23646 TIP3     3722     TIP3     OH2      OT      -0.834000       15.9994           0
     23647 TIP3     3722     TIP3     H1       HT       0.417000       1.00800           0
     23648 TIP3     3722     TIP3     H2       HT       0.417000       1.00800           0
     23649 TIP3     3723     TIP3     OH2      OT      -0.834000       15.9994           0
     23650 TIP3     3723     TIP3     H1       HT       0.417000       1.00800           0
     23651 TIP3     3723     TIP3     H2       HT       0.417000       1.00800           0
     23652 TIP3     3724     TIP3     OH2      OT      -0.834000       15.9994           0
     23653 TIP3     3724     TIP3     H1       HT       0.417000       1.00800           0
     23654 TIP3     3724     TIP3     H2       HT       0.417000       1.00800           0
     23655 TIP3     3725     TIP3     OH2      OT      -0.834000       15.9994           0
     23656 TIP3     3725     TIP3     H1       HT       0.417000       1.00800           0
     23657 TIP3     3725     TIP3     H2       HT       0.417000       1.00800           0
     23658 TIP3     3726     TIP3     OH2      OT      -0.834000       15.9994           0
     23659 TIP3     3726     TIP3     H1       HT       0.417000       1.00800           0
     23660 TIP3     3726     TIP3     H2       HT       0.417000       1.00800           0
     23661 TIP3     3727     TIP3     OH2      OT      -0.834000       15.9994           0
     23662 TIP3     3727     TIP3     H1       HT       0.417000       1.00800           0
     23663 TIP3     3727     TIP3     H2       HT       0.417000       1.00800           0
     23664 TIP3     3728     TIP3     OH2      OT      -0.834000       15.9994           0
     23665 TIP3     3728     TIP3     H1       HT       0.417000       1.00800           0
     23666 TIP3     3728     TIP3     H2       HT       0.417000       1.00800           0
     23667 TIP3     3729     TIP3     OH2      OT      -0.834000       15.9994           0
     23668 TIP3     3729     TIP3     H1       HT       0.417000       1.00800           0
     23669 TIP3     3729     TIP3     H2       HT       0.417000       1.00800           0
     23670 TIP3     3730     TIP3     OH2      OT      -0.834000       15.9994           0
     23671 TIP3     3730     TIP3     H1       HT       0.417000       1.00800           0
     23672 TIP3     3730     TIP3     H2       HT       0.417000       1.00800           0
     23673 TIP3     3731     TIP3     OH2      OT      -0.834000       15.9994           0
     23674 TIP3     3731     TIP3     H1       HT       0.417000       1.00800           0
     23675 TIP3     3731     TIP3     H2       HT       0.417000       1.00800           0
     23676 TIP3     3732     TIP3     OH2      OT      -0.834000       15.9994           0
     23677 TIP3     3732     TIP3     H1       HT       0.417000       1.00800           0
     23678 TIP3     3732     TIP3     H2       HT       0.417000       1.00800           0
     23679 TIP3     3733     TIP3     OH2      OT      -0.834000       15.9994           0
     23680 TIP3     3733     TIP3     H1       HT       0.417000       1.00800           0
     23681 TIP3     3733     TIP3     H2       HT       0.417000       1.00800           0
     23682 TIP3     3734     TIP3     OH2      OT      -0.834000       15.9994           0
     23683 TIP3     3734     TIP3     H1       HT       0.417000       1.00800           0
     23684 TIP3     3734     TIP3     H2       HT       0.417000       1.00800           0
     23685 TIP3     3735     TIP3     OH2      OT      -0.834000       15.9994           0
     23686 TIP3     3735     TIP3     H1       HT       0.417000       1.00800           0
     23687 TIP3     3735     TIP3     H2       HT       0.417000       1.00800           0
     23688 TIP3     3736     TIP3     OH2      OT      -0.834000       15.9994           0
     23689 TIP3     3736     TIP3     H1       HT       0.417000       1.00800           0
     23690 TIP3     3736     TIP3     H2       HT       0.417000       1.00800           0
     23691 TIP3     3737     TIP3     OH2      OT      -0.834000       15.9994           0
     23692 TIP3     3737     TIP3     H1       HT       0.417000       1.00800           0
     23693 TIP3     3737     TIP3     H2       HT       0.417000       1.00800           0
     23694 TIP3     3738     TIP3     OH2      OT      -0.834000       15.9994           0
     23695 TIP3     3738     TIP3     H1       HT       0.417000       1.00800           0
     23696 TIP3     3738     TIP3     H2       HT       0.417000       1.00800           0
     23697 TIP3     3739     TIP3     OH2      OT      -0.834000       15.9994           0
     23698 TIP3     3739     TIP3     H1       HT       0.417000       1.00800           0
     23699 TIP3     3739     TIP3     H2       HT       0.417000       1.00800           0
     23700 TIP3     3740     TIP3     OH2      OT      -0.834000       15.9994           0
     23701 TIP3     3740     TIP3     H1       HT       0.417000       1.00800           0
     23702 TIP3     3740     TIP3     H2       HT       0.417000       1.00800           0
     23703 TIP3     3741     TIP3     OH2      OT      -0.834000       15.9994           0
     23704 TIP3     3741     TIP3     H1       HT       0.417000       1.00800           0
     23705 TIP3     3741     TIP3     H2       HT       0.417000       1.00800           0
     23706 TIP3     3742     TIP3     OH2      OT      -0.834000       15.9994           0
     23707 TIP3     3742     TIP3     H1       HT       0.417000       1.00800           0
     23708 TIP3     3742     TIP3     H2       HT       0.417000       1.00800           0
     23709 TIP3     3743     TIP3     OH2      OT      -0.834000       15.9994           0
     23710 TIP3     3743     TIP3     H1       HT       0.417000       1.00800           0
     23711 TIP3     3743     TIP3     H2       HT       0.417000       1.00800           0
     23712 TIP3     3744     TIP3     OH2      OT      -0.834000       15.9994           0
     23713 TIP3     3744     TIP3     H1       HT       0.417000       1.00800           0
     23714 TIP3     3744     TIP3     H2       HT       0.417000       1.00800           0
     23715 TIP3     3745     TIP3     OH2      OT      -0.834000       15.9994           0
     23716 TIP3     3745     TIP3     H1       HT       0.417000       1.00800           0
     23717 TIP3     3745     TIP3     H2       HT       0.417000       1.00800           0
     23718 TIP3     3746     TIP3     OH2      OT      -0.834000       15.9994           0
     23719 TIP3     3746     TIP3     H1       HT       0.417000       1.00800           0
     23720 TIP3     3746     TIP3     H2       HT       0.417000       1.00800           0
     23721 TIP3     3747     TIP3     OH2      OT      -0.834000       15.9994           0
     23722 TIP3     3747     TIP3     H1       HT       0.417000       1.00800           0
     23723 TIP3     3747     TIP3     H2       HT       0.417000       1.00800           0
     23724 TIP3     3748     TIP3     OH2      OT      -0.834000       15.9994           0
     23725 TIP3     3748     TIP3     H1       HT       0.417000       1.00800           0
     23726 TIP3     3748     TIP3     H2       HT       0.417000       1.00800           0
     23727 TIP3     3749     TIP3     OH2      OT      -0.834000       15.9994           0
     23728 TIP3     3749     TIP3     H1       HT       0.417000       1.00800           0
     23729 TIP3     3749     TIP3     H2       HT       0.417000       1.00800           0
     23730 TIP3     3750     TIP3     OH2      OT      -0.834000       15.9994           0
     23731 TIP3     3750     TIP3     H1       HT       0.417000       1.00800           0
     23732 TIP3     3750     TIP3     H2       HT       0.417000       1.00800           0
     23733 TIP3     3751     TIP3     OH2      OT      -0.834000       15.9994           0
     23734 TIP3     3751     TIP3     H1       HT       0.417000       1.00800           0
     23735 TIP3     3751     TIP3     H2       HT       0.417000       1.00800           0
     23736 TIP3     3752     TIP3     OH2      OT      -0.834000       15.9994           0
     23737 TIP3     3752     TIP3     H1       HT       0.417000       1.00800           0
     23738 TIP3     3752     TIP3     H2       HT       0.417000       1.00800           0
     23739 TIP3     3753     TIP3     OH2      OT      -0.834000       15.9994           0
     23740 TIP3     3753     TIP3     H1       HT       0.417000       1.00800           0
     23741 TIP3     3753     TIP3     H2       HT       0.417000       1.00800           0
     23742 TIP3     3754     TIP3     OH2      OT      -0.834000       15.9994           0
     23743 TIP3     3754     TIP3     H1       HT       0.417000       1.00800           0
     23744 TIP3     3754     TIP3     H2       HT       0.417000       1.00800           0
     23745 TIP3     3755     TIP3     OH2      OT      -0.834000       15.9994           0
     23746 TIP3     3755     TIP3     H1       HT       0.417000       1.00800           0
     23747 TIP3     3755     TIP3     H2       HT       0.417000       1.00800           0
     23748 TIP3     3756     TIP3     OH2      OT      -0.834000       15.9994           0
     23749 TIP3     3756     TIP3     H1       HT       0.417000       1.00800           0
     23750 TIP3     3756     TIP3     H2       HT       0.417000       1.00800           0
     23751 TIP3     3757     TIP3     OH2      OT      -0.834000       15.9994           0
     23752 TIP3     3757     TIP3     H1       HT       0.417000       1.00800           0
     23753 TIP3     3757     TIP3     H2       HT       0.417000       1.00800           0
     23754 TIP3     3758     TIP3     OH2      OT      -0.834000       15.9994           0
     23755 TIP3     3758     TIP3     H1       HT       0.417000       1.00800           0
     23756 TIP3     3758     TIP3     H2       HT       0.417000       1.00800           0
     23757 TIP3     3759     TIP3     OH2      OT      -0.834000       15.9994           0
     23758 TIP3     3759     TIP3     H1       HT       0.417000       1.00800           0
     23759 TIP3     3759     TIP3     H2       HT       0.417000       1.00800           0
     23760 TIP3     3760     TIP3     OH2      OT      -0.834000       15.9994           0
     23761 TIP3     3760     TIP3     H1       HT       0.417000       1.00800           0
     23762 TIP3     3760     TIP3     H2       HT       0.417000       1.00800           0
     23763 TIP3     3761     TIP3     OH2      OT      -0.834000       15.9994           0
     23764 TIP3     3761     TIP3     H1       HT       0.417000       1.00800           0
     23765 TIP3     3761     TIP3     H2       HT       0.417000       1.00800           0
     23766 TIP3     3762     TIP3     OH2      OT      -0.834000       15.9994           0
     23767 TIP3     3762     TIP3     H1       HT       0.417000       1.00800           0
     23768 TIP3     3762     TIP3     H2       HT       0.417000       1.00800           0
     23769 TIP3     3763     TIP3     OH2      OT      -0.834000       15.9994           0
     23770 TIP3     3763     TIP3     H1       HT       0.417000       1.00800           0
     23771 TIP3     3763     TIP3     H2       HT       0.417000       1.00800           0
     23772 TIP3     3764     TIP3     OH2      OT      -0.834000       15.9994           0
     23773 TIP3     3764     TIP3     H1       HT       0.417000       1.00800           0
     23774 TIP3     3764     TIP3     H2       HT       0.417000       1.00800           0
     23775 TIP3     3765     TIP3     OH2      OT      -0.834000       15.9994           0
     23776 TIP3     3765     TIP3     H1       HT       0.417000       1.00800           0
     23777 TIP3     3765     TIP3     H2       HT       0.417000       1.00800           0
     23778 TIP3     3766     TIP3     OH2      OT      -0.834000       15.9994           0
     23779 TIP3     3766     TIP3     H1       HT       0.417000       1.00800           0
     23780 TIP3     3766     TIP3     H2       HT       0.417000       1.00800           0
     23781 TIP3     3767     TIP3     OH2      OT      -0.834000       15.9994           0
     23782 TIP3     3767     TIP3     H1       HT       0.417000       1.00800           0
     23783 TIP3     3767     TIP3     H2       HT       0.417000       1.00800           0
     23784 TIP3     3768     TIP3     OH2      OT      -0.834000       15.9994           0
     23785 TIP3     3768     TIP3     H1       HT       0.417000       1.00800           0
     23786 TIP3     3768     TIP3     H2       HT       0.417000       1.00800           0
     23787 TIP3     3769     TIP3     OH2      OT      -0.834000       15.9994           0
     23788 TIP3     3769     TIP3     H1       HT       0.417000       1.00800           0
     23789 TIP3     3769     TIP3     H2       HT       0.417000       1.00800           0
     23790 TIP3     3770     TIP3     OH2      OT      -0.834000       15.9994           0
     23791 TIP3     3770     TIP3     H1       HT       0.417000       1.00800           0
     23792 TIP3     3770     TIP3     H2       HT       0.417000       1.00800           0
     23793 TIP3     3771     TIP3     OH2      OT      -0.834000       15.9994           0
     23794 TIP3     3771     TIP3     H1       HT       0.417000       1.00800           0
     23795 TIP3     3771     TIP3     H2       HT       0.417000       1.00800           0
     23796 TIP3     3772     TIP3     OH2      OT      -0.834000       15.9994           0
     23797 TIP3     3772     TIP3     H1       HT       0.417000       1.00800           0
     23798 TIP3     3772     TIP3     H2       HT       0.417000       1.00800           0
     23799 TIP3     3773     TIP3     OH2      OT      -0.834000       15.9994           0
     23800 TIP3     3773     TIP3     H1       HT       0.417000       1.00800           0
     23801 TIP3     3773     TIP3     H2       HT       0.417000       1.00800           0
     23802 TIP3     3774     TIP3     OH2      OT      -0.834000       15.9994           0
     23803 TIP3     3774     TIP3     H1       HT       0.417000       1.00800           0
     23804 TIP3     3774     TIP3     H2       HT       0.417000       1.00800           0
     23805 TIP3     3775     TIP3     OH2      OT      -0.834000       15.9994           0
     23806 TIP3     3775     TIP3     H1       HT       0.417000       1.00800           0
     23807 TIP3     3775     TIP3     H2       HT       0.417000       1.00800           0
     23808 TIP3     3776     TIP3     OH2      OT      -0.834000       15.9994           0
     23809 TIP3     3776     TIP3     H1       HT       0.417000       1.00800           0
     23810 TIP3     3776     TIP3     H2       HT       0.417000       1.00800           0
     23811 TIP3     3777     TIP3     OH2      OT      -0.834000       15.9994           0
     23812 TIP3     3777     TIP3     H1       HT       0.417000       1.00800           0
     23813 TIP3     3777     TIP3     H2       HT       0.417000       1.00800           0
     23814 TIP3     3778     TIP3     OH2      OT      -0.834000       15.9994           0
     23815 TIP3     3778     TIP3     H1       HT       0.417000       1.00800           0
     23816 TIP3     3778     TIP3     H2       HT       0.417000       1.00800           0
     23817 TIP3     3779     TIP3     OH2      OT      -0.834000       15.9994           0
     23818 TIP3     3779     TIP3     H1       HT       0.417000       1.00800           0
     23819 TIP3     3779     TIP3     H2       HT       0.417000       1.00800           0
     23820 TIP3     3780     TIP3     OH2      OT      -0.834000       15.9994           0
     23821 TIP3     3780     TIP3     H1       HT       0.417000       1.00800           0
     23822 TIP3     3780     TIP3     H2       HT       0.417000       1.00800           0
     23823 TIP3     3781     TIP3     OH2      OT      -0.834000       15.9994           0
     23824 TIP3     3781     TIP3     H1       HT       0.417000       1.00800           0
     23825 TIP3     3781     TIP3     H2       HT       0.417000       1.00800           0
     23826 TIP3     3782     TIP3     OH2      OT      -0.834000       15.9994           0
     23827 TIP3     3782     TIP3     H1       HT       0.417000       1.00800           0
     23828 TIP3     3782     TIP3     H2       HT       0.417000       1.00800           0
     23829 TIP3     3783     TIP3     OH2      OT      -0.834000       15.9994           0
     23830 TIP3     3783     TIP3     H1       HT       0.417000       1.00800           0
     23831 TIP3     3783     TIP3     H2       HT       0.417000       1.00800           0
     23832 TIP3     3784     TIP3     OH2      OT      -0.834000       15.9994           0
     23833 TIP3     3784     TIP3     H1       HT       0.417000       1.00800           0
     23834 TIP3     3784     TIP3     H2       HT       0.417000       1.00800           0
     23835 TIP3     3785     TIP3     OH2      OT      -0.834000       15.9994           0
     23836 TIP3     3785     TIP3     H1       HT       0.417000       1.00800           0
     23837 TIP3     3785     TIP3     H2       HT       0.417000       1.00800           0
     23838 TIP3     3786     TIP3     OH2      OT      -0.834000       15.9994           0
     23839 TIP3     3786     TIP3     H1       HT       0.417000       1.00800           0
     23840 TIP3     3786     TIP3     H2       HT       0.417000       1.00800           0
     23841 TIP3     3787     TIP3     OH2      OT      -0.834000       15.9994           0
     23842 TIP3     3787     TIP3     H1       HT       0.417000       1.00800           0
     23843 TIP3     3787     TIP3     H2       HT       0.417000       1.00800           0
     23844 TIP3     3788     TIP3     OH2      OT      -0.834000       15.9994           0
     23845 TIP3     3788     TIP3     H1       HT       0.417000       1.00800           0
     23846 TIP3     3788     TIP3     H2       HT       0.417000       1.00800           0
     23847 TIP3     3789     TIP3     OH2      OT      -0.834000       15.9994           0
     23848 TIP3     3789     TIP3     H1       HT       0.417000       1.00800           0
     23849 TIP3     3789     TIP3     H2       HT       0.417000       1.00800           0
     23850 TIP3     3790     TIP3     OH2      OT      -0.834000       15.9994           0
     23851 TIP3     3790     TIP3     H1       HT       0.417000       1.00800           0
     23852 TIP3     3790     TIP3     H2       HT       0.417000       1.00800           0
     23853 TIP3     3791     TIP3     OH2      OT      -0.834000       15.9994           0
     23854 TIP3     3791     TIP3     H1       HT       0.417000       1.00800           0
     23855 TIP3     3791     TIP3     H2       HT       0.417000       1.00800           0
     23856 TIP3     3792     TIP3     OH2      OT      -0.834000       15.9994           0
     23857 TIP3     3792     TIP3     H1       HT       0.417000       1.00800           0
     23858 TIP3     3792     TIP3     H2       HT       0.417000       1.00800           0
     23859 TIP3     3793     TIP3     OH2      OT      -0.834000       15.9994           0
     23860 TIP3     3793     TIP3     H1       HT       0.417000       1.00800           0
     23861 TIP3     3793     TIP3     H2       HT       0.417000       1.00800           0
     23862 TIP3     3794     TIP3     OH2      OT      -0.834000       15.9994           0
     23863 TIP3     3794     TIP3     H1       HT       0.417000       1.00800           0
     23864 TIP3     3794     TIP3     H2       HT       0.417000       1.00800           0
     23865 TIP3     3795     TIP3     OH2      OT      -0.834000       15.9994           0
     23866 TIP3     3795     TIP3     H1       HT       0.417000       1.00800           0
     23867 TIP3     3795     TIP3     H2       HT       0.417000       1.00800           0
     23868 TIP3     3796     TIP3     OH2      OT      -0.834000       15.9994           0
     23869 TIP3     3796     TIP3     H1       HT       0.417000       1.00800           0
     23870 TIP3     3796     TIP3     H2       HT       0.417000       1.00800           0
     23871 TIP3     3797     TIP3     OH2      OT      -0.834000       15.9994           0
     23872 TIP3     3797     TIP3     H1       HT       0.417000       1.00800           0
     23873 TIP3     3797     TIP3     H2       HT       0.417000       1.00800           0
     23874 TIP3     3798     TIP3     OH2      OT      -0.834000       15.9994           0
     23875 TIP3     3798     TIP3     H1       HT       0.417000       1.00800           0
     23876 TIP3     3798     TIP3     H2       HT       0.417000       1.00800           0
     23877 TIP3     3799     TIP3     OH2      OT      -0.834000       15.9994           0
     23878 TIP3     3799     TIP3     H1       HT       0.417000       1.00800           0
     23879 TIP3     3799     TIP3     H2       HT       0.417000       1.00800           0
     23880 TIP3     3800     TIP3     OH2      OT      -0.834000       15.9994           0
     23881 TIP3     3800     TIP3     H1       HT       0.417000       1.00800           0
     23882 TIP3     3800     TIP3     H2       HT       0.417000       1.00800           0
     23883 TIP3     3801     TIP3     OH2      OT      -0.834000       15.9994           0
     23884 TIP3     3801     TIP3     H1       HT       0.417000       1.00800           0
     23885 TIP3     3801     TIP3     H2       HT       0.417000       1.00800           0
     23886 TIP3     3802     TIP3     OH2      OT      -0.834000       15.9994           0
     23887 TIP3     3802     TIP3     H1       HT       0.417000       1.00800           0
     23888 TIP3     3802     TIP3     H2       HT       0.417000       1.00800           0
     23889 TIP3     3803     TIP3     OH2      OT      -0.834000       15.9994           0
     23890 TIP3     3803     TIP3     H1       HT       0.417000       1.00800           0
     23891 TIP3     3803     TIP3     H2       HT       0.417000       1.00800           0
     23892 TIP3     3804     TIP3     OH2      OT      -0.834000       15.9994           0
     23893 TIP3     3804     TIP3     H1       HT       0.417000       1.00800           0
     23894 TIP3     3804     TIP3     H2       HT       0.417000       1.00800           0
     23895 TIP3     3805     TIP3     OH2      OT      -0.834000       15.9994           0
     23896 TIP3     3805     TIP3     H1       HT       0.417000       1.00800           0
     23897 TIP3     3805     TIP3     H2       HT       0.417000       1.00800           0
     23898 TIP3     3806     TIP3     OH2      OT      -0.834000       15.9994           0
     23899 TIP3     3806     TIP3     H1       HT       0.417000       1.00800           0
     23900 TIP3     3806     TIP3     H2       HT       0.417000       1.00800           0
     23901 TIP3     3807     TIP3     OH2      OT      -0.834000       15.9994           0
     23902 TIP3     3807     TIP3     H1       HT       0.417000       1.00800           0
     23903 TIP3     3807     TIP3     H2       HT       0.417000       1.00800           0
     23904 TIP3     3808     TIP3     OH2      OT      -0.834000       15.9994           0
     23905 TIP3     3808     TIP3     H1       HT       0.417000       1.00800           0
     23906 TIP3     3808     TIP3     H2       HT       0.417000       1.00800           0
     23907 TIP3     3809     TIP3     OH2      OT      -0.834000       15.9994           0
     23908 TIP3     3809     TIP3     H1       HT       0.417000       1.00800           0
     23909 TIP3     3809     TIP3     H2       HT       0.417000       1.00800           0
     23910 TIP3     3810     TIP3     OH2      OT      -0.834000       15.9994           0
     23911 TIP3     3810     TIP3     H1       HT       0.417000       1.00800           0
     23912 TIP3     3810     TIP3     H2       HT       0.417000       1.00800           0
     23913 TIP3     3811     TIP3     OH2      OT      -0.834000       15.9994           0
     23914 TIP3     3811     TIP3     H1       HT       0.417000       1.00800           0
     23915 TIP3     3811     TIP3     H2       HT       0.417000       1.00800           0
     23916 TIP3     3812     TIP3     OH2      OT      -0.834000       15.9994           0
     23917 TIP3     3812     TIP3     H1       HT       0.417000       1.00800           0
     23918 TIP3     3812     TIP3     H2       HT       0.417000       1.00800           0
     23919 TIP3     3813     TIP3     OH2      OT      -0.834000       15.9994           0
     23920 TIP3     3813     TIP3     H1       HT       0.417000       1.00800           0
     23921 TIP3     3813     TIP3     H2       HT       0.417000       1.00800           0
     23922 TIP3     3814     TIP3     OH2      OT      -0.834000       15.9994           0
     23923 TIP3     3814     TIP3     H1       HT       0.417000       1.00800           0
     23924 TIP3     3814     TIP3     H2       HT       0.417000       1.00800           0
     23925 TIP3     3815     TIP3     OH2      OT      -0.834000       15.9994           0
     23926 TIP3     3815     TIP3     H1       HT       0.417000       1.00800           0
     23927 TIP3     3815     TIP3     H2       HT       0.417000       1.00800           0
     23928 TIP3     3816     TIP3     OH2      OT      -0.834000       15.9994           0
     23929 TIP3     3816     TIP3     H1       HT       0.417000       1.00800           0
     23930 TIP3     3816     TIP3     H2       HT       0.417000       1.00800           0
     23931 TIP3     3817     TIP3     OH2      OT      -0.834000       15.9994           0
     23932 TIP3     3817     TIP3     H1       HT       0.417000       1.00800           0
     23933 TIP3     3817     TIP3     H2       HT       0.417000       1.00800           0
     23934 TIP3     3818     TIP3     OH2      OT      -0.834000       15.9994           0
     23935 TIP3     3818     TIP3     H1       HT       0.417000       1.00800           0
     23936 TIP3     3818     TIP3     H2       HT       0.417000       1.00800           0
     23937 TIP3     3819     TIP3     OH2      OT      -0.834000       15.9994           0
     23938 TIP3     3819     TIP3     H1       HT       0.417000       1.00800           0
     23939 TIP3     3819     TIP3     H2       HT       0.417000       1.00800           0
     23940 TIP3     3820     TIP3     OH2      OT      -0.834000       15.9994           0
     23941 TIP3     3820     TIP3     H1       HT       0.417000       1.00800           0
     23942 TIP3     3820     TIP3     H2       HT       0.417000       1.00800           0
     23943 TIP3     3821     TIP3     OH2      OT      -0.834000       15.9994           0
     23944 TIP3     3821     TIP3     H1       HT       0.417000       1.00800           0
     23945 TIP3     3821     TIP3     H2       HT       0.417000       1.00800           0
     23946 TIP3     3822     TIP3     OH2      OT      -0.834000       15.9994           0
     23947 TIP3     3822     TIP3     H1       HT       0.417000       1.00800           0
     23948 TIP3     3822     TIP3     H2       HT       0.417000       1.00800           0
     23949 TIP3     3823     TIP3     OH2      OT      -0.834000       15.9994           0
     23950 TIP3     3823     TIP3     H1       HT       0.417000       1.00800           0
     23951 TIP3     3823     TIP3     H2       HT       0.417000       1.00800           0
     23952 TIP3     3824     TIP3     OH2      OT      -0.834000       15.9994           0
     23953 TIP3     3824     TIP3     H1       HT       0.417000       1.00800           0
     23954 TIP3     3824     TIP3     H2       HT       0.417000       1.00800           0
     23955 TIP3     3825     TIP3     OH2      OT      -0.834000       15.9994           0
     23956 TIP3     3825     TIP3     H1       HT       0.417000       1.00800           0
     23957 TIP3     3825     TIP3     H2       HT       0.417000       1.00800           0
     23958 TIP3     3826     TIP3     OH2      OT      -0.834000       15.9994           0
     23959 TIP3     3826     TIP3     H1       HT       0.417000       1.00800           0
     23960 TIP3     3826     TIP3     H2       HT       0.417000       1.00800           0
     23961 TIP3     3827     TIP3     OH2      OT      -0.834000       15.9994           0
     23962 TIP3     3827     TIP3     H1       HT       0.417000       1.00800           0
     23963 TIP3     3827     TIP3     H2       HT       0.417000       1.00800           0
     23964 TIP3     3828     TIP3     OH2      OT      -0.834000       15.9994           0
     23965 TIP3     3828     TIP3     H1       HT       0.417000       1.00800           0
     23966 TIP3     3828     TIP3     H2       HT       0.417000       1.00800           0
     23967 TIP3     3829     TIP3     OH2      OT      -0.834000       15.9994           0
     23968 TIP3     3829     TIP3     H1       HT       0.417000       1.00800           0
     23969 TIP3     3829     TIP3     H2       HT       0.417000       1.00800           0
     23970 TIP3     3830     TIP3     OH2      OT      -0.834000       15.9994           0
     23971 TIP3     3830     TIP3     H1       HT       0.417000       1.00800           0
     23972 TIP3     3830     TIP3     H2       HT       0.417000       1.00800           0
     23973 TIP3     3831     TIP3     OH2      OT      -0.834000       15.9994           0
     23974 TIP3     3831     TIP3     H1       HT       0.417000       1.00800           0
     23975 TIP3     3831     TIP3     H2       HT       0.417000       1.00800           0
     23976 TIP3     3832     TIP3     OH2      OT      -0.834000       15.9994           0
     23977 TIP3     3832     TIP3     H1       HT       0.417000       1.00800           0
     23978 TIP3     3832     TIP3     H2       HT       0.417000       1.00800           0
     23979 TIP3     3833     TIP3     OH2      OT      -0.834000       15.9994           0
     23980 TIP3     3833     TIP3     H1       HT       0.417000       1.00800           0
     23981 TIP3     3833     TIP3     H2       HT       0.417000       1.00800           0
     23982 TIP3     3834     TIP3     OH2      OT      -0.834000       15.9994           0
     23983 TIP3     3834     TIP3     H1       HT       0.417000       1.00800           0
     23984 TIP3     3834     TIP3     H2       HT       0.417000       1.00800           0
     23985 TIP3     3835     TIP3     OH2      OT      -0.834000       15.9994           0
     23986 TIP3     3835     TIP3     H1       HT       0.417000       1.00800           0
     23987 TIP3     3835     TIP3     H2       HT       0.417000       1.00800           0
     23988 TIP3     3836     TIP3     OH2      OT      -0.834000       15.9994           0
     23989 TIP3     3836     TIP3     H1       HT       0.417000       1.00800           0
     23990 TIP3     3836     TIP3     H2       HT       0.417000       1.00800           0
     23991 TIP3     3837     TIP3     OH2      OT      -0.834000       15.9994           0
     23992 TIP3     3837     TIP3     H1       HT       0.417000       1.00800           0
     23993 TIP3     3837     TIP3     H2       HT       0.417000       1.00800           0
     23994 TIP3     3838     TIP3     OH2      OT      -0.834000       15.9994           0
     23995 TIP3     3838     TIP3     H1       HT       0.417000       1.00800           0
     23996 TIP3     3838     TIP3     H2       HT       0.417000       1.00800           0
     23997 TIP3     3839     TIP3     OH2      OT      -0.834000       15.9994           0
     23998 TIP3     3839     TIP3     H1       HT       0.417000       1.00800           0
     23999 TIP3     3839     TIP3     H2       HT       0.417000       1.00800           0
     24000 TIP3     3840     TIP3     OH2      OT      -0.834000       15.9994           0
     24001 TIP3     3840     TIP3     H1       HT       0.417000       1.00800           0
     24002 TIP3     3840     TIP3     H2       HT       0.417000       1.00800           0
     24003 TIP3     3841     TIP3     OH2      OT      -0.834000       15.9994           0
     24004 TIP3     3841     TIP3     H1       HT       0.417000       1.00800           0
     24005 TIP3     3841     TIP3     H2       HT       0.417000       1.00800           0
     24006 TIP3     3842     TIP3     OH2      OT      -0.834000       15.9994           0
     24007 TIP3     3842     TIP3     H1       HT       0.417000       1.00800           0
     24008 TIP3     3842     TIP3     H2       HT       0.417000       1.00800           0
     24009 TIP3     3843     TIP3     OH2      OT      -0.834000       15.9994           0
     24010 TIP3     3843     TIP3     H1       HT       0.417000       1.00800           0
     24011 TIP3     3843     TIP3     H2       HT       0.417000       1.00800           0
     24012 TIP3     3844     TIP3     OH2      OT      -0.834000       15.9994           0
     24013 TIP3     3844     TIP3     H1       HT       0.417000       1.00800           0
     24014 TIP3     3844     TIP3     H2       HT       0.417000       1.00800           0
     24015 TIP3     3845     TIP3     OH2      OT      -0.834000       15.9994           0
     24016 TIP3     3845     TIP3     H1       HT       0.417000       1.00800           0
     24017 TIP3     3845     TIP3     H2       HT       0.417000       1.00800           0
     24018 TIP3     3846     TIP3     OH2      OT      -0.834000       15.9994           0
     24019 TIP3     3846     TIP3     H1       HT       0.417000       1.00800           0
     24020 TIP3     3846     TIP3     H2       HT       0.417000       1.00800           0
     24021 TIP3     3847     TIP3     OH2      OT      -0.834000       15.9994           0
     24022 TIP3     3847     TIP3     H1       HT       0.417000       1.00800           0
     24023 TIP3     3847     TIP3     H2       HT       0.417000       1.00800           0
     24024 TIP3     3848     TIP3     OH2      OT      -0.834000       15.9994           0
     24025 TIP3     3848     TIP3     H1       HT       0.417000       1.00800           0
     24026 TIP3     3848     TIP3     H2       HT       0.417000       1.00800           0
     24027 TIP3     3849     TIP3     OH2      OT      -0.834000       15.9994           0
     24028 TIP3     3849     TIP3     H1       HT       0.417000       1.00800           0
     24029 TIP3     3849     TIP3     H2       HT       0.417000       1.00800           0
     24030 TIP3     3850     TIP3     OH2      OT      -0.834000       15.9994           0
     24031 TIP3     3850     TIP3     H1       HT       0.417000       1.00800           0
     24032 TIP3     3850     TIP3     H2       HT       0.417000       1.00800           0
     24033 TIP3     3851     TIP3     OH2      OT      -0.834000       15.9994           0
     24034 TIP3     3851     TIP3     H1       HT       0.417000       1.00800           0
     24035 TIP3     3851     TIP3     H2       HT       0.417000       1.00800           0
     24036 TIP3     3852     TIP3     OH2      OT      -0.834000       15.9994           0
     24037 TIP3     3852     TIP3     H1       HT       0.417000       1.00800           0
     24038 TIP3     3852     TIP3     H2       HT       0.417000       1.00800           0
     24039 TIP3     3853     TIP3     OH2      OT      -0.834000       15.9994           0
     24040 TIP3     3853     TIP3     H1       HT       0.417000       1.00800           0
     24041 TIP3     3853     TIP3     H2       HT       0.417000       1.00800           0
     24042 TIP3     3854     TIP3     OH2      OT      -0.834000       15.9994           0
     24043 TIP3     3854     TIP3     H1       HT       0.417000       1.00800           0
     24044 TIP3     3854     TIP3     H2       HT       0.417000       1.00800           0
     24045 TIP3     3855     TIP3     OH2      OT      -0.834000       15.9994           0
     24046 TIP3     3855     TIP3     H1       HT       0.417000       1.00800           0
     24047 TIP3     3855     TIP3     H2       HT       0.417000       1.00800           0
     24048 TIP3     3856     TIP3     OH2      OT      -0.834000       15.9994           0
     24049 TIP3     3856     TIP3     H1       HT       0.417000       1.00800           0
     24050 TIP3     3856     TIP3     H2       HT       0.417000       1.00800           0
     24051 TIP3     3857     TIP3     OH2      OT      -0.834000       15.9994           0
     24052 TIP3     3857     TIP3     H1       HT       0.417000       1.00800           0
     24053 TIP3     3857     TIP3     H2       HT       0.417000       1.00800           0
     24054 TIP3     3858     TIP3     OH2      OT      -0.834000       15.9994           0
     24055 TIP3     3858     TIP3     H1       HT       0.417000       1.00800           0
     24056 TIP3     3858     TIP3     H2       HT       0.417000       1.00800           0
     24057 TIP3     3859     TIP3     OH2      OT      -0.834000       15.9994           0
     24058 TIP3     3859     TIP3     H1       HT       0.417000       1.00800           0
     24059 TIP3     3859     TIP3     H2       HT       0.417000       1.00800           0
     24060 TIP3     3860     TIP3     OH2      OT      -0.834000       15.9994           0
     24061 TIP3     3860     TIP3     H1       HT       0.417000       1.00800           0
     24062 TIP3     3860     TIP3     H2       HT       0.417000       1.00800           0
     24063 TIP3     3861     TIP3     OH2      OT      -0.834000       15.9994           0
     24064 TIP3     3861     TIP3     H1       HT       0.417000       1.00800           0
     24065 TIP3     3861     TIP3     H2       HT       0.417000       1.00800           0
     24066 TIP3     3862     TIP3     OH2      OT      -0.834000       15.9994           0
     24067 TIP3     3862     TIP3     H1       HT       0.417000       1.00800           0
     24068 TIP3     3862     TIP3     H2       HT       0.417000       1.00800           0
     24069 TIP3     3863     TIP3     OH2      OT      -0.834000       15.9994           0
     24070 TIP3     3863     TIP3     H1       HT       0.417000       1.00800           0
     24071 TIP3     3863     TIP3     H2       HT       0.417000       1.00800           0
     24072 TIP3     3864     TIP3     OH2      OT      -0.834000       15.9994           0
     24073 TIP3     3864     TIP3     H1       HT       0.417000       1.00800           0
     24074 TIP3     3864     TIP3     H2       HT       0.417000       1.00800           0
     24075 TIP3     3865     TIP3     OH2      OT      -0.834000       15.9994           0
     24076 TIP3     3865     TIP3     H1       HT       0.417000       1.00800           0
     24077 TIP3     3865     TIP3     H2       HT       0.417000       1.00800           0
     24078 TIP3     3866     TIP3     OH2      OT      -0.834000       15.9994           0
     24079 TIP3     3866     TIP3     H1       HT       0.417000       1.00800           0
     24080 TIP3     3866     TIP3     H2       HT       0.417000       1.00800           0
     24081 TIP3     3867     TIP3     OH2      OT      -0.834000       15.9994           0
     24082 TIP3     3867     TIP3     H1       HT       0.417000       1.00800           0
     24083 TIP3     3867     TIP3     H2       HT       0.417000       1.00800           0
     24084 TIP3     3868     TIP3     OH2      OT      -0.834000       15.9994           0
     24085 TIP3     3868     TIP3     H1       HT       0.417000       1.00800           0
     24086 TIP3     3868     TIP3     H2       HT       0.417000       1.00800           0
     24087 TIP3     3869     TIP3     OH2      OT      -0.834000       15.9994           0
     24088 TIP3     3869     TIP3     H1       HT       0.417000       1.00800           0
     24089 TIP3     3869     TIP3     H2       HT       0.417000       1.00800           0
     24090 TIP3     3870     TIP3     OH2      OT      -0.834000       15.9994           0
     24091 TIP3     3870     TIP3     H1       HT       0.417000       1.00800           0
     24092 TIP3     3870     TIP3     H2       HT       0.417000       1.00800           0
     24093 TIP3     3871     TIP3     OH2      OT      -0.834000       15.9994           0
     24094 TIP3     3871     TIP3     H1       HT       0.417000       1.00800           0
     24095 TIP3     3871     TIP3     H2       HT       0.417000       1.00800           0
     24096 TIP3     3872     TIP3     OH2      OT      -0.834000       15.9994           0
     24097 TIP3     3872     TIP3     H1       HT       0.417000       1.00800           0
     24098 TIP3     3872     TIP3     H2       HT       0.417000       1.00800           0
     24099 TIP3     3873     TIP3     OH2      OT      -0.834000       15.9994           0
     24100 TIP3     3873     TIP3     H1       HT       0.417000       1.00800           0
     24101 TIP3     3873     TIP3     H2       HT       0.417000       1.00800           0
     24102 TIP3     3874     TIP3     OH2      OT      -0.834000       15.9994           0
     24103 TIP3     3874     TIP3     H1       HT       0.417000       1.00800           0
     24104 TIP3     3874     TIP3     H2       HT       0.417000       1.00800           0
     24105 TIP3     3875     TIP3     OH2      OT      -0.834000       15.9994           0
     24106 TIP3     3875     TIP3     H1       HT       0.417000       1.00800           0
     24107 TIP3     3875     TIP3     H2       HT       0.417000       1.00800           0
     24108 TIP3     3876     TIP3     OH2      OT      -0.834000       15.9994           0
     24109 TIP3     3876     TIP3     H1       HT       0.417000       1.00800           0
     24110 TIP3     3876     TIP3     H2       HT       0.417000       1.00800           0
     24111 TIP3     3877     TIP3     OH2      OT      -0.834000       15.9994           0
     24112 TIP3     3877     TIP3     H1       HT       0.417000       1.00800           0
     24113 TIP3     3877     TIP3     H2       HT       0.417000       1.00800           0
     24114 TIP3     3878     TIP3     OH2      OT      -0.834000       15.9994           0
     24115 TIP3     3878     TIP3     H1       HT       0.417000       1.00800           0
     24116 TIP3     3878     TIP3     H2       HT       0.417000       1.00800           0
     24117 TIP3     3879     TIP3     OH2      OT      -0.834000       15.9994           0
     24118 TIP3     3879     TIP3     H1       HT       0.417000       1.00800           0
     24119 TIP3     3879     TIP3     H2       HT       0.417000       1.00800           0
     24120 TIP3     3880     TIP3     OH2      OT      -0.834000       15.9994           0
     24121 TIP3     3880     TIP3     H1       HT       0.417000       1.00800           0
     24122 TIP3     3880     TIP3     H2       HT       0.417000       1.00800           0
     24123 TIP3     3881     TIP3     OH2      OT      -0.834000       15.9994           0
     24124 TIP3     3881     TIP3     H1       HT       0.417000       1.00800           0
     24125 TIP3     3881     TIP3     H2       HT       0.417000       1.00800           0
     24126 TIP3     3882     TIP3     OH2      OT      -0.834000       15.9994           0
     24127 TIP3     3882     TIP3     H1       HT       0.417000       1.00800           0
     24128 TIP3     3882     TIP3     H2       HT       0.417000       1.00800           0
     24129 TIP3     3883     TIP3     OH2      OT      -0.834000       15.9994           0
     24130 TIP3     3883     TIP3     H1       HT       0.417000       1.00800           0
     24131 TIP3     3883     TIP3     H2       HT       0.417000       1.00800           0
     24132 TIP3     3884     TIP3     OH2      OT      -0.834000       15.9994           0
     24133 TIP3     3884     TIP3     H1       HT       0.417000       1.00800           0
     24134 TIP3     3884     TIP3     H2       HT       0.417000       1.00800           0
     24135 TIP3     3885     TIP3     OH2      OT      -0.834000       15.9994           0
     24136 TIP3     3885     TIP3     H1       HT       0.417000       1.00800           0
     24137 TIP3     3885     TIP3     H2       HT       0.417000       1.00800           0
     24138 TIP3     3886     TIP3     OH2      OT      -0.834000       15.9994           0
     24139 TIP3     3886     TIP3     H1       HT       0.417000       1.00800           0
     24140 TIP3     3886     TIP3     H2       HT       0.417000       1.00800           0
     24141 TIP3     3887     TIP3     OH2      OT      -0.834000       15.9994           0
     24142 TIP3     3887     TIP3     H1       HT       0.417000       1.00800           0
     24143 TIP3     3887     TIP3     H2       HT       0.417000       1.00800           0
     24144 TIP3     3888     TIP3     OH2      OT      -0.834000       15.9994           0
     24145 TIP3     3888     TIP3     H1       HT       0.417000       1.00800           0
     24146 TIP3     3888     TIP3     H2       HT       0.417000       1.00800           0
     24147 TIP3     3889     TIP3     OH2      OT      -0.834000       15.9994           0
     24148 TIP3     3889     TIP3     H1       HT       0.417000       1.00800           0
     24149 TIP3     3889     TIP3     H2       HT       0.417000       1.00800           0
     24150 TIP3     3890     TIP3     OH2      OT      -0.834000       15.9994           0
     24151 TIP3     3890     TIP3     H1       HT       0.417000       1.00800           0
     24152 TIP3     3890     TIP3     H2       HT       0.417000       1.00800           0
     24153 TIP3     3891     TIP3     OH2      OT      -0.834000       15.9994           0
     24154 TIP3     3891     TIP3     H1       HT       0.417000       1.00800           0
     24155 TIP3     3891     TIP3     H2       HT       0.417000       1.00800           0
     24156 TIP3     3892     TIP3     OH2      OT      -0.834000       15.9994           0
     24157 TIP3     3892     TIP3     H1       HT       0.417000       1.00800           0
     24158 TIP3     3892     TIP3     H2       HT       0.417000       1.00800           0
     24159 TIP3     3893     TIP3     OH2      OT      -0.834000       15.9994           0
     24160 TIP3     3893     TIP3     H1       HT       0.417000       1.00800           0
     24161 TIP3     3893     TIP3     H2       HT       0.417000       1.00800           0
     24162 TIP3     3894     TIP3     OH2      OT      -0.834000       15.9994           0
     24163 TIP3     3894     TIP3     H1       HT       0.417000       1.00800           0
     24164 TIP3     3894     TIP3     H2       HT       0.417000       1.00800           0
     24165 TIP3     3895     TIP3     OH2      OT      -0.834000       15.9994           0
     24166 TIP3     3895     TIP3     H1       HT       0.417000       1.00800           0
     24167 TIP3     3895     TIP3     H2       HT       0.417000       1.00800           0
     24168 TIP3     3896     TIP3     OH2      OT      -0.834000       15.9994           0
     24169 TIP3     3896     TIP3     H1       HT       0.417000       1.00800           0
     24170 TIP3     3896     TIP3     H2       HT       0.417000       1.00800           0
     24171 TIP3     3897     TIP3     OH2      OT      -0.834000       15.9994           0
     24172 TIP3     3897     TIP3     H1       HT       0.417000       1.00800           0
     24173 TIP3     3897     TIP3     H2       HT       0.417000       1.00800           0
     24174 TIP3     3898     TIP3     OH2      OT      -0.834000       15.9994           0
     24175 TIP3     3898     TIP3     H1       HT       0.417000       1.00800           0
     24176 TIP3     3898     TIP3     H2       HT       0.417000       1.00800           0
     24177 TIP3     3899     TIP3     OH2      OT      -0.834000       15.9994           0
     24178 TIP3     3899     TIP3     H1       HT       0.417000       1.00800           0
     24179 TIP3     3899     TIP3     H2       HT       0.417000       1.00800           0
     24180 TIP3     3900     TIP3     OH2      OT      -0.834000       15.9994           0
     24181 TIP3     3900     TIP3     H1       HT       0.417000       1.00800           0
     24182 TIP3     3900     TIP3     H2       HT       0.417000       1.00800           0
     24183 TIP3     3901     TIP3     OH2      OT      -0.834000       15.9994           0
     24184 TIP3     3901     TIP3     H1       HT       0.417000       1.00800           0
     24185 TIP3     3901     TIP3     H2       HT       0.417000       1.00800           0
     24186 TIP3     3902     TIP3     OH2      OT      -0.834000       15.9994           0
     24187 TIP3     3902     TIP3     H1       HT       0.417000       1.00800           0
     24188 TIP3     3902     TIP3     H2       HT       0.417000       1.00800           0
     24189 TIP3     3903     TIP3     OH2      OT      -0.834000       15.9994           0
     24190 TIP3     3903     TIP3     H1       HT       0.417000       1.00800           0
     24191 TIP3     3903     TIP3     H2       HT       0.417000       1.00800           0
     24192 TIP3     3904     TIP3     OH2      OT      -0.834000       15.9994           0
     24193 TIP3     3904     TIP3     H1       HT       0.417000       1.00800           0
     24194 TIP3     3904     TIP3     H2       HT       0.417000       1.00800           0
     24195 TIP3     3905     TIP3     OH2      OT      -0.834000       15.9994           0
     24196 TIP3     3905     TIP3     H1       HT       0.417000       1.00800           0
     24197 TIP3     3905     TIP3     H2       HT       0.417000       1.00800           0
     24198 TIP3     3906     TIP3     OH2      OT      -0.834000       15.9994           0
     24199 TIP3     3906     TIP3     H1       HT       0.417000       1.00800           0
     24200 TIP3     3906     TIP3     H2       HT       0.417000       1.00800           0
     24201 TIP3     3907     TIP3     OH2      OT      -0.834000       15.9994           0
     24202 TIP3     3907     TIP3     H1       HT       0.417000       1.00800           0
     24203 TIP3     3907     TIP3     H2       HT       0.417000       1.00800           0
     24204 TIP3     3908     TIP3     OH2      OT      -0.834000       15.9994           0
     24205 TIP3     3908     TIP3     H1       HT       0.417000       1.00800           0
     24206 TIP3     3908     TIP3     H2       HT       0.417000       1.00800           0
     24207 TIP3     3909     TIP3     OH2      OT      -0.834000       15.9994           0
     24208 TIP3     3909     TIP3     H1       HT       0.417000       1.00800           0
     24209 TIP3     3909     TIP3     H2       HT       0.417000       1.00800           0
     24210 TIP3     3910     TIP3     OH2      OT      -0.834000       15.9994           0
     24211 TIP3     3910     TIP3     H1       HT       0.417000       1.00800           0
     24212 TIP3     3910     TIP3     H2       HT       0.417000       1.00800           0
     24213 TIP3     3911     TIP3     OH2      OT      -0.834000       15.9994           0
     24214 TIP3     3911     TIP3     H1       HT       0.417000       1.00800           0
     24215 TIP3     3911     TIP3     H2       HT       0.417000       1.00800           0
     24216 TIP3     3912     TIP3     OH2      OT      -0.834000       15.9994           0
     24217 TIP3     3912     TIP3     H1       HT       0.417000       1.00800           0
     24218 TIP3     3912     TIP3     H2       HT       0.417000       1.00800           0
     24219 TIP3     3913     TIP3     OH2      OT      -0.834000       15.9994           0
     24220 TIP3     3913     TIP3     H1       HT       0.417000       1.00800           0
     24221 TIP3     3913     TIP3     H2       HT       0.417000       1.00800           0
     24222 TIP3     3914     TIP3     OH2      OT      -0.834000       15.9994           0
     24223 TIP3     3914     TIP3     H1       HT       0.417000       1.00800           0
     24224 TIP3     3914     TIP3     H2       HT       0.417000       1.00800           0
     24225 TIP3     3915     TIP3     OH2      OT      -0.834000       15.9994           0
     24226 TIP3     3915     TIP3     H1       HT       0.417000       1.00800           0
     24227 TIP3     3915     TIP3     H2       HT       0.417000       1.00800           0
     24228 TIP3     3916     TIP3     OH2      OT      -0.834000       15.9994           0
     24229 TIP3     3916     TIP3     H1       HT       0.417000       1.00800           0
     24230 TIP3     3916     TIP3     H2       HT       0.417000       1.00800           0
     24231 TIP3     3917     TIP3     OH2      OT      -0.834000       15.9994           0
     24232 TIP3     3917     TIP3     H1       HT       0.417000       1.00800           0
     24233 TIP3     3917     TIP3     H2       HT       0.417000       1.00800           0
     24234 TIP3     3918     TIP3     OH2      OT      -0.834000       15.9994           0
     24235 TIP3     3918     TIP3     H1       HT       0.417000       1.00800           0
     24236 TIP3     3918     TIP3     H2       HT       0.417000       1.00800           0
     24237 TIP3     3919     TIP3     OH2      OT      -0.834000       15.9994           0
     24238 TIP3     3919     TIP3     H1       HT       0.417000       1.00800           0
     24239 TIP3     3919     TIP3     H2       HT       0.417000       1.00800           0
     24240 TIP3     3920     TIP3     OH2      OT      -0.834000       15.9994           0
     24241 TIP3     3920     TIP3     H1       HT       0.417000       1.00800           0
     24242 TIP3     3920     TIP3     H2       HT       0.417000       1.00800           0
     24243 TIP3     3921     TIP3     OH2      OT      -0.834000       15.9994           0
     24244 TIP3     3921     TIP3     H1       HT       0.417000       1.00800           0
     24245 TIP3     3921     TIP3     H2       HT       0.417000       1.00800           0
     24246 TIP3     3922     TIP3     OH2      OT      -0.834000       15.9994           0
     24247 TIP3     3922     TIP3     H1       HT       0.417000       1.00800           0
     24248 TIP3     3922     TIP3     H2       HT       0.417000       1.00800           0
     24249 TIP3     3923     TIP3     OH2      OT      -0.834000       15.9994           0
     24250 TIP3     3923     TIP3     H1       HT       0.417000       1.00800           0
     24251 TIP3     3923     TIP3     H2       HT       0.417000       1.00800           0
     24252 TIP3     3924     TIP3     OH2      OT      -0.834000       15.9994           0
     24253 TIP3     3924     TIP3     H1       HT       0.417000       1.00800           0
     24254 TIP3     3924     TIP3     H2       HT       0.417000       1.00800           0
     24255 TIP3     3925     TIP3     OH2      OT      -0.834000       15.9994           0
     24256 TIP3     3925     TIP3     H1       HT       0.417000       1.00800           0
     24257 TIP3     3925     TIP3     H2       HT       0.417000       1.00800           0
     24258 TIP3     3926     TIP3     OH2      OT      -0.834000       15.9994           0
     24259 TIP3     3926     TIP3     H1       HT       0.417000       1.00800           0
     24260 TIP3     3926     TIP3     H2       HT       0.417000       1.00800           0
     24261 TIP3     3927     TIP3     OH2      OT      -0.834000       15.9994           0
     24262 TIP3     3927     TIP3     H1       HT       0.417000       1.00800           0
     24263 TIP3     3927     TIP3     H2       HT       0.417000       1.00800           0
     24264 TIP3     3928     TIP3     OH2      OT      -0.834000       15.9994           0
     24265 TIP3     3928     TIP3     H1       HT       0.417000       1.00800           0
     24266 TIP3     3928     TIP3     H2       HT       0.417000       1.00800           0
     24267 TIP3     3929     TIP3     OH2      OT      -0.834000       15.9994           0
     24268 TIP3     3929     TIP3     H1       HT       0.417000       1.00800           0
     24269 TIP3     3929     TIP3     H2       HT       0.417000       1.00800           0
     24270 TIP3     3930     TIP3     OH2      OT      -0.834000       15.9994           0
     24271 TIP3     3930     TIP3     H1       HT       0.417000       1.00800           0
     24272 TIP3     3930     TIP3     H2       HT       0.417000       1.00800           0
     24273 TIP3     3931     TIP3     OH2      OT      -0.834000       15.9994           0
     24274 TIP3     3931     TIP3     H1       HT       0.417000       1.00800           0
     24275 TIP3     3931     TIP3     H2       HT       0.417000       1.00800           0
     24276 TIP3     3932     TIP3     OH2      OT      -0.834000       15.9994           0
     24277 TIP3     3932     TIP3     H1       HT       0.417000       1.00800           0
     24278 TIP3     3932     TIP3     H2       HT       0.417000       1.00800           0
     24279 TIP3     3933     TIP3     OH2      OT      -0.834000       15.9994           0
     24280 TIP3     3933     TIP3     H1       HT       0.417000       1.00800           0
     24281 TIP3     3933     TIP3     H2       HT       0.417000       1.00800           0
     24282 TIP3     3934     TIP3     OH2      OT      -0.834000       15.9994           0
     24283 TIP3     3934     TIP3     H1       HT       0.417000       1.00800           0
     24284 TIP3     3934     TIP3     H2       HT       0.417000       1.00800           0
     24285 TIP3     3935     TIP3     OH2      OT      -0.834000       15.9994           0
     24286 TIP3     3935     TIP3     H1       HT       0.417000       1.00800           0
     24287 TIP3     3935     TIP3     H2       HT       0.417000       1.00800           0
     24288 TIP3     3936     TIP3     OH2      OT      -0.834000       15.9994           0
     24289 TIP3     3936     TIP3     H1       HT       0.417000       1.00800           0
     24290 TIP3     3936     TIP3     H2       HT       0.417000       1.00800           0
     24291 TIP3     3937     TIP3     OH2      OT      -0.834000       15.9994           0
     24292 TIP3     3937     TIP3     H1       HT       0.417000       1.00800           0
     24293 TIP3     3937     TIP3     H2       HT       0.417000       1.00800           0
     24294 TIP3     3938     TIP3     OH2      OT      -0.834000       15.9994           0
     24295 TIP3     3938     TIP3     H1       HT       0.417000       1.00800           0
     24296 TIP3     3938     TIP3     H2       HT       0.417000       1.00800           0
     24297 TIP3     3939     TIP3     OH2      OT      -0.834000       15.9994           0
     24298 TIP3     3939     TIP3     H1       HT       0.417000       1.00800           0
     24299 TIP3     3939     TIP3     H2       HT       0.417000       1.00800           0
     24300 TIP3     3940     TIP3     OH2      OT      -0.834000       15.9994           0
     24301 TIP3     3940     TIP3     H1       HT       0.417000       1.00800           0
     24302 TIP3     3940     TIP3     H2       HT       0.417000       1.00800           0
     24303 TIP3     3941     TIP3     OH2      OT      -0.834000       15.9994           0
     24304 TIP3     3941     TIP3     H1       HT       0.417000       1.00800           0
     24305 TIP3     3941     TIP3     H2       HT       0.417000       1.00800           0
     24306 TIP3     3942     TIP3     OH2      OT      -0.834000       15.9994           0
     24307 TIP3     3942     TIP3     H1       HT       0.417000       1.00800           0
     24308 TIP3     3942     TIP3     H2       HT       0.417000       1.00800           0
     24309 TIP3     3943     TIP3     OH2      OT      -0.834000       15.9994           0
     24310 TIP3     3943     TIP3     H1       HT       0.417000       1.00800           0
     24311 TIP3     3943     TIP3     H2       HT       0.417000       1.00800           0
     24312 TIP3     3944     TIP3     OH2      OT      -0.834000       15.9994           0
     24313 TIP3     3944     TIP3     H1       HT       0.417000       1.00800           0
     24314 TIP3     3944     TIP3     H2       HT       0.417000       1.00800           0
     24315 TIP3     3945     TIP3     OH2      OT      -0.834000       15.9994           0
     24316 TIP3     3945     TIP3     H1       HT       0.417000       1.00800           0
     24317 TIP3     3945     TIP3     H2       HT       0.417000       1.00800           0
     24318 TIP3     3946     TIP3     OH2      OT      -0.834000       15.9994           0
     24319 TIP3     3946     TIP3     H1       HT       0.417000       1.00800           0
     24320 TIP3     3946     TIP3     H2       HT       0.417000       1.00800           0
     24321 TIP3     3947     TIP3     OH2      OT      -0.834000       15.9994           0
     24322 TIP3     3947     TIP3     H1       HT       0.417000       1.00800           0
     24323 TIP3     3947     TIP3     H2       HT       0.417000       1.00800           0
     24324 TIP3     3948     TIP3     OH2      OT      -0.834000       15.9994           0
     24325 TIP3     3948     TIP3     H1       HT       0.417000       1.00800           0
     24326 TIP3     3948     TIP3     H2       HT       0.417000       1.00800           0
     24327 TIP3     3949     TIP3     OH2      OT      -0.834000       15.9994           0
     24328 TIP3     3949     TIP3     H1       HT       0.417000       1.00800           0
     24329 TIP3     3949     TIP3     H2       HT       0.417000       1.00800           0
     24330 TIP3     3950     TIP3     OH2      OT      -0.834000       15.9994           0
     24331 TIP3     3950     TIP3     H1       HT       0.417000       1.00800           0
     24332 TIP3     3950     TIP3     H2       HT       0.417000       1.00800           0
     24333 TIP3     3951     TIP3     OH2      OT      -0.834000       15.9994           0
     24334 TIP3     3951     TIP3     H1       HT       0.417000       1.00800           0
     24335 TIP3     3951     TIP3     H2       HT       0.417000       1.00800           0
     24336 TIP3     3952     TIP3     OH2      OT      -0.834000       15.9994           0
     24337 TIP3     3952     TIP3     H1       HT       0.417000       1.00800           0
     24338 TIP3     3952     TIP3     H2       HT       0.417000       1.00800           0
     24339 TIP3     3953     TIP3     OH2      OT      -0.834000       15.9994           0
     24340 TIP3     3953     TIP3     H1       HT       0.417000       1.00800           0
     24341 TIP3     3953     TIP3     H2       HT       0.417000       1.00800           0
     24342 TIP3     3954     TIP3     OH2      OT      -0.834000       15.9994           0
     24343 TIP3     3954     TIP3     H1       HT       0.417000       1.00800           0
     24344 TIP3     3954     TIP3     H2       HT       0.417000       1.00800           0
     24345 TIP3     3955     TIP3     OH2      OT      -0.834000       15.9994           0
     24346 TIP3     3955     TIP3     H1       HT       0.417000       1.00800           0
     24347 TIP3     3955     TIP3     H2       HT       0.417000       1.00800           0
     24348 TIP3     3956     TIP3     OH2      OT      -0.834000       15.9994           0
     24349 TIP3     3956     TIP3     H1       HT       0.417000       1.00800           0
     24350 TIP3     3956     TIP3     H2       HT       0.417000       1.00800           0
     24351 TIP3     3957     TIP3     OH2      OT      -0.834000       15.9994           0
     24352 TIP3     3957     TIP3     H1       HT       0.417000       1.00800           0
     24353 TIP3     3957     TIP3     H2       HT       0.417000       1.00800           0
     24354 TIP3     3958     TIP3     OH2      OT      -0.834000       15.9994           0
     24355 TIP3     3958     TIP3     H1       HT       0.417000       1.00800           0
     24356 TIP3     3958     TIP3     H2       HT       0.417000       1.00800           0
     24357 TIP3     3959     TIP3     OH2      OT      -0.834000       15.9994           0
     24358 TIP3     3959     TIP3     H1       HT       0.417000       1.00800           0
     24359 TIP3     3959     TIP3     H2       HT       0.417000       1.00800           0
     24360 TIP3     3960     TIP3     OH2      OT      -0.834000       15.9994           0
     24361 TIP3     3960     TIP3     H1       HT       0.417000       1.00800           0
     24362 TIP3     3960     TIP3     H2       HT       0.417000       1.00800           0
     24363 TIP3     3961     TIP3     OH2      OT      -0.834000       15.9994           0
     24364 TIP3     3961     TIP3     H1       HT       0.417000       1.00800           0
     24365 TIP3     3961     TIP3     H2       HT       0.417000       1.00800           0
     24366 TIP3     3962     TIP3     OH2      OT      -0.834000       15.9994           0
     24367 TIP3     3962     TIP3     H1       HT       0.417000       1.00800           0
     24368 TIP3     3962     TIP3     H2       HT       0.417000       1.00800           0
     24369 TIP3     3963     TIP3     OH2      OT      -0.834000       15.9994           0
     24370 TIP3     3963     TIP3     H1       HT       0.417000       1.00800           0
     24371 TIP3     3963     TIP3     H2       HT       0.417000       1.00800           0
     24372 TIP3     3964     TIP3     OH2      OT      -0.834000       15.9994           0
     24373 TIP3     3964     TIP3     H1       HT       0.417000       1.00800           0
     24374 TIP3     3964     TIP3     H2       HT       0.417000       1.00800           0
     24375 TIP3     3965     TIP3     OH2      OT      -0.834000       15.9994           0
     24376 TIP3     3965     TIP3     H1       HT       0.417000       1.00800           0
     24377 TIP3     3965     TIP3     H2       HT       0.417000       1.00800           0
     24378 TIP3     3966     TIP3     OH2      OT      -0.834000       15.9994           0
     24379 TIP3     3966     TIP3     H1       HT       0.417000       1.00800           0
     24380 TIP3     3966     TIP3     H2       HT       0.417000       1.00800           0
     24381 TIP3     3967     TIP3     OH2      OT      -0.834000       15.9994           0
     24382 TIP3     3967     TIP3     H1       HT       0.417000       1.00800           0
     24383 TIP3     3967     TIP3     H2       HT       0.417000       1.00800           0
     24384 TIP3     3968     TIP3     OH2      OT      -0.834000       15.9994           0
     24385 TIP3     3968     TIP3     H1       HT       0.417000       1.00800           0
     24386 TIP3     3968     TIP3     H2       HT       0.417000       1.00800           0
     24387 TIP3     3969     TIP3     OH2      OT      -0.834000       15.9994           0
     24388 TIP3     3969     TIP3     H1       HT       0.417000       1.00800           0
     24389 TIP3     3969     TIP3     H2       HT       0.417000       1.00800           0
     24390 TIP3     3970     TIP3     OH2      OT      -0.834000       15.9994           0
     24391 TIP3     3970     TIP3     H1       HT       0.417000       1.00800           0
     24392 TIP3     3970     TIP3     H2       HT       0.417000       1.00800           0
     24393 TIP3     3971     TIP3     OH2      OT      -0.834000       15.9994           0
     24394 TIP3     3971     TIP3     H1       HT       0.417000       1.00800           0
     24395 TIP3     3971     TIP3     H2       HT       0.417000       1.00800           0
     24396 TIP3     3972     TIP3     OH2      OT      -0.834000       15.9994           0
     24397 TIP3     3972     TIP3     H1       HT       0.417000       1.00800           0
     24398 TIP3     3972     TIP3     H2       HT       0.417000       1.00800           0
     24399 TIP3     3973     TIP3     OH2      OT      -0.834000       15.9994           0
     24400 TIP3     3973     TIP3     H1       HT       0.417000       1.00800           0
     24401 TIP3     3973     TIP3     H2       HT       0.417000       1.00800           0
     24402 TIP3     3974     TIP3     OH2      OT      -0.834000       15.9994           0
     24403 TIP3     3974     TIP3     H1       HT       0.417000       1.00800           0
     24404 TIP3     3974     TIP3     H2       HT       0.417000       1.00800           0
     24405 TIP3     3975     TIP3     OH2      OT      -0.834000       15.9994           0
     24406 TIP3     3975     TIP3     H1       HT       0.417000       1.00800           0
     24407 TIP3     3975     TIP3     H2       HT       0.417000       1.00800           0
     24408 TIP3     3976     TIP3     OH2      OT      -0.834000       15.9994           0
     24409 TIP3     3976     TIP3     H1       HT       0.417000       1.00800           0
     24410 TIP3     3976     TIP3     H2       HT       0.417000       1.00800           0
     24411 TIP3     3977     TIP3     OH2      OT      -0.834000       15.9994           0
     24412 TIP3     3977     TIP3     H1       HT       0.417000       1.00800           0
     24413 TIP3     3977     TIP3     H2       HT       0.417000       1.00800           0
     24414 TIP3     3978     TIP3     OH2      OT      -0.834000       15.9994           0
     24415 TIP3     3978     TIP3     H1       HT       0.417000       1.00800           0
     24416 TIP3     3978     TIP3     H2       HT       0.417000       1.00800           0
     24417 TIP3     3979     TIP3     OH2      OT      -0.834000       15.9994           0
     24418 TIP3     3979     TIP3     H1       HT       0.417000       1.00800           0
     24419 TIP3     3979     TIP3     H2       HT       0.417000       1.00800           0
     24420 TIP3     3980     TIP3     OH2      OT      -0.834000       15.9994           0
     24421 TIP3     3980     TIP3     H1       HT       0.417000       1.00800           0
     24422 TIP3     3980     TIP3     H2       HT       0.417000       1.00800           0
     24423 TIP3     3981     TIP3     OH2      OT      -0.834000       15.9994           0
     24424 TIP3     3981     TIP3     H1       HT       0.417000       1.00800           0
     24425 TIP3     3981     TIP3     H2       HT       0.417000       1.00800           0
     24426 TIP3     3982     TIP3     OH2      OT      -0.834000       15.9994           0
     24427 TIP3     3982     TIP3     H1       HT       0.417000       1.00800           0
     24428 TIP3     3982     TIP3     H2       HT       0.417000       1.00800           0
     24429 TIP3     3983     TIP3     OH2      OT      -0.834000       15.9994           0
     24430 TIP3     3983     TIP3     H1       HT       0.417000       1.00800           0
     24431 TIP3     3983     TIP3     H2       HT       0.417000       1.00800           0
     24432 TIP3     3984     TIP3     OH2      OT      -0.834000       15.9994           0
     24433 TIP3     3984     TIP3     H1       HT       0.417000       1.00800           0
     24434 TIP3     3984     TIP3     H2       HT       0.417000       1.00800           0
     24435 TIP3     3985     TIP3     OH2      OT      -0.834000       15.9994           0
     24436 TIP3     3985     TIP3     H1       HT       0.417000       1.00800           0
     24437 TIP3     3985     TIP3     H2       HT       0.417000       1.00800           0
     24438 TIP3     3986     TIP3     OH2      OT      -0.834000       15.9994           0
     24439 TIP3     3986     TIP3     H1       HT       0.417000       1.00800           0
     24440 TIP3     3986     TIP3     H2       HT       0.417000       1.00800           0
     24441 TIP3     3987     TIP3     OH2      OT      -0.834000       15.9994           0
     24442 TIP3     3987     TIP3     H1       HT       0.417000       1.00800           0
     24443 TIP3     3987     TIP3     H2       HT       0.417000       1.00800           0
     24444 TIP3     3988     TIP3     OH2      OT      -0.834000       15.9994           0
     24445 TIP3     3988     TIP3     H1       HT       0.417000       1.00800           0
     24446 TIP3     3988     TIP3     H2       HT       0.417000       1.00800           0
     24447 TIP3     3989     TIP3     OH2      OT      -0.834000       15.9994           0
     24448 TIP3     3989     TIP3     H1       HT       0.417000       1.00800           0
     24449 TIP3     3989     TIP3     H2       HT       0.417000       1.00800           0
     24450 TIP3     3990     TIP3     OH2      OT      -0.834000       15.9994           0
     24451 TIP3     3990     TIP3     H1       HT       0.417000       1.00800           0
     24452 TIP3     3990     TIP3     H2       HT       0.417000       1.00800           0
     24453 TIP3     3991     TIP3     OH2      OT      -0.834000       15.9994           0
     24454 TIP3     3991     TIP3     H1       HT       0.417000       1.00800           0
     24455 TIP3     3991     TIP3     H2       HT       0.417000       1.00800           0
     24456 TIP3     3992     TIP3     OH2      OT      -0.834000       15.9994           0
     24457 TIP3     3992     TIP3     H1       HT       0.417000       1.00800           0
     24458 TIP3     3992     TIP3     H2       HT       0.417000       1.00800           0
     24459 TIP3     3993     TIP3     OH2      OT      -0.834000       15.9994           0
     24460 TIP3     3993     TIP3     H1       HT       0.417000       1.00800           0
     24461 TIP3     3993     TIP3     H2       HT       0.417000       1.00800           0
     24462 TIP3     3994     TIP3     OH2      OT      -0.834000       15.9994           0
     24463 TIP3     3994     TIP3     H1       HT       0.417000       1.00800           0
     24464 TIP3     3994     TIP3     H2       HT       0.417000       1.00800           0
     24465 TIP3     3995     TIP3     OH2      OT      -0.834000       15.9994           0
     24466 TIP3     3995     TIP3     H1       HT       0.417000       1.00800           0
     24467 TIP3     3995     TIP3     H2       HT       0.417000       1.00800           0
     24468 TIP3     3996     TIP3     OH2      OT      -0.834000       15.9994           0
     24469 TIP3     3996     TIP3     H1       HT       0.417000       1.00800           0
     24470 TIP3     3996     TIP3     H2       HT       0.417000       1.00800           0
     24471 TIP3     3997     TIP3     OH2      OT      -0.834000       15.9994           0
     24472 TIP3     3997     TIP3     H1       HT       0.417000       1.00800           0
     24473 TIP3     3997     TIP3     H2       HT       0.417000       1.00800           0
     24474 TIP3     3998     TIP3     OH2      OT      -0.834000       15.9994           0
     24475 TIP3     3998     TIP3     H1       HT       0.417000       1.00800           0
     24476 TIP3     3998     TIP3     H2       HT       0.417000       1.00800           0
     24477 TIP3     3999     TIP3     OH2      OT      -0.834000       15.9994           0
     24478 TIP3     3999     TIP3     H1       HT       0.417000       1.00800           0
     24479 TIP3     3999     TIP3     H2       HT       0.417000       1.00800           0
     24480 TIP3     4000     TIP3     OH2      OT      -0.834000       15.9994           0
     24481 TIP3     4000     TIP3     H1       HT       0.417000       1.00800           0
     24482 TIP3     4000     TIP3     H2       HT       0.417000       1.00800           0
     24483 TIP3     4001     TIP3     OH2      OT      -0.834000       15.9994           0
     24484 TIP3     4001     TIP3     H1       HT       0.417000       1.00800           0
     24485 TIP3     4001     TIP3     H2       HT       0.417000       1.00800           0
     24486 TIP3     4002     TIP3     OH2      OT      -0.834000       15.9994           0
     24487 TIP3     4002     TIP3     H1       HT       0.417000       1.00800           0
     24488 TIP3     4002     TIP3     H2       HT       0.417000       1.00800           0
     24489 TIP3     4003     TIP3     OH2      OT      -0.834000       15.9994           0
     24490 TIP3     4003     TIP3     H1       HT       0.417000       1.00800           0
     24491 TIP3     4003     TIP3     H2       HT       0.417000       1.00800           0
     24492 TIP3     4004     TIP3     OH2      OT      -0.834000       15.9994           0
     24493 TIP3     4004     TIP3     H1       HT       0.417000       1.00800           0
     24494 TIP3     4004     TIP3     H2       HT       0.417000       1.00800           0
     24495 TIP3     4005     TIP3     OH2      OT      -0.834000       15.9994           0
     24496 TIP3     4005     TIP3     H1       HT       0.417000       1.00800           0
     24497 TIP3     4005     TIP3     H2       HT       0.417000       1.00800           0
     24498 TIP3     4006     TIP3     OH2      OT      -0.834000       15.9994           0
     24499 TIP3     4006     TIP3     H1       HT       0.417000       1.00800           0
     24500 TIP3     4006     TIP3     H2       HT       0.417000       1.00800           0
     24501 TIP3     4007     TIP3     OH2      OT      -0.834000       15.9994           0
     24502 TIP3     4007     TIP3     H1       HT       0.417000       1.00800           0
     24503 TIP3     4007     TIP3     H2       HT       0.417000       1.00800           0
     24504 TIP3     4008     TIP3     OH2      OT      -0.834000       15.9994           0
     24505 TIP3     4008     TIP3     H1       HT       0.417000       1.00800           0
     24506 TIP3     4008     TIP3     H2       HT       0.417000       1.00800           0
     24507 TIP3     4009     TIP3     OH2      OT      -0.834000       15.9994           0
     24508 TIP3     4009     TIP3     H1       HT       0.417000       1.00800           0
     24509 TIP3     4009     TIP3     H2       HT       0.417000       1.00800           0
     24510 TIP3     4010     TIP3     OH2      OT      -0.834000       15.9994           0
     24511 TIP3     4010     TIP3     H1       HT       0.417000       1.00800           0
     24512 TIP3     4010     TIP3     H2       HT       0.417000       1.00800           0
     24513 TIP3     4011     TIP3     OH2      OT      -0.834000       15.9994           0
     24514 TIP3     4011     TIP3     H1       HT       0.417000       1.00800           0
     24515 TIP3     4011     TIP3     H2       HT       0.417000       1.00800           0
     24516 TIP3     4012     TIP3     OH2      OT      -0.834000       15.9994           0
     24517 TIP3     4012     TIP3     H1       HT       0.417000       1.00800           0
     24518 TIP3     4012     TIP3     H2       HT       0.417000       1.00800           0
     24519 TIP3     4013     TIP3     OH2      OT      -0.834000       15.9994           0
     24520 TIP3     4013     TIP3     H1       HT       0.417000       1.00800           0
     24521 TIP3     4013     TIP3     H2       HT       0.417000       1.00800           0
     24522 TIP3     4014     TIP3     OH2      OT      -0.834000       15.9994           0
     24523 TIP3     4014     TIP3     H1       HT       0.417000       1.00800           0
     24524 TIP3     4014     TIP3     H2       HT       0.417000       1.00800           0
     24525 TIP3     4015     TIP3     OH2      OT      -0.834000       15.9994           0
     24526 TIP3     4015     TIP3     H1       HT       0.417000       1.00800           0
     24527 TIP3     4015     TIP3     H2       HT       0.417000       1.00800           0
     24528 TIP3     4016     TIP3     OH2      OT      -0.834000       15.9994           0
     24529 TIP3     4016     TIP3     H1       HT       0.417000       1.00800           0
     24530 TIP3     4016     TIP3     H2       HT       0.417000       1.00800           0
     24531 TIP3     4017     TIP3     OH2      OT      -0.834000       15.9994           0
     24532 TIP3     4017     TIP3     H1       HT       0.417000       1.00800           0
     24533 TIP3     4017     TIP3     H2       HT       0.417000       1.00800           0
     24534 TIP3     4018     TIP3     OH2      OT      -0.834000       15.9994           0
     24535 TIP3     4018     TIP3     H1       HT       0.417000       1.00800           0
     24536 TIP3     4018     TIP3     H2       HT       0.417000       1.00800           0
     24537 TIP3     4019     TIP3     OH2      OT      -0.834000       15.9994           0
     24538 TIP3     4019     TIP3     H1       HT       0.417000       1.00800           0
     24539 TIP3     4019     TIP3     H2       HT       0.417000       1.00800           0
     24540 TIP3     4020     TIP3     OH2      OT      -0.834000       15.9994           0
     24541 TIP3     4020     TIP3     H1       HT       0.417000       1.00800           0
     24542 TIP3     4020     TIP3     H2       HT       0.417000       1.00800           0
     24543 TIP3     4021     TIP3     OH2      OT      -0.834000       15.9994           0
     24544 TIP3     4021     TIP3     H1       HT       0.417000       1.00800           0
     24545 TIP3     4021     TIP3     H2       HT       0.417000       1.00800           0
     24546 TIP3     4022     TIP3     OH2      OT      -0.834000       15.9994           0
     24547 TIP3     4022     TIP3     H1       HT       0.417000       1.00800           0
     24548 TIP3     4022     TIP3     H2       HT       0.417000       1.00800           0
     24549 TIP3     4023     TIP3     OH2      OT      -0.834000       15.9994           0
     24550 TIP3     4023     TIP3     H1       HT       0.417000       1.00800           0
     24551 TIP3     4023     TIP3     H2       HT       0.417000       1.00800           0
     24552 TIP3     4024     TIP3     OH2      OT      -0.834000       15.9994           0
     24553 TIP3     4024     TIP3     H1       HT       0.417000       1.00800           0
     24554 TIP3     4024     TIP3     H2       HT       0.417000       1.00800           0
     24555 TIP3     4025     TIP3     OH2      OT      -0.834000       15.9994           0
     24556 TIP3     4025     TIP3     H1       HT       0.417000       1.00800           0
     24557 TIP3     4025     TIP3     H2       HT       0.417000       1.00800           0
     24558 TIP3     4026     TIP3     OH2      OT      -0.834000       15.9994           0
     24559 TIP3     4026     TIP3     H1       HT       0.417000       1.00800           0
     24560 TIP3     4026     TIP3     H2       HT       0.417000       1.00800           0
     24561 TIP3     4027     TIP3     OH2      OT      -0.834000       15.9994           0
     24562 TIP3     4027     TIP3     H1       HT       0.417000       1.00800           0
     24563 TIP3     4027     TIP3     H2       HT       0.417000       1.00800           0
     24564 TIP3     4028     TIP3     OH2      OT      -0.834000       15.9994           0
     24565 TIP3     4028     TIP3     H1       HT       0.417000       1.00800           0
     24566 TIP3     4028     TIP3     H2       HT       0.417000       1.00800           0
     24567 TIP3     4029     TIP3     OH2      OT      -0.834000       15.9994           0
     24568 TIP3     4029     TIP3     H1       HT       0.417000       1.00800           0
     24569 TIP3     4029     TIP3     H2       HT       0.417000       1.00800           0
     24570 TIP3     4030     TIP3     OH2      OT      -0.834000       15.9994           0
     24571 TIP3     4030     TIP3     H1       HT       0.417000       1.00800           0
     24572 TIP3     4030     TIP3     H2       HT       0.417000       1.00800           0
     24573 TIP3     4031     TIP3     OH2      OT      -0.834000       15.9994           0
     24574 TIP3     4031     TIP3     H1       HT       0.417000       1.00800           0
     24575 TIP3     4031     TIP3     H2       HT       0.417000       1.00800           0
     24576 TIP3     4032     TIP3     OH2      OT      -0.834000       15.9994           0
     24577 TIP3     4032     TIP3     H1       HT       0.417000       1.00800           0
     24578 TIP3     4032     TIP3     H2       HT       0.417000       1.00800           0
     24579 TIP3     4033     TIP3     OH2      OT      -0.834000       15.9994           0
     24580 TIP3     4033     TIP3     H1       HT       0.417000       1.00800           0
     24581 TIP3     4033     TIP3     H2       HT       0.417000       1.00800           0
     24582 TIP3     4034     TIP3     OH2      OT      -0.834000       15.9994           0
     24583 TIP3     4034     TIP3     H1       HT       0.417000       1.00800           0
     24584 TIP3     4034     TIP3     H2       HT       0.417000       1.00800           0
     24585 TIP3     4035     TIP3     OH2      OT      -0.834000       15.9994           0
     24586 TIP3     4035     TIP3     H1       HT       0.417000       1.00800           0
     24587 TIP3     4035     TIP3     H2       HT       0.417000       1.00800           0
     24588 TIP3     4036     TIP3     OH2      OT      -0.834000       15.9994           0
     24589 TIP3     4036     TIP3     H1       HT       0.417000       1.00800           0
     24590 TIP3     4036     TIP3     H2       HT       0.417000       1.00800           0
     24591 TIP3     4037     TIP3     OH2      OT      -0.834000       15.9994           0
     24592 TIP3     4037     TIP3     H1       HT       0.417000       1.00800           0
     24593 TIP3     4037     TIP3     H2       HT       0.417000       1.00800           0
     24594 TIP3     4038     TIP3     OH2      OT      -0.834000       15.9994           0
     24595 TIP3     4038     TIP3     H1       HT       0.417000       1.00800           0
     24596 TIP3     4038     TIP3     H2       HT       0.417000       1.00800           0
     24597 TIP3     4039     TIP3     OH2      OT      -0.834000       15.9994           0
     24598 TIP3     4039     TIP3     H1       HT       0.417000       1.00800           0
     24599 TIP3     4039     TIP3     H2       HT       0.417000       1.00800           0
     24600 TIP3     4040     TIP3     OH2      OT      -0.834000       15.9994           0
     24601 TIP3     4040     TIP3     H1       HT       0.417000       1.00800           0
     24602 TIP3     4040     TIP3     H2       HT       0.417000       1.00800           0
     24603 TIP3     4041     TIP3     OH2      OT      -0.834000       15.9994           0
     24604 TIP3     4041     TIP3     H1       HT       0.417000       1.00800           0
     24605 TIP3     4041     TIP3     H2       HT       0.417000       1.00800           0
     24606 TIP3     4042     TIP3     OH2      OT      -0.834000       15.9994           0
     24607 TIP3     4042     TIP3     H1       HT       0.417000       1.00800           0
     24608 TIP3     4042     TIP3     H2       HT       0.417000       1.00800           0
     24609 TIP3     4043     TIP3     OH2      OT      -0.834000       15.9994           0
     24610 TIP3     4043     TIP3     H1       HT       0.417000       1.00800           0
     24611 TIP3     4043     TIP3     H2       HT       0.417000       1.00800           0
     24612 TIP3     4044     TIP3     OH2      OT      -0.834000       15.9994           0
     24613 TIP3     4044     TIP3     H1       HT       0.417000       1.00800           0
     24614 TIP3     4044     TIP3     H2       HT       0.417000       1.00800           0
     24615 TIP3     4045     TIP3     OH2      OT      -0.834000       15.9994           0
     24616 TIP3     4045     TIP3     H1       HT       0.417000       1.00800           0
     24617 TIP3     4045     TIP3     H2       HT       0.417000       1.00800           0
     24618 TIP3     4046     TIP3     OH2      OT      -0.834000       15.9994           0
     24619 TIP3     4046     TIP3     H1       HT       0.417000       1.00800           0
     24620 TIP3     4046     TIP3     H2       HT       0.417000       1.00800           0
     24621 TIP3     4047     TIP3     OH2      OT      -0.834000       15.9994           0
     24622 TIP3     4047     TIP3     H1       HT       0.417000       1.00800           0
     24623 TIP3     4047     TIP3     H2       HT       0.417000       1.00800           0
     24624 TIP3     4048     TIP3     OH2      OT      -0.834000       15.9994           0
     24625 TIP3     4048     TIP3     H1       HT       0.417000       1.00800           0
     24626 TIP3     4048     TIP3     H2       HT       0.417000       1.00800           0
     24627 TIP3     4049     TIP3     OH2      OT      -0.834000       15.9994           0
     24628 TIP3     4049     TIP3     H1       HT       0.417000       1.00800           0
     24629 TIP3     4049     TIP3     H2       HT       0.417000       1.00800           0
     24630 TIP3     4050     TIP3     OH2      OT      -0.834000       15.9994           0
     24631 TIP3     4050     TIP3     H1       HT       0.417000       1.00800           0
     24632 TIP3     4050     TIP3     H2       HT       0.417000       1.00800           0
     24633 TIP3     4051     TIP3     OH2      OT      -0.834000       15.9994           0
     24634 TIP3     4051     TIP3     H1       HT       0.417000       1.00800           0
     24635 TIP3     4051     TIP3     H2       HT       0.417000       1.00800           0
     24636 TIP3     4052     TIP3     OH2      OT      -0.834000       15.9994           0
     24637 TIP3     4052     TIP3     H1       HT       0.417000       1.00800           0
     24638 TIP3     4052     TIP3     H2       HT       0.417000       1.00800           0
     24639 TIP3     4053     TIP3     OH2      OT      -0.834000       15.9994           0
     24640 TIP3     4053     TIP3     H1       HT       0.417000       1.00800           0
     24641 TIP3     4053     TIP3     H2       HT       0.417000       1.00800           0
     24642 TIP3     4054     TIP3     OH2      OT      -0.834000       15.9994           0
     24643 TIP3     4054     TIP3     H1       HT       0.417000       1.00800           0
     24644 TIP3     4054     TIP3     H2       HT       0.417000       1.00800           0
     24645 TIP3     4055     TIP3     OH2      OT      -0.834000       15.9994           0
     24646 TIP3     4055     TIP3     H1       HT       0.417000       1.00800           0
     24647 TIP3     4055     TIP3     H2       HT       0.417000       1.00800           0
     24648 TIP3     4056     TIP3     OH2      OT      -0.834000       15.9994           0
     24649 TIP3     4056     TIP3     H1       HT       0.417000       1.00800           0
     24650 TIP3     4056     TIP3     H2       HT       0.417000       1.00800           0
     24651 TIP3     4057     TIP3     OH2      OT      -0.834000       15.9994           0
     24652 TIP3     4057     TIP3     H1       HT       0.417000       1.00800           0
     24653 TIP3     4057     TIP3     H2       HT       0.417000       1.00800           0
     24654 TIP3     4058     TIP3     OH2      OT      -0.834000       15.9994           0
     24655 TIP3     4058     TIP3     H1       HT       0.417000       1.00800           0
     24656 TIP3     4058     TIP3     H2       HT       0.417000       1.00800           0
     24657 TIP3     4059     TIP3     OH2      OT      -0.834000       15.9994           0
     24658 TIP3     4059     TIP3     H1       HT       0.417000       1.00800           0
     24659 TIP3     4059     TIP3     H2       HT       0.417000       1.00800           0
     24660 TIP3     4060     TIP3     OH2      OT      -0.834000       15.9994           0
     24661 TIP3     4060     TIP3     H1       HT       0.417000       1.00800           0
     24662 TIP3     4060     TIP3     H2       HT       0.417000       1.00800           0
     24663 TIP3     4061     TIP3     OH2      OT      -0.834000       15.9994           0
     24664 TIP3     4061     TIP3     H1       HT       0.417000       1.00800           0
     24665 TIP3     4061     TIP3     H2       HT       0.417000       1.00800           0
     24666 TIP3     4062     TIP3     OH2      OT      -0.834000       15.9994           0
     24667 TIP3     4062     TIP3     H1       HT       0.417000       1.00800           0
     24668 TIP3     4062     TIP3     H2       HT       0.417000       1.00800           0
     24669 TIP3     4063     TIP3     OH2      OT      -0.834000       15.9994           0
     24670 TIP3     4063     TIP3     H1       HT       0.417000       1.00800           0
     24671 TIP3     4063     TIP3     H2       HT       0.417000       1.00800           0
     24672 TIP3     4064     TIP3     OH2      OT      -0.834000       15.9994           0
     24673 TIP3     4064     TIP3     H1       HT       0.417000       1.00800           0
     24674 TIP3     4064     TIP3     H2       HT       0.417000       1.00800           0
     24675 TIP3     4065     TIP3     OH2      OT      -0.834000       15.9994           0
     24676 TIP3     4065     TIP3     H1       HT       0.417000       1.00800           0
     24677 TIP3     4065     TIP3     H2       HT       0.417000       1.00800           0
     24678 TIP3     4066     TIP3     OH2      OT      -0.834000       15.9994           0
     24679 TIP3     4066     TIP3     H1       HT       0.417000       1.00800           0
     24680 TIP3     4066     TIP3     H2       HT       0.417000       1.00800           0
     24681 TIP3     4067     TIP3     OH2      OT      -0.834000       15.9994           0
     24682 TIP3     4067     TIP3     H1       HT       0.417000       1.00800           0
     24683 TIP3     4067     TIP3     H2       HT       0.417000       1.00800           0
     24684 TIP3     4068     TIP3     OH2      OT      -0.834000       15.9994           0
     24685 TIP3     4068     TIP3     H1       HT       0.417000       1.00800           0
     24686 TIP3     4068     TIP3     H2       HT       0.417000       1.00800           0
     24687 TIP3     4069     TIP3     OH2      OT      -0.834000       15.9994           0
     24688 TIP3     4069     TIP3     H1       HT       0.417000       1.00800           0
     24689 TIP3     4069     TIP3     H2       HT       0.417000       1.00800           0
     24690 TIP3     4070     TIP3     OH2      OT      -0.834000       15.9994           0
     24691 TIP3     4070     TIP3     H1       HT       0.417000       1.00800           0
     24692 TIP3     4070     TIP3     H2       HT       0.417000       1.00800           0
     24693 TIP3     4071     TIP3     OH2      OT      -0.834000       15.9994           0
     24694 TIP3     4071     TIP3     H1       HT       0.417000       1.00800           0
     24695 TIP3     4071     TIP3     H2       HT       0.417000       1.00800           0
     24696 TIP3     4072     TIP3     OH2      OT      -0.834000       15.9994           0
     24697 TIP3     4072     TIP3     H1       HT       0.417000       1.00800           0
     24698 TIP3     4072     TIP3     H2       HT       0.417000       1.00800           0
     24699 TIP3     4073     TIP3     OH2      OT      -0.834000       15.9994           0
     24700 TIP3     4073     TIP3     H1       HT       0.417000       1.00800           0
     24701 TIP3     4073     TIP3     H2       HT       0.417000       1.00800           0
     24702 TIP3     4074     TIP3     OH2      OT      -0.834000       15.9994           0
     24703 TIP3     4074     TIP3     H1       HT       0.417000       1.00800           0
     24704 TIP3     4074     TIP3     H2       HT       0.417000       1.00800           0
     24705 TIP3     4075     TIP3     OH2      OT      -0.834000       15.9994           0
     24706 TIP3     4075     TIP3     H1       HT       0.417000       1.00800           0
     24707 TIP3     4075     TIP3     H2       HT       0.417000       1.00800           0
     24708 TIP3     4076     TIP3     OH2      OT      -0.834000       15.9994           0
     24709 TIP3     4076     TIP3     H1       HT       0.417000       1.00800           0
     24710 TIP3     4076     TIP3     H2       HT       0.417000       1.00800           0
     24711 TIP3     4077     TIP3     OH2      OT      -0.834000       15.9994           0
     24712 TIP3     4077     TIP3     H1       HT       0.417000       1.00800           0
     24713 TIP3     4077     TIP3     H2       HT       0.417000       1.00800           0
     24714 TIP3     4078     TIP3     OH2      OT      -0.834000       15.9994           0
     24715 TIP3     4078     TIP3     H1       HT       0.417000       1.00800           0
     24716 TIP3     4078     TIP3     H2       HT       0.417000       1.00800           0
     24717 TIP3     4079     TIP3     OH2      OT      -0.834000       15.9994           0
     24718 TIP3     4079     TIP3     H1       HT       0.417000       1.00800           0
     24719 TIP3     4079     TIP3     H2       HT       0.417000       1.00800           0
     24720 TIP3     4080     TIP3     OH2      OT      -0.834000       15.9994           0
     24721 TIP3     4080     TIP3     H1       HT       0.417000       1.00800           0
     24722 TIP3     4080     TIP3     H2       HT       0.417000       1.00800           0
     24723 TIP3     4081     TIP3     OH2      OT      -0.834000       15.9994           0
     24724 TIP3     4081     TIP3     H1       HT       0.417000       1.00800           0
     24725 TIP3     4081     TIP3     H2       HT       0.417000       1.00800           0
     24726 TIP3     4082     TIP3     OH2      OT      -0.834000       15.9994           0
     24727 TIP3     4082     TIP3     H1       HT       0.417000       1.00800           0
     24728 TIP3     4082     TIP3     H2       HT       0.417000       1.00800           0
     24729 TIP3     4083     TIP3     OH2      OT      -0.834000       15.9994           0
     24730 TIP3     4083     TIP3     H1       HT       0.417000       1.00800           0
     24731 TIP3     4083     TIP3     H2       HT       0.417000       1.00800           0
     24732 TIP3     4084     TIP3     OH2      OT      -0.834000       15.9994           0
     24733 TIP3     4084     TIP3     H1       HT       0.417000       1.00800           0
     24734 TIP3     4084     TIP3     H2       HT       0.417000       1.00800           0
     24735 TIP3     4085     TIP3     OH2      OT      -0.834000       15.9994           0
     24736 TIP3     4085     TIP3     H1       HT       0.417000       1.00800           0
     24737 TIP3     4085     TIP3     H2       HT       0.417000       1.00800           0
     24738 TIP3     4086     TIP3     OH2      OT      -0.834000       15.9994           0
     24739 TIP3     4086     TIP3     H1       HT       0.417000       1.00800           0
     24740 TIP3     4086     TIP3     H2       HT       0.417000       1.00800           0
     24741 TIP3     4087     TIP3     OH2      OT      -0.834000       15.9994           0
     24742 TIP3     4087     TIP3     H1       HT       0.417000       1.00800           0
     24743 TIP3     4087     TIP3     H2       HT       0.417000       1.00800           0
     24744 TIP3     4088     TIP3     OH2      OT      -0.834000       15.9994           0
     24745 TIP3     4088     TIP3     H1       HT       0.417000       1.00800           0
     24746 TIP3     4088     TIP3     H2       HT       0.417000       1.00800           0
     24747 TIP3     4089     TIP3     OH2      OT      -0.834000       15.9994           0
     24748 TIP3     4089     TIP3     H1       HT       0.417000       1.00800           0
     24749 TIP3     4089     TIP3     H2       HT       0.417000       1.00800           0
     24750 TIP3     4090     TIP3     OH2      OT      -0.834000       15.9994           0
     24751 TIP3     4090     TIP3     H1       HT       0.417000       1.00800           0
     24752 TIP3     4090     TIP3     H2       HT       0.417000       1.00800           0
     24753 TIP3     4091     TIP3     OH2      OT      -0.834000       15.9994           0
     24754 TIP3     4091     TIP3     H1       HT       0.417000       1.00800           0
     24755 TIP3     4091     TIP3     H2       HT       0.417000       1.00800           0
     24756 TIP3     4092     TIP3     OH2      OT      -0.834000       15.9994           0
     24757 TIP3     4092     TIP3     H1       HT       0.417000       1.00800           0
     24758 TIP3     4092     TIP3     H2       HT       0.417000       1.00800           0
     24759 TIP3     4093     TIP3     OH2      OT      -0.834000       15.9994           0
     24760 TIP3     4093     TIP3     H1       HT       0.417000       1.00800           0
     24761 TIP3     4093     TIP3     H2       HT       0.417000       1.00800           0
     24762 TIP3     4094     TIP3     OH2      OT      -0.834000       15.9994           0
     24763 TIP3     4094     TIP3     H1       HT       0.417000       1.00800           0
     24764 TIP3     4094     TIP3     H2       HT       0.417000       1.00800           0
     24765 TIP3     4095     TIP3     OH2      OT      -0.834000       15.9994           0
     24766 TIP3     4095     TIP3     H1       HT       0.417000       1.00800           0
     24767 TIP3     4095     TIP3     H2       HT       0.417000       1.00800           0
     24768 TIP3     4096     TIP3     OH2      OT      -0.834000       15.9994           0
     24769 TIP3     4096     TIP3     H1       HT       0.417000       1.00800           0
     24770 TIP3     4096     TIP3     H2       HT       0.417000       1.00800           0
     24771 TIP3     4097     TIP3     OH2      OT      -0.834000       15.9994           0
     24772 TIP3     4097     TIP3     H1       HT       0.417000       1.00800           0
     24773 TIP3     4097     TIP3     H2       HT       0.417000       1.00800           0
     24774 TIP3     4098     TIP3     OH2      OT      -0.834000       15.9994           0
     24775 TIP3     4098     TIP3     H1       HT       0.417000       1.00800           0
     24776 TIP3     4098     TIP3     H2       HT       0.417000       1.00800           0
     24777 TIP3     4099     TIP3     OH2      OT      -0.834000       15.9994           0
     24778 TIP3     4099     TIP3     H1       HT       0.417000       1.00800           0
     24779 TIP3     4099     TIP3     H2       HT       0.417000       1.00800           0
     24780 TIP3     4100     TIP3     OH2      OT      -0.834000       15.9994           0
     24781 TIP3     4100     TIP3     H1       HT       0.417000       1.00800           0
     24782 TIP3     4100     TIP3     H2       HT       0.417000       1.00800           0
     24783 TIP3     4101     TIP3     OH2      OT      -0.834000       15.9994           0
     24784 TIP3     4101     TIP3     H1       HT       0.417000       1.00800           0
     24785 TIP3     4101     TIP3     H2       HT       0.417000       1.00800           0
     24786 TIP3     4102     TIP3     OH2      OT      -0.834000       15.9994           0
     24787 TIP3     4102     TIP3     H1       HT       0.417000       1.00800           0
     24788 TIP3     4102     TIP3     H2       HT       0.417000       1.00800           0
     24789 TIP3     4103     TIP3     OH2      OT      -0.834000       15.9994           0
     24790 TIP3     4103     TIP3     H1       HT       0.417000       1.00800           0
     24791 TIP3     4103     TIP3     H2       HT       0.417000       1.00800           0
     24792 TIP3     4104     TIP3     OH2      OT      -0.834000       15.9994           0
     24793 TIP3     4104     TIP3     H1       HT       0.417000       1.00800           0
     24794 TIP3     4104     TIP3     H2       HT       0.417000       1.00800           0
     24795 TIP3     4105     TIP3     OH2      OT      -0.834000       15.9994           0
     24796 TIP3     4105     TIP3     H1       HT       0.417000       1.00800           0
     24797 TIP3     4105     TIP3     H2       HT       0.417000       1.00800           0
     24798 TIP3     4106     TIP3     OH2      OT      -0.834000       15.9994           0
     24799 TIP3     4106     TIP3     H1       HT       0.417000       1.00800           0
     24800 TIP3     4106     TIP3     H2       HT       0.417000       1.00800           0
     24801 TIP3     4107     TIP3     OH2      OT      -0.834000       15.9994           0
     24802 TIP3     4107     TIP3     H1       HT       0.417000       1.00800           0
     24803 TIP3     4107     TIP3     H2       HT       0.417000       1.00800           0
     24804 TIP3     4108     TIP3     OH2      OT      -0.834000       15.9994           0
     24805 TIP3     4108     TIP3     H1       HT       0.417000       1.00800           0
     24806 TIP3     4108     TIP3     H2       HT       0.417000       1.00800           0
     24807 TIP3     4109     TIP3     OH2      OT      -0.834000       15.9994           0
     24808 TIP3     4109     TIP3     H1       HT       0.417000       1.00800           0
     24809 TIP3     4109     TIP3     H2       HT       0.417000       1.00800           0
     24810 TIP3     4110     TIP3     OH2      OT      -0.834000       15.9994           0
     24811 TIP3     4110     TIP3     H1       HT       0.417000       1.00800           0
     24812 TIP3     4110     TIP3     H2       HT       0.417000       1.00800           0
     24813 TIP3     4111     TIP3     OH2      OT      -0.834000       15.9994           0
     24814 TIP3     4111     TIP3     H1       HT       0.417000       1.00800           0
     24815 TIP3     4111     TIP3     H2       HT       0.417000       1.00800           0
     24816 TIP3     4112     TIP3     OH2      OT      -0.834000       15.9994           0
     24817 TIP3     4112     TIP3     H1       HT       0.417000       1.00800           0
     24818 TIP3     4112     TIP3     H2       HT       0.417000       1.00800           0
     24819 TIP3     4113     TIP3     OH2      OT      -0.834000       15.9994           0
     24820 TIP3     4113     TIP3     H1       HT       0.417000       1.00800           0
     24821 TIP3     4113     TIP3     H2       HT       0.417000       1.00800           0
     24822 TIP3     4114     TIP3     OH2      OT      -0.834000       15.9994           0
     24823 TIP3     4114     TIP3     H1       HT       0.417000       1.00800           0
     24824 TIP3     4114     TIP3     H2       HT       0.417000       1.00800           0
     24825 TIP3     4115     TIP3     OH2      OT      -0.834000       15.9994           0
     24826 TIP3     4115     TIP3     H1       HT       0.417000       1.00800           0
     24827 TIP3     4115     TIP3     H2       HT       0.417000       1.00800           0
     24828 TIP3     4116     TIP3     OH2      OT      -0.834000       15.9994           0
     24829 TIP3     4116     TIP3     H1       HT       0.417000       1.00800           0
     24830 TIP3     4116     TIP3     H2       HT       0.417000       1.00800           0
     24831 TIP3     4117     TIP3     OH2      OT      -0.834000       15.9994           0
     24832 TIP3     4117     TIP3     H1       HT       0.417000       1.00800           0
     24833 TIP3     4117     TIP3     H2       HT       0.417000       1.00800           0
     24834 TIP3     4118     TIP3     OH2      OT      -0.834000       15.9994           0
     24835 TIP3     4118     TIP3     H1       HT       0.417000       1.00800           0
     24836 TIP3     4118     TIP3     H2       HT       0.417000       1.00800           0
     24837 TIP3     4119     TIP3     OH2      OT      -0.834000       15.9994           0
     24838 TIP3     4119     TIP3     H1       HT       0.417000       1.00800           0
     24839 TIP3     4119     TIP3     H2       HT       0.417000       1.00800           0
     24840 TIP3     4120     TIP3     OH2      OT      -0.834000       15.9994           0
     24841 TIP3     4120     TIP3     H1       HT       0.417000       1.00800           0
     24842 TIP3     4120     TIP3     H2       HT       0.417000       1.00800           0
     24843 TIP3     4121     TIP3     OH2      OT      -0.834000       15.9994           0
     24844 TIP3     4121     TIP3     H1       HT       0.417000       1.00800           0
     24845 TIP3     4121     TIP3     H2       HT       0.417000       1.00800           0
     24846 TIP3     4122     TIP3     OH2      OT      -0.834000       15.9994           0
     24847 TIP3     4122     TIP3     H1       HT       0.417000       1.00800           0
     24848 TIP3     4122     TIP3     H2       HT       0.417000       1.00800           0
     24849 TIP3     4123     TIP3     OH2      OT      -0.834000       15.9994           0
     24850 TIP3     4123     TIP3     H1       HT       0.417000       1.00800           0
     24851 TIP3     4123     TIP3     H2       HT       0.417000       1.00800           0
     24852 TIP3     4124     TIP3     OH2      OT      -0.834000       15.9994           0
     24853 TIP3     4124     TIP3     H1       HT       0.417000       1.00800           0
     24854 TIP3     4124     TIP3     H2       HT       0.417000       1.00800           0
     24855 TIP3     4125     TIP3     OH2      OT      -0.834000       15.9994           0
     24856 TIP3     4125     TIP3     H1       HT       0.417000       1.00800           0
     24857 TIP3     4125     TIP3     H2       HT       0.417000       1.00800           0
     24858 TIP3     4126     TIP3     OH2      OT      -0.834000       15.9994           0
     24859 TIP3     4126     TIP3     H1       HT       0.417000       1.00800           0
     24860 TIP3     4126     TIP3     H2       HT       0.417000       1.00800           0
     24861 TIP3     4127     TIP3     OH2      OT      -0.834000       15.9994           0
     24862 TIP3     4127     TIP3     H1       HT       0.417000       1.00800           0
     24863 TIP3     4127     TIP3     H2       HT       0.417000       1.00800           0
     24864 TIP3     4128     TIP3     OH2      OT      -0.834000       15.9994           0
     24865 TIP3     4128     TIP3     H1       HT       0.417000       1.00800           0
     24866 TIP3     4128     TIP3     H2       HT       0.417000       1.00800           0
     24867 TIP3     4129     TIP3     OH2      OT      -0.834000       15.9994           0
     24868 TIP3     4129     TIP3     H1       HT       0.417000       1.00800           0
     24869 TIP3     4129     TIP3     H2       HT       0.417000       1.00800           0
     24870 TIP3     4130     TIP3     OH2      OT      -0.834000       15.9994           0
     24871 TIP3     4130     TIP3     H1       HT       0.417000       1.00800           0
     24872 TIP3     4130     TIP3     H2       HT       0.417000       1.00800           0
     24873 TIP3     4131     TIP3     OH2      OT      -0.834000       15.9994           0
     24874 TIP3     4131     TIP3     H1       HT       0.417000       1.00800           0
     24875 TIP3     4131     TIP3     H2       HT       0.417000       1.00800           0
     24876 TIP3     4132     TIP3     OH2      OT      -0.834000       15.9994           0
     24877 TIP3     4132     TIP3     H1       HT       0.417000       1.00800           0
     24878 TIP3     4132     TIP3     H2       HT       0.417000       1.00800           0
     24879 TIP3     4133     TIP3     OH2      OT      -0.834000       15.9994           0
     24880 TIP3     4133     TIP3     H1       HT       0.417000       1.00800           0
     24881 TIP3     4133     TIP3     H2       HT       0.417000       1.00800           0
     24882 TIP3     4134     TIP3     OH2      OT      -0.834000       15.9994           0
     24883 TIP3     4134     TIP3     H1       HT       0.417000       1.00800           0
     24884 TIP3     4134     TIP3     H2       HT       0.417000       1.00800           0
     24885 TIP3     4135     TIP3     OH2      OT      -0.834000       15.9994           0
     24886 TIP3     4135     TIP3     H1       HT       0.417000       1.00800           0
     24887 TIP3     4135     TIP3     H2       HT       0.417000       1.00800           0
     24888 TIP3     4136     TIP3     OH2      OT      -0.834000       15.9994           0
     24889 TIP3     4136     TIP3     H1       HT       0.417000       1.00800           0
     24890 TIP3     4136     TIP3     H2       HT       0.417000       1.00800           0
     24891 TIP3     4137     TIP3     OH2      OT      -0.834000       15.9994           0
     24892 TIP3     4137     TIP3     H1       HT       0.417000       1.00800           0
     24893 TIP3     4137     TIP3     H2       HT       0.417000       1.00800           0
     24894 TIP3     4138     TIP3     OH2      OT      -0.834000       15.9994           0
     24895 TIP3     4138     TIP3     H1       HT       0.417000       1.00800           0
     24896 TIP3     4138     TIP3     H2       HT       0.417000       1.00800           0
     24897 TIP3     4139     TIP3     OH2      OT      -0.834000       15.9994           0
     24898 TIP3     4139     TIP3     H1       HT       0.417000       1.00800           0
     24899 TIP3     4139     TIP3     H2       HT       0.417000       1.00800           0
     24900 TIP3     4140     TIP3     OH2      OT      -0.834000       15.9994           0
     24901 TIP3     4140     TIP3     H1       HT       0.417000       1.00800           0
     24902 TIP3     4140     TIP3     H2       HT       0.417000       1.00800           0
     24903 TIP3     4141     TIP3     OH2      OT      -0.834000       15.9994           0
     24904 TIP3     4141     TIP3     H1       HT       0.417000       1.00800           0
     24905 TIP3     4141     TIP3     H2       HT       0.417000       1.00800           0
     24906 TIP3     4142     TIP3     OH2      OT      -0.834000       15.9994           0
     24907 TIP3     4142     TIP3     H1       HT       0.417000       1.00800           0
     24908 TIP3     4142     TIP3     H2       HT       0.417000       1.00800           0
     24909 TIP3     4143     TIP3     OH2      OT      -0.834000       15.9994           0
     24910 TIP3     4143     TIP3     H1       HT       0.417000       1.00800           0
     24911 TIP3     4143     TIP3     H2       HT       0.417000       1.00800           0
     24912 TIP3     4144     TIP3     OH2      OT      -0.834000       15.9994           0
     24913 TIP3     4144     TIP3     H1       HT       0.417000       1.00800           0
     24914 TIP3     4144     TIP3     H2       HT       0.417000       1.00800           0
     24915 TIP3     4145     TIP3     OH2      OT      -0.834000       15.9994           0
     24916 TIP3     4145     TIP3     H1       HT       0.417000       1.00800           0
     24917 TIP3     4145     TIP3     H2       HT       0.417000       1.00800           0
     24918 TIP3     4146     TIP3     OH2      OT      -0.834000       15.9994           0
     24919 TIP3     4146     TIP3     H1       HT       0.417000       1.00800           0
     24920 TIP3     4146     TIP3     H2       HT       0.417000       1.00800           0
     24921 TIP3     4147     TIP3     OH2      OT      -0.834000       15.9994           0
     24922 TIP3     4147     TIP3     H1       HT       0.417000       1.00800           0
     24923 TIP3     4147     TIP3     H2       HT       0.417000       1.00800           0
     24924 TIP3     4148     TIP3     OH2      OT      -0.834000       15.9994           0
     24925 TIP3     4148     TIP3     H1       HT       0.417000       1.00800           0
     24926 TIP3     4148     TIP3     H2       HT       0.417000       1.00800           0
     24927 TIP3     4149     TIP3     OH2      OT      -0.834000       15.9994           0
     24928 TIP3     4149     TIP3     H1       HT       0.417000       1.00800           0
     24929 TIP3     4149     TIP3     H2       HT       0.417000       1.00800           0
     24930 TIP3     4150     TIP3     OH2      OT      -0.834000       15.9994           0
     24931 TIP3     4150     TIP3     H1       HT       0.417000       1.00800           0
     24932 TIP3     4150     TIP3     H2       HT       0.417000       1.00800           0
     24933 TIP3     4151     TIP3     OH2      OT      -0.834000       15.9994           0
     24934 TIP3     4151     TIP3     H1       HT       0.417000       1.00800           0
     24935 TIP3     4151     TIP3     H2       HT       0.417000       1.00800           0
     24936 TIP3     4152     TIP3     OH2      OT      -0.834000       15.9994           0
     24937 TIP3     4152     TIP3     H1       HT       0.417000       1.00800           0
     24938 TIP3     4152     TIP3     H2       HT       0.417000       1.00800           0
     24939 TIP3     4153     TIP3     OH2      OT      -0.834000       15.9994           0
     24940 TIP3     4153     TIP3     H1       HT       0.417000       1.00800           0
     24941 TIP3     4153     TIP3     H2       HT       0.417000       1.00800           0
     24942 TIP3     4154     TIP3     OH2      OT      -0.834000       15.9994           0
     24943 TIP3     4154     TIP3     H1       HT       0.417000       1.00800           0
     24944 TIP3     4154     TIP3     H2       HT       0.417000       1.00800           0
     24945 TIP3     4155     TIP3     OH2      OT      -0.834000       15.9994           0
     24946 TIP3     4155     TIP3     H1       HT       0.417000       1.00800           0
     24947 TIP3     4155     TIP3     H2       HT       0.417000       1.00800           0
     24948 TIP3     4156     TIP3     OH2      OT      -0.834000       15.9994           0
     24949 TIP3     4156     TIP3     H1       HT       0.417000       1.00800           0
     24950 TIP3     4156     TIP3     H2       HT       0.417000       1.00800           0
     24951 TIP3     4157     TIP3     OH2      OT      -0.834000       15.9994           0
     24952 TIP3     4157     TIP3     H1       HT       0.417000       1.00800           0
     24953 TIP3     4157     TIP3     H2       HT       0.417000       1.00800           0
     24954 TIP3     4158     TIP3     OH2      OT      -0.834000       15.9994           0
     24955 TIP3     4158     TIP3     H1       HT       0.417000       1.00800           0
     24956 TIP3     4158     TIP3     H2       HT       0.417000       1.00800           0
     24957 TIP3     4159     TIP3     OH2      OT      -0.834000       15.9994           0
     24958 TIP3     4159     TIP3     H1       HT       0.417000       1.00800           0
     24959 TIP3     4159     TIP3     H2       HT       0.417000       1.00800           0
     24960 TIP3     4160     TIP3     OH2      OT      -0.834000       15.9994           0
     24961 TIP3     4160     TIP3     H1       HT       0.417000       1.00800           0
     24962 TIP3     4160     TIP3     H2       HT       0.417000       1.00800           0
     24963 TIP3     4161     TIP3     OH2      OT      -0.834000       15.9994           0
     24964 TIP3     4161     TIP3     H1       HT       0.417000       1.00800           0
     24965 TIP3     4161     TIP3     H2       HT       0.417000       1.00800           0
     24966 TIP3     4162     TIP3     OH2      OT      -0.834000       15.9994           0
     24967 TIP3     4162     TIP3     H1       HT       0.417000       1.00800           0
     24968 TIP3     4162     TIP3     H2       HT       0.417000       1.00800           0
     24969 TIP3     4163     TIP3     OH2      OT      -0.834000       15.9994           0
     24970 TIP3     4163     TIP3     H1       HT       0.417000       1.00800           0
     24971 TIP3     4163     TIP3     H2       HT       0.417000       1.00800           0
     24972 TIP3     4164     TIP3     OH2      OT      -0.834000       15.9994           0
     24973 TIP3     4164     TIP3     H1       HT       0.417000       1.00800           0
     24974 TIP3     4164     TIP3     H2       HT       0.417000       1.00800           0
     24975 TIP3     4165     TIP3     OH2      OT      -0.834000       15.9994           0
     24976 TIP3     4165     TIP3     H1       HT       0.417000       1.00800           0
     24977 TIP3     4165     TIP3     H2       HT       0.417000       1.00800           0
     24978 TIP3     4166     TIP3     OH2      OT      -0.834000       15.9994           0
     24979 TIP3     4166     TIP3     H1       HT       0.417000       1.00800           0
     24980 TIP3     4166     TIP3     H2       HT       0.417000       1.00800           0
     24981 TIP3     4167     TIP3     OH2      OT      -0.834000       15.9994           0
     24982 TIP3     4167     TIP3     H1       HT       0.417000       1.00800           0
     24983 TIP3     4167     TIP3     H2       HT       0.417000       1.00800           0
     24984 TIP3     4168     TIP3     OH2      OT      -0.834000       15.9994           0
     24985 TIP3     4168     TIP3     H1       HT       0.417000       1.00800           0
     24986 TIP3     4168     TIP3     H2       HT       0.417000       1.00800           0
     24987 TIP3     4169     TIP3     OH2      OT      -0.834000       15.9994           0
     24988 TIP3     4169     TIP3     H1       HT       0.417000       1.00800           0
     24989 TIP3     4169     TIP3     H2       HT       0.417000       1.00800           0
     24990 TIP3     4170     TIP3     OH2      OT      -0.834000       15.9994           0
     24991 TIP3     4170     TIP3     H1       HT       0.417000       1.00800           0
     24992 TIP3     4170     TIP3     H2       HT       0.417000       1.00800           0
     24993 TIP3     4171     TIP3     OH2      OT      -0.834000       15.9994           0
     24994 TIP3     4171     TIP3     H1       HT       0.417000       1.00800           0
     24995 TIP3     4171     TIP3     H2       HT       0.417000       1.00800           0
     24996 TIP3     4172     TIP3     OH2      OT      -0.834000       15.9994           0
     24997 TIP3     4172     TIP3     H1       HT       0.417000       1.00800           0
     24998 TIP3     4172     TIP3     H2       HT       0.417000       1.00800           0
     24999 TIP3     4173     TIP3     OH2      OT      -0.834000       15.9994           0
     25000 TIP3     4173     TIP3     H1       HT       0.417000       1.00800           0
     25001 TIP3     4173     TIP3     H2       HT       0.417000       1.00800           0
     25002 TIP3     4174     TIP3     OH2      OT      -0.834000       15.9994           0
     25003 TIP3     4174     TIP3     H1       HT       0.417000       1.00800           0
     25004 TIP3     4174     TIP3     H2       HT       0.417000       1.00800           0
     25005 TIP3     4175     TIP3     OH2      OT      -0.834000       15.9994           0
     25006 TIP3     4175     TIP3     H1       HT       0.417000       1.00800           0
     25007 TIP3     4175     TIP3     H2       HT       0.417000       1.00800           0
     25008 TIP3     4176     TIP3     OH2      OT      -0.834000       15.9994           0
     25009 TIP3     4176     TIP3     H1       HT       0.417000       1.00800           0
     25010 TIP3     4176     TIP3     H2       HT       0.417000       1.00800           0
     25011 TIP3     4177     TIP3     OH2      OT      -0.834000       15.9994           0
     25012 TIP3     4177     TIP3     H1       HT       0.417000       1.00800           0
     25013 TIP3     4177     TIP3     H2       HT       0.417000       1.00800           0
     25014 TIP3     4178     TIP3     OH2      OT      -0.834000       15.9994           0
     25015 TIP3     4178     TIP3     H1       HT       0.417000       1.00800           0
     25016 TIP3     4178     TIP3     H2       HT       0.417000       1.00800           0
     25017 TIP3     4179     TIP3     OH2      OT      -0.834000       15.9994           0
     25018 TIP3     4179     TIP3     H1       HT       0.417000       1.00800           0
     25019 TIP3     4179     TIP3     H2       HT       0.417000       1.00800           0
     25020 TIP3     4180     TIP3     OH2      OT      -0.834000       15.9994           0
     25021 TIP3     4180     TIP3     H1       HT       0.417000       1.00800           0
     25022 TIP3     4180     TIP3     H2       HT       0.417000       1.00800           0
     25023 TIP3     4181     TIP3     OH2      OT      -0.834000       15.9994           0
     25024 TIP3     4181     TIP3     H1       HT       0.417000       1.00800           0
     25025 TIP3     4181     TIP3     H2       HT       0.417000       1.00800           0
     25026 TIP3     4182     TIP3     OH2      OT      -0.834000       15.9994           0
     25027 TIP3     4182     TIP3     H1       HT       0.417000       1.00800           0
     25028 TIP3     4182     TIP3     H2       HT       0.417000       1.00800           0
     25029 TIP3     4183     TIP3     OH2      OT      -0.834000       15.9994           0
     25030 TIP3     4183     TIP3     H1       HT       0.417000       1.00800           0
     25031 TIP3     4183     TIP3     H2       HT       0.417000       1.00800           0
     25032 TIP3     4184     TIP3     OH2      OT      -0.834000       15.9994           0
     25033 TIP3     4184     TIP3     H1       HT       0.417000       1.00800           0
     25034 TIP3     4184     TIP3     H2       HT       0.417000       1.00800           0
     25035 TIP3     4185     TIP3     OH2      OT      -0.834000       15.9994           0
     25036 TIP3     4185     TIP3     H1       HT       0.417000       1.00800           0
     25037 TIP3     4185     TIP3     H2       HT       0.417000       1.00800           0
     25038 TIP3     4186     TIP3     OH2      OT      -0.834000       15.9994           0
     25039 TIP3     4186     TIP3     H1       HT       0.417000       1.00800           0
     25040 TIP3     4186     TIP3     H2       HT       0.417000       1.00800           0
     25041 TIP3     4187     TIP3     OH2      OT      -0.834000       15.9994           0
     25042 TIP3     4187     TIP3     H1       HT       0.417000       1.00800           0
     25043 TIP3     4187     TIP3     H2       HT       0.417000       1.00800           0
     25044 TIP3     4188     TIP3     OH2      OT      -0.834000       15.9994           0
     25045 TIP3     4188     TIP3     H1       HT       0.417000       1.00800           0
     25046 TIP3     4188     TIP3     H2       HT       0.417000       1.00800           0
     25047 TIP3     4189     TIP3     OH2      OT      -0.834000       15.9994           0
     25048 TIP3     4189     TIP3     H1       HT       0.417000       1.00800           0
     25049 TIP3     4189     TIP3     H2       HT       0.417000       1.00800           0
     25050 TIP3     4190     TIP3     OH2      OT      -0.834000       15.9994           0
     25051 TIP3     4190     TIP3     H1       HT       0.417000       1.00800           0
     25052 TIP3     4190     TIP3     H2       HT       0.417000       1.00800           0
     25053 TIP3     4191     TIP3     OH2      OT      -0.834000       15.9994           0
     25054 TIP3     4191     TIP3     H1       HT       0.417000       1.00800           0
     25055 TIP3     4191     TIP3     H2       HT       0.417000       1.00800           0
     25056 TIP3     4192     TIP3     OH2      OT      -0.834000       15.9994           0
     25057 TIP3     4192     TIP3     H1       HT       0.417000       1.00800           0
     25058 TIP3     4192     TIP3     H2       HT       0.417000       1.00800           0
     25059 TIP3     4193     TIP3     OH2      OT      -0.834000       15.9994           0
     25060 TIP3     4193     TIP3     H1       HT       0.417000       1.00800           0
     25061 TIP3     4193     TIP3     H2       HT       0.417000       1.00800           0
     25062 TIP3     4194     TIP3     OH2      OT      -0.834000       15.9994           0
     25063 TIP3     4194     TIP3     H1       HT       0.417000       1.00800           0
     25064 TIP3     4194     TIP3     H2       HT       0.417000       1.00800           0
     25065 TIP3     4195     TIP3     OH2      OT      -0.834000       15.9994           0
     25066 TIP3     4195     TIP3     H1       HT       0.417000       1.00800           0
     25067 TIP3     4195     TIP3     H2       HT       0.417000       1.00800           0
     25068 TIP3     4196     TIP3     OH2      OT      -0.834000       15.9994           0
     25069 TIP3     4196     TIP3     H1       HT       0.417000       1.00800           0
     25070 TIP3     4196     TIP3     H2       HT       0.417000       1.00800           0
     25071 TIP3     4197     TIP3     OH2      OT      -0.834000       15.9994           0
     25072 TIP3     4197     TIP3     H1       HT       0.417000       1.00800           0
     25073 TIP3     4197     TIP3     H2       HT       0.417000       1.00800           0
     25074 TIP3     4198     TIP3     OH2      OT      -0.834000       15.9994           0
     25075 TIP3     4198     TIP3     H1       HT       0.417000       1.00800           0
     25076 TIP3     4198     TIP3     H2       HT       0.417000       1.00800           0
     25077 TIP3     4199     TIP3     OH2      OT      -0.834000       15.9994           0
     25078 TIP3     4199     TIP3     H1       HT       0.417000       1.00800           0
     25079 TIP3     4199     TIP3     H2       HT       0.417000       1.00800           0
     25080 TIP3     4200     TIP3     OH2      OT      -0.834000       15.9994           0
     25081 TIP3     4200     TIP3     H1       HT       0.417000       1.00800           0
     25082 TIP3     4200     TIP3     H2       HT       0.417000       1.00800           0
     25083 TIP3     4201     TIP3     OH2      OT      -0.834000       15.9994           0
     25084 TIP3     4201     TIP3     H1       HT       0.417000       1.00800           0
     25085 TIP3     4201     TIP3     H2       HT       0.417000       1.00800           0
     25086 TIP3     4202     TIP3     OH2      OT      -0.834000       15.9994           0
     25087 TIP3     4202     TIP3     H1       HT       0.417000       1.00800           0
     25088 TIP3     4202     TIP3     H2       HT       0.417000       1.00800           0
     25089 TIP3     4203     TIP3     OH2      OT      -0.834000       15.9994           0
     25090 TIP3     4203     TIP3     H1       HT       0.417000       1.00800           0
     25091 TIP3     4203     TIP3     H2       HT       0.417000       1.00800           0
     25092 TIP3     4204     TIP3     OH2      OT      -0.834000       15.9994           0
     25093 TIP3     4204     TIP3     H1       HT       0.417000       1.00800           0
     25094 TIP3     4204     TIP3     H2       HT       0.417000       1.00800           0
     25095 TIP3     4205     TIP3     OH2      OT      -0.834000       15.9994           0
     25096 TIP3     4205     TIP3     H1       HT       0.417000       1.00800           0
     25097 TIP3     4205     TIP3     H2       HT       0.417000       1.00800           0
     25098 TIP3     4206     TIP3     OH2      OT      -0.834000       15.9994           0
     25099 TIP3     4206     TIP3     H1       HT       0.417000       1.00800           0
     25100 TIP3     4206     TIP3     H2       HT       0.417000       1.00800           0
     25101 TIP3     4207     TIP3     OH2      OT      -0.834000       15.9994           0
     25102 TIP3     4207     TIP3     H1       HT       0.417000       1.00800           0
     25103 TIP3     4207     TIP3     H2       HT       0.417000       1.00800           0
     25104 TIP3     4208     TIP3     OH2      OT      -0.834000       15.9994           0
     25105 TIP3     4208     TIP3     H1       HT       0.417000       1.00800           0
     25106 TIP3     4208     TIP3     H2       HT       0.417000       1.00800           0
     25107 TIP3     4209     TIP3     OH2      OT      -0.834000       15.9994           0
     25108 TIP3     4209     TIP3     H1       HT       0.417000       1.00800           0
     25109 TIP3     4209     TIP3     H2       HT       0.417000       1.00800           0
     25110 TIP3     4210     TIP3     OH2      OT      -0.834000       15.9994           0
     25111 TIP3     4210     TIP3     H1       HT       0.417000       1.00800           0
     25112 TIP3     4210     TIP3     H2       HT       0.417000       1.00800           0
     25113 TIP3     4211     TIP3     OH2      OT      -0.834000       15.9994           0
     25114 TIP3     4211     TIP3     H1       HT       0.417000       1.00800           0
     25115 TIP3     4211     TIP3     H2       HT       0.417000       1.00800           0
     25116 TIP3     4212     TIP3     OH2      OT      -0.834000       15.9994           0
     25117 TIP3     4212     TIP3     H1       HT       0.417000       1.00800           0
     25118 TIP3     4212     TIP3     H2       HT       0.417000       1.00800           0
     25119 TIP3     4213     TIP3     OH2      OT      -0.834000       15.9994           0
     25120 TIP3     4213     TIP3     H1       HT       0.417000       1.00800           0
     25121 TIP3     4213     TIP3     H2       HT       0.417000       1.00800           0
     25122 TIP3     4214     TIP3     OH2      OT      -0.834000       15.9994           0
     25123 TIP3     4214     TIP3     H1       HT       0.417000       1.00800           0
     25124 TIP3     4214     TIP3     H2       HT       0.417000       1.00800           0
     25125 TIP3     4215     TIP3     OH2      OT      -0.834000       15.9994           0
     25126 TIP3     4215     TIP3     H1       HT       0.417000       1.00800           0
     25127 TIP3     4215     TIP3     H2       HT       0.417000       1.00800           0
     25128 TIP3     4216     TIP3     OH2      OT      -0.834000       15.9994           0
     25129 TIP3     4216     TIP3     H1       HT       0.417000       1.00800           0
     25130 TIP3     4216     TIP3     H2       HT       0.417000       1.00800           0
     25131 TIP3     4217     TIP3     OH2      OT      -0.834000       15.9994           0
     25132 TIP3     4217     TIP3     H1       HT       0.417000       1.00800           0
     25133 TIP3     4217     TIP3     H2       HT       0.417000       1.00800           0
     25134 TIP3     4218     TIP3     OH2      OT      -0.834000       15.9994           0
     25135 TIP3     4218     TIP3     H1       HT       0.417000       1.00800           0
     25136 TIP3     4218     TIP3     H2       HT       0.417000       1.00800           0
     25137 TIP3     4219     TIP3     OH2      OT      -0.834000       15.9994           0
     25138 TIP3     4219     TIP3     H1       HT       0.417000       1.00800           0
     25139 TIP3     4219     TIP3     H2       HT       0.417000       1.00800           0
     25140 TIP3     4220     TIP3     OH2      OT      -0.834000       15.9994           0
     25141 TIP3     4220     TIP3     H1       HT       0.417000       1.00800           0
     25142 TIP3     4220     TIP3     H2       HT       0.417000       1.00800           0
     25143 TIP3     4221     TIP3     OH2      OT      -0.834000       15.9994           0
     25144 TIP3     4221     TIP3     H1       HT       0.417000       1.00800           0
     25145 TIP3     4221     TIP3     H2       HT       0.417000       1.00800           0
     25146 TIP3     4222     TIP3     OH2      OT      -0.834000       15.9994           0
     25147 TIP3     4222     TIP3     H1       HT       0.417000       1.00800           0
     25148 TIP3     4222     TIP3     H2       HT       0.417000       1.00800           0
     25149 TIP3     4223     TIP3     OH2      OT      -0.834000       15.9994           0
     25150 TIP3     4223     TIP3     H1       HT       0.417000       1.00800           0
     25151 TIP3     4223     TIP3     H2       HT       0.417000       1.00800           0
     25152 TIP3     4224     TIP3     OH2      OT      -0.834000       15.9994           0
     25153 TIP3     4224     TIP3     H1       HT       0.417000       1.00800           0
     25154 TIP3     4224     TIP3     H2       HT       0.417000       1.00800           0
     25155 TIP3     4225     TIP3     OH2      OT      -0.834000       15.9994           0
     25156 TIP3     4225     TIP3     H1       HT       0.417000       1.00800           0
     25157 TIP3     4225     TIP3     H2       HT       0.417000       1.00800           0
     25158 TIP3     4226     TIP3     OH2      OT      -0.834000       15.9994           0
     25159 TIP3     4226     TIP3     H1       HT       0.417000       1.00800           0
     25160 TIP3     4226     TIP3     H2       HT       0.417000       1.00800           0
     25161 TIP3     4227     TIP3     OH2      OT      -0.834000       15.9994           0
     25162 TIP3     4227     TIP3     H1       HT       0.417000       1.00800           0
     25163 TIP3     4227     TIP3     H2       HT       0.417000       1.00800           0
     25164 TIP3     4228     TIP3     OH2      OT      -0.834000       15.9994           0
     25165 TIP3     4228     TIP3     H1       HT       0.417000       1.00800           0
     25166 TIP3     4228     TIP3     H2       HT       0.417000       1.00800           0
     25167 TIP3     4229     TIP3     OH2      OT      -0.834000       15.9994           0
     25168 TIP3     4229     TIP3     H1       HT       0.417000       1.00800           0
     25169 TIP3     4229     TIP3     H2       HT       0.417000       1.00800           0
     25170 TIP3     4230     TIP3     OH2      OT      -0.834000       15.9994           0
     25171 TIP3     4230     TIP3     H1       HT       0.417000       1.00800           0
     25172 TIP3     4230     TIP3     H2       HT       0.417000       1.00800           0
     25173 TIP3     4231     TIP3     OH2      OT      -0.834000       15.9994           0
     25174 TIP3     4231     TIP3     H1       HT       0.417000       1.00800           0
     25175 TIP3     4231     TIP3     H2       HT       0.417000       1.00800           0
     25176 TIP3     4232     TIP3     OH2      OT      -0.834000       15.9994           0
     25177 TIP3     4232     TIP3     H1       HT       0.417000       1.00800           0
     25178 TIP3     4232     TIP3     H2       HT       0.417000       1.00800           0
     25179 TIP3     4233     TIP3     OH2      OT      -0.834000       15.9994           0
     25180 TIP3     4233     TIP3     H1       HT       0.417000       1.00800           0
     25181 TIP3     4233     TIP3     H2       HT       0.417000       1.00800           0
     25182 TIP3     4234     TIP3     OH2      OT      -0.834000       15.9994           0
     25183 TIP3     4234     TIP3     H1       HT       0.417000       1.00800           0
     25184 TIP3     4234     TIP3     H2       HT       0.417000       1.00800           0
     25185 TIP3     4235     TIP3     OH2      OT      -0.834000       15.9994           0
     25186 TIP3     4235     TIP3     H1       HT       0.417000       1.00800           0
     25187 TIP3     4235     TIP3     H2       HT       0.417000       1.00800           0
     25188 TIP3     4236     TIP3     OH2      OT      -0.834000       15.9994           0
     25189 TIP3     4236     TIP3     H1       HT       0.417000       1.00800           0
     25190 TIP3     4236     TIP3     H2       HT       0.417000       1.00800           0
     25191 TIP3     4237     TIP3     OH2      OT      -0.834000       15.9994           0
     25192 TIP3     4237     TIP3     H1       HT       0.417000       1.00800           0
     25193 TIP3     4237     TIP3     H2       HT       0.417000       1.00800           0
     25194 TIP3     4238     TIP3     OH2      OT      -0.834000       15.9994           0
     25195 TIP3     4238     TIP3     H1       HT       0.417000       1.00800           0
     25196 TIP3     4238     TIP3     H2       HT       0.417000       1.00800           0
     25197 TIP3     4239     TIP3     OH2      OT      -0.834000       15.9994           0
     25198 TIP3     4239     TIP3     H1       HT       0.417000       1.00800           0
     25199 TIP3     4239     TIP3     H2       HT       0.417000       1.00800           0
     25200 TIP3     4240     TIP3     OH2      OT      -0.834000       15.9994           0
     25201 TIP3     4240     TIP3     H1       HT       0.417000       1.00800           0
     25202 TIP3     4240     TIP3     H2       HT       0.417000       1.00800           0
     25203 TIP3     4241     TIP3     OH2      OT      -0.834000       15.9994           0
     25204 TIP3     4241     TIP3     H1       HT       0.417000       1.00800           0
     25205 TIP3     4241     TIP3     H2       HT       0.417000       1.00800           0
     25206 TIP3     4242     TIP3     OH2      OT      -0.834000       15.9994           0
     25207 TIP3     4242     TIP3     H1       HT       0.417000       1.00800           0
     25208 TIP3     4242     TIP3     H2       HT       0.417000       1.00800           0
     25209 TIP3     4243     TIP3     OH2      OT      -0.834000       15.9994           0
     25210 TIP3     4243     TIP3     H1       HT       0.417000       1.00800           0
     25211 TIP3     4243     TIP3     H2       HT       0.417000       1.00800           0
     25212 TIP3     4244     TIP3     OH2      OT      -0.834000       15.9994           0
     25213 TIP3     4244     TIP3     H1       HT       0.417000       1.00800           0
     25214 TIP3     4244     TIP3     H2       HT       0.417000       1.00800           0
     25215 TIP3     4245     TIP3     OH2      OT      -0.834000       15.9994           0
     25216 TIP3     4245     TIP3     H1       HT       0.417000       1.00800           0
     25217 TIP3     4245     TIP3     H2       HT       0.417000       1.00800           0
     25218 TIP3     4246     TIP3     OH2      OT      -0.834000       15.9994           0
     25219 TIP3     4246     TIP3     H1       HT       0.417000       1.00800           0
     25220 TIP3     4246     TIP3     H2       HT       0.417000       1.00800           0
     25221 TIP3     4247     TIP3     OH2      OT      -0.834000       15.9994           0
     25222 TIP3     4247     TIP3     H1       HT       0.417000       1.00800           0
     25223 TIP3     4247     TIP3     H2       HT       0.417000       1.00800           0
     25224 TIP3     4248     TIP3     OH2      OT      -0.834000       15.9994           0
     25225 TIP3     4248     TIP3     H1       HT       0.417000       1.00800           0
     25226 TIP3     4248     TIP3     H2       HT       0.417000       1.00800           0
     25227 TIP3     4249     TIP3     OH2      OT      -0.834000       15.9994           0
     25228 TIP3     4249     TIP3     H1       HT       0.417000       1.00800           0
     25229 TIP3     4249     TIP3     H2       HT       0.417000       1.00800           0
     25230 TIP3     4250     TIP3     OH2      OT      -0.834000       15.9994           0
     25231 TIP3     4250     TIP3     H1       HT       0.417000       1.00800           0
     25232 TIP3     4250     TIP3     H2       HT       0.417000       1.00800           0
     25233 TIP3     4251     TIP3     OH2      OT      -0.834000       15.9994           0
     25234 TIP3     4251     TIP3     H1       HT       0.417000       1.00800           0
     25235 TIP3     4251     TIP3     H2       HT       0.417000       1.00800           0
     25236 TIP3     4252     TIP3     OH2      OT      -0.834000       15.9994           0
     25237 TIP3     4252     TIP3     H1       HT       0.417000       1.00800           0
     25238 TIP3     4252     TIP3     H2       HT       0.417000       1.00800           0
     25239 TIP3     4253     TIP3     OH2      OT      -0.834000       15.9994           0
     25240 TIP3     4253     TIP3     H1       HT       0.417000       1.00800           0
     25241 TIP3     4253     TIP3     H2       HT       0.417000       1.00800           0
     25242 TIP3     4254     TIP3     OH2      OT      -0.834000       15.9994           0
     25243 TIP3     4254     TIP3     H1       HT       0.417000       1.00800           0
     25244 TIP3     4254     TIP3     H2       HT       0.417000       1.00800           0
     25245 TIP3     4255     TIP3     OH2      OT      -0.834000       15.9994           0
     25246 TIP3     4255     TIP3     H1       HT       0.417000       1.00800           0
     25247 TIP3     4255     TIP3     H2       HT       0.417000       1.00800           0
     25248 TIP3     4256     TIP3     OH2      OT      -0.834000       15.9994           0
     25249 TIP3     4256     TIP3     H1       HT       0.417000       1.00800           0
     25250 TIP3     4256     TIP3     H2       HT       0.417000       1.00800           0
     25251 TIP3     4257     TIP3     OH2      OT      -0.834000       15.9994           0
     25252 TIP3     4257     TIP3     H1       HT       0.417000       1.00800           0
     25253 TIP3     4257     TIP3     H2       HT       0.417000       1.00800           0
     25254 TIP3     4258     TIP3     OH2      OT      -0.834000       15.9994           0
     25255 TIP3     4258     TIP3     H1       HT       0.417000       1.00800           0
     25256 TIP3     4258     TIP3     H2       HT       0.417000       1.00800           0
     25257 TIP3     4259     TIP3     OH2      OT      -0.834000       15.9994           0
     25258 TIP3     4259     TIP3     H1       HT       0.417000       1.00800           0
     25259 TIP3     4259     TIP3     H2       HT       0.417000       1.00800           0
     25260 TIP3     4260     TIP3     OH2      OT      -0.834000       15.9994           0
     25261 TIP3     4260     TIP3     H1       HT       0.417000       1.00800           0
     25262 TIP3     4260     TIP3     H2       HT       0.417000       1.00800           0
     25263 TIP3     4261     TIP3     OH2      OT      -0.834000       15.9994           0
     25264 TIP3     4261     TIP3     H1       HT       0.417000       1.00800           0
     25265 TIP3     4261     TIP3     H2       HT       0.417000       1.00800           0
     25266 TIP3     4262     TIP3     OH2      OT      -0.834000       15.9994           0
     25267 TIP3     4262     TIP3     H1       HT       0.417000       1.00800           0
     25268 TIP3     4262     TIP3     H2       HT       0.417000       1.00800           0
     25269 TIP3     4263     TIP3     OH2      OT      -0.834000       15.9994           0
     25270 TIP3     4263     TIP3     H1       HT       0.417000       1.00800           0
     25271 TIP3     4263     TIP3     H2       HT       0.417000       1.00800           0
     25272 TIP3     4264     TIP3     OH2      OT      -0.834000       15.9994           0
     25273 TIP3     4264     TIP3     H1       HT       0.417000       1.00800           0
     25274 TIP3     4264     TIP3     H2       HT       0.417000       1.00800           0
     25275 TIP3     4265     TIP3     OH2      OT      -0.834000       15.9994           0
     25276 TIP3     4265     TIP3     H1       HT       0.417000       1.00800           0
     25277 TIP3     4265     TIP3     H2       HT       0.417000       1.00800           0
     25278 TIP3     4266     TIP3     OH2      OT      -0.834000       15.9994           0
     25279 TIP3     4266     TIP3     H1       HT       0.417000       1.00800           0
     25280 TIP3     4266     TIP3     H2       HT       0.417000       1.00800           0
     25281 TIP3     4267     TIP3     OH2      OT      -0.834000       15.9994           0
     25282 TIP3     4267     TIP3     H1       HT       0.417000       1.00800           0
     25283 TIP3     4267     TIP3     H2       HT       0.417000       1.00800           0
     25284 TIP3     4268     TIP3     OH2      OT      -0.834000       15.9994           0
     25285 TIP3     4268     TIP3     H1       HT       0.417000       1.00800           0
     25286 TIP3     4268     TIP3     H2       HT       0.417000       1.00800           0
     25287 TIP3     4269     TIP3     OH2      OT      -0.834000       15.9994           0
     25288 TIP3     4269     TIP3     H1       HT       0.417000       1.00800           0
     25289 TIP3     4269     TIP3     H2       HT       0.417000       1.00800           0
     25290 TIP3     4270     TIP3     OH2      OT      -0.834000       15.9994           0
     25291 TIP3     4270     TIP3     H1       HT       0.417000       1.00800           0
     25292 TIP3     4270     TIP3     H2       HT       0.417000       1.00800           0
     25293 TIP3     4271     TIP3     OH2      OT      -0.834000       15.9994           0
     25294 TIP3     4271     TIP3     H1       HT       0.417000       1.00800           0
     25295 TIP3     4271     TIP3     H2       HT       0.417000       1.00800           0
     25296 TIP3     4272     TIP3     OH2      OT      -0.834000       15.9994           0
     25297 TIP3     4272     TIP3     H1       HT       0.417000       1.00800           0
     25298 TIP3     4272     TIP3     H2       HT       0.417000       1.00800           0
     25299 TIP3     4273     TIP3     OH2      OT      -0.834000       15.9994           0
     25300 TIP3     4273     TIP3     H1       HT       0.417000       1.00800           0
     25301 TIP3     4273     TIP3     H2       HT       0.417000       1.00800           0
     25302 TIP3     4274     TIP3     OH2      OT      -0.834000       15.9994           0
     25303 TIP3     4274     TIP3     H1       HT       0.417000       1.00800           0
     25304 TIP3     4274     TIP3     H2       HT       0.417000       1.00800           0
     25305 TIP3     4275     TIP3     OH2      OT      -0.834000       15.9994           0
     25306 TIP3     4275     TIP3     H1       HT       0.417000       1.00800           0
     25307 TIP3     4275     TIP3     H2       HT       0.417000       1.00800           0
     25308 TIP3     4276     TIP3     OH2      OT      -0.834000       15.9994           0
     25309 TIP3     4276     TIP3     H1       HT       0.417000       1.00800           0
     25310 TIP3     4276     TIP3     H2       HT       0.417000       1.00800           0
     25311 TIP3     4277     TIP3     OH2      OT      -0.834000       15.9994           0
     25312 TIP3     4277     TIP3     H1       HT       0.417000       1.00800           0
     25313 TIP3     4277     TIP3     H2       HT       0.417000       1.00800           0
     25314 TIP3     4278     TIP3     OH2      OT      -0.834000       15.9994           0
     25315 TIP3     4278     TIP3     H1       HT       0.417000       1.00800           0
     25316 TIP3     4278     TIP3     H2       HT       0.417000       1.00800           0
     25317 TIP3     4279     TIP3     OH2      OT      -0.834000       15.9994           0
     25318 TIP3     4279     TIP3     H1       HT       0.417000       1.00800           0
     25319 TIP3     4279     TIP3     H2       HT       0.417000       1.00800           0
     25320 TIP3     4280     TIP3     OH2      OT      -0.834000       15.9994           0
     25321 TIP3     4280     TIP3     H1       HT       0.417000       1.00800           0
     25322 TIP3     4280     TIP3     H2       HT       0.417000       1.00800           0
     25323 TIP3     4281     TIP3     OH2      OT      -0.834000       15.9994           0
     25324 TIP3     4281     TIP3     H1       HT       0.417000       1.00800           0
     25325 TIP3     4281     TIP3     H2       HT       0.417000       1.00800           0
     25326 TIP3     4282     TIP3     OH2      OT      -0.834000       15.9994           0
     25327 TIP3     4282     TIP3     H1       HT       0.417000       1.00800           0
     25328 TIP3     4282     TIP3     H2       HT       0.417000       1.00800           0
     25329 TIP3     4283     TIP3     OH2      OT      -0.834000       15.9994           0
     25330 TIP3     4283     TIP3     H1       HT       0.417000       1.00800           0
     25331 TIP3     4283     TIP3     H2       HT       0.417000       1.00800           0
     25332 TIP3     4284     TIP3     OH2      OT      -0.834000       15.9994           0
     25333 TIP3     4284     TIP3     H1       HT       0.417000       1.00800           0
     25334 TIP3     4284     TIP3     H2       HT       0.417000       1.00800           0
     25335 TIP3     4285     TIP3     OH2      OT      -0.834000       15.9994           0
     25336 TIP3     4285     TIP3     H1       HT       0.417000       1.00800           0
     25337 TIP3     4285     TIP3     H2       HT       0.417000       1.00800           0
     25338 TIP3     4286     TIP3     OH2      OT      -0.834000       15.9994           0
     25339 TIP3     4286     TIP3     H1       HT       0.417000       1.00800           0
     25340 TIP3     4286     TIP3     H2       HT       0.417000       1.00800           0
     25341 TIP3     4287     TIP3     OH2      OT      -0.834000       15.9994           0
     25342 TIP3     4287     TIP3     H1       HT       0.417000       1.00800           0
     25343 TIP3     4287     TIP3     H2       HT       0.417000       1.00800           0
     25344 TIP3     4288     TIP3     OH2      OT      -0.834000       15.9994           0
     25345 TIP3     4288     TIP3     H1       HT       0.417000       1.00800           0
     25346 TIP3     4288     TIP3     H2       HT       0.417000       1.00800           0
     25347 TIP3     4289     TIP3     OH2      OT      -0.834000       15.9994           0
     25348 TIP3     4289     TIP3     H1       HT       0.417000       1.00800           0
     25349 TIP3     4289     TIP3     H2       HT       0.417000       1.00800           0
     25350 TIP3     4290     TIP3     OH2      OT      -0.834000       15.9994           0
     25351 TIP3     4290     TIP3     H1       HT       0.417000       1.00800           0
     25352 TIP3     4290     TIP3     H2       HT       0.417000       1.00800           0
     25353 TIP3     4291     TIP3     OH2      OT      -0.834000       15.9994           0
     25354 TIP3     4291     TIP3     H1       HT       0.417000       1.00800           0
     25355 TIP3     4291     TIP3     H2       HT       0.417000       1.00800           0
     25356 TIP3     4292     TIP3     OH2      OT      -0.834000       15.9994           0
     25357 TIP3     4292     TIP3     H1       HT       0.417000       1.00800           0
     25358 TIP3     4292     TIP3     H2       HT       0.417000       1.00800           0
     25359 TIP3     4293     TIP3     OH2      OT      -0.834000       15.9994           0
     25360 TIP3     4293     TIP3     H1       HT       0.417000       1.00800           0
     25361 TIP3     4293     TIP3     H2       HT       0.417000       1.00800           0
     25362 TIP3     4294     TIP3     OH2      OT      -0.834000       15.9994           0
     25363 TIP3     4294     TIP3     H1       HT       0.417000       1.00800           0
     25364 TIP3     4294     TIP3     H2       HT       0.417000       1.00800           0
     25365 TIP3     4295     TIP3     OH2      OT      -0.834000       15.9994           0
     25366 TIP3     4295     TIP3     H1       HT       0.417000       1.00800           0
     25367 TIP3     4295     TIP3     H2       HT       0.417000       1.00800           0
     25368 TIP3     4296     TIP3     OH2      OT      -0.834000       15.9994           0
     25369 TIP3     4296     TIP3     H1       HT       0.417000       1.00800           0
     25370 TIP3     4296     TIP3     H2       HT       0.417000       1.00800           0
     25371 TIP3     4297     TIP3     OH2      OT      -0.834000       15.9994           0
     25372 TIP3     4297     TIP3     H1       HT       0.417000       1.00800           0
     25373 TIP3     4297     TIP3     H2       HT       0.417000       1.00800           0
     25374 TIP3     4298     TIP3     OH2      OT      -0.834000       15.9994           0
     25375 TIP3     4298     TIP3     H1       HT       0.417000       1.00800           0
     25376 TIP3     4298     TIP3     H2       HT       0.417000       1.00800           0
     25377 TIP3     4299     TIP3     OH2      OT      -0.834000       15.9994           0
     25378 TIP3     4299     TIP3     H1       HT       0.417000       1.00800           0
     25379 TIP3     4299     TIP3     H2       HT       0.417000       1.00800           0
     25380 TIP3     4300     TIP3     OH2      OT      -0.834000       15.9994           0
     25381 TIP3     4300     TIP3     H1       HT       0.417000       1.00800           0
     25382 TIP3     4300     TIP3     H2       HT       0.417000       1.00800           0
     25383 TIP3     4301     TIP3     OH2      OT      -0.834000       15.9994           0
     25384 TIP3     4301     TIP3     H1       HT       0.417000       1.00800           0
     25385 TIP3     4301     TIP3     H2       HT       0.417000       1.00800           0
     25386 TIP3     4302     TIP3     OH2      OT      -0.834000       15.9994           0
     25387 TIP3     4302     TIP3     H1       HT       0.417000       1.00800           0
     25388 TIP3     4302     TIP3     H2       HT       0.417000       1.00800           0
     25389 TIP3     4303     TIP3     OH2      OT      -0.834000       15.9994           0
     25390 TIP3     4303     TIP3     H1       HT       0.417000       1.00800           0
     25391 TIP3     4303     TIP3     H2       HT       0.417000       1.00800           0
     25392 TIP3     4304     TIP3     OH2      OT      -0.834000       15.9994           0
     25393 TIP3     4304     TIP3     H1       HT       0.417000       1.00800           0
     25394 TIP3     4304     TIP3     H2       HT       0.417000       1.00800           0
     25395 TIP3     4305     TIP3     OH2      OT      -0.834000       15.9994           0
     25396 TIP3     4305     TIP3     H1       HT       0.417000       1.00800           0
     25397 TIP3     4305     TIP3     H2       HT       0.417000       1.00800           0
     25398 TIP3     4306     TIP3     OH2      OT      -0.834000       15.9994           0
     25399 TIP3     4306     TIP3     H1       HT       0.417000       1.00800           0
     25400 TIP3     4306     TIP3     H2       HT       0.417000       1.00800           0
     25401 TIP3     4307     TIP3     OH2      OT      -0.834000       15.9994           0
     25402 TIP3     4307     TIP3     H1       HT       0.417000       1.00800           0
     25403 TIP3     4307     TIP3     H2       HT       0.417000       1.00800           0
     25404 TIP3     4308     TIP3     OH2      OT      -0.834000       15.9994           0
     25405 TIP3     4308     TIP3     H1       HT       0.417000       1.00800           0
     25406 TIP3     4308     TIP3     H2       HT       0.417000       1.00800           0
     25407 TIP3     4309     TIP3     OH2      OT      -0.834000       15.9994           0
     25408 TIP3     4309     TIP3     H1       HT       0.417000       1.00800           0
     25409 TIP3     4309     TIP3     H2       HT       0.417000       1.00800           0
     25410 TIP3     4310     TIP3     OH2      OT      -0.834000       15.9994           0
     25411 TIP3     4310     TIP3     H1       HT       0.417000       1.00800           0
     25412 TIP3     4310     TIP3     H2       HT       0.417000       1.00800           0
     25413 TIP3     4311     TIP3     OH2      OT      -0.834000       15.9994           0
     25414 TIP3     4311     TIP3     H1       HT       0.417000       1.00800           0
     25415 TIP3     4311     TIP3     H2       HT       0.417000       1.00800           0
     25416 TIP3     4312     TIP3     OH2      OT      -0.834000       15.9994           0
     25417 TIP3     4312     TIP3     H1       HT       0.417000       1.00800           0
     25418 TIP3     4312     TIP3     H2       HT       0.417000       1.00800           0
     25419 TIP3     4313     TIP3     OH2      OT      -0.834000       15.9994           0
     25420 TIP3     4313     TIP3     H1       HT       0.417000       1.00800           0
     25421 TIP3     4313     TIP3     H2       HT       0.417000       1.00800           0
     25422 TIP3     4314     TIP3     OH2      OT      -0.834000       15.9994           0
     25423 TIP3     4314     TIP3     H1       HT       0.417000       1.00800           0
     25424 TIP3     4314     TIP3     H2       HT       0.417000       1.00800           0
     25425 TIP3     4315     TIP3     OH2      OT      -0.834000       15.9994           0
     25426 TIP3     4315     TIP3     H1       HT       0.417000       1.00800           0
     25427 TIP3     4315     TIP3     H2       HT       0.417000       1.00800           0
     25428 TIP3     4316     TIP3     OH2      OT      -0.834000       15.9994           0
     25429 TIP3     4316     TIP3     H1       HT       0.417000       1.00800           0
     25430 TIP3     4316     TIP3     H2       HT       0.417000       1.00800           0
     25431 TIP3     4317     TIP3     OH2      OT      -0.834000       15.9994           0
     25432 TIP3     4317     TIP3     H1       HT       0.417000       1.00800           0
     25433 TIP3     4317     TIP3     H2       HT       0.417000       1.00800           0
     25434 TIP3     4318     TIP3     OH2      OT      -0.834000       15.9994           0
     25435 TIP3     4318     TIP3     H1       HT       0.417000       1.00800           0
     25436 TIP3     4318     TIP3     H2       HT       0.417000       1.00800           0
     25437 TIP3     4319     TIP3     OH2      OT      -0.834000       15.9994           0
     25438 TIP3     4319     TIP3     H1       HT       0.417000       1.00800           0
     25439 TIP3     4319     TIP3     H2       HT       0.417000       1.00800           0
     25440 TIP3     4320     TIP3     OH2      OT      -0.834000       15.9994           0
     25441 TIP3     4320     TIP3     H1       HT       0.417000       1.00800           0
     25442 TIP3     4320     TIP3     H2       HT       0.417000       1.00800           0
     25443 TIP3     4321     TIP3     OH2      OT      -0.834000       15.9994           0
     25444 TIP3     4321     TIP3     H1       HT       0.417000       1.00800           0
     25445 TIP3     4321     TIP3     H2       HT       0.417000       1.00800           0
     25446 TIP3     4322     TIP3     OH2      OT      -0.834000       15.9994           0
     25447 TIP3     4322     TIP3     H1       HT       0.417000       1.00800           0
     25448 TIP3     4322     TIP3     H2       HT       0.417000       1.00800           0
     25449 TIP3     4323     TIP3     OH2      OT      -0.834000       15.9994           0
     25450 TIP3     4323     TIP3     H1       HT       0.417000       1.00800           0
     25451 TIP3     4323     TIP3     H2       HT       0.417000       1.00800           0
     25452 TIP3     4324     TIP3     OH2      OT      -0.834000       15.9994           0
     25453 TIP3     4324     TIP3     H1       HT       0.417000       1.00800           0
     25454 TIP3     4324     TIP3     H2       HT       0.417000       1.00800           0
     25455 TIP3     4325     TIP3     OH2      OT      -0.834000       15.9994           0
     25456 TIP3     4325     TIP3     H1       HT       0.417000       1.00800           0
     25457 TIP3     4325     TIP3     H2       HT       0.417000       1.00800           0
     25458 TIP3     4326     TIP3     OH2      OT      -0.834000       15.9994           0
     25459 TIP3     4326     TIP3     H1       HT       0.417000       1.00800           0
     25460 TIP3     4326     TIP3     H2       HT       0.417000       1.00800           0
     25461 TIP3     4327     TIP3     OH2      OT      -0.834000       15.9994           0
     25462 TIP3     4327     TIP3     H1       HT       0.417000       1.00800           0
     25463 TIP3     4327     TIP3     H2       HT       0.417000       1.00800           0
     25464 TIP3     4328     TIP3     OH2      OT      -0.834000       15.9994           0
     25465 TIP3     4328     TIP3     H1       HT       0.417000       1.00800           0
     25466 TIP3     4328     TIP3     H2       HT       0.417000       1.00800           0
     25467 TIP3     4329     TIP3     OH2      OT      -0.834000       15.9994           0
     25468 TIP3     4329     TIP3     H1       HT       0.417000       1.00800           0
     25469 TIP3     4329     TIP3     H2       HT       0.417000       1.00800           0
     25470 TIP3     4330     TIP3     OH2      OT      -0.834000       15.9994           0
     25471 TIP3     4330     TIP3     H1       HT       0.417000       1.00800           0
     25472 TIP3     4330     TIP3     H2       HT       0.417000       1.00800           0
     25473 TIP3     4331     TIP3     OH2      OT      -0.834000       15.9994           0
     25474 TIP3     4331     TIP3     H1       HT       0.417000       1.00800           0
     25475 TIP3     4331     TIP3     H2       HT       0.417000       1.00800           0
     25476 TIP3     4332     TIP3     OH2      OT      -0.834000       15.9994           0
     25477 TIP3     4332     TIP3     H1       HT       0.417000       1.00800           0
     25478 TIP3     4332     TIP3     H2       HT       0.417000       1.00800           0
     25479 TIP3     4333     TIP3     OH2      OT      -0.834000       15.9994           0
     25480 TIP3     4333     TIP3     H1       HT       0.417000       1.00800           0
     25481 TIP3     4333     TIP3     H2       HT       0.417000       1.00800           0
     25482 TIP3     4334     TIP3     OH2      OT      -0.834000       15.9994           0
     25483 TIP3     4334     TIP3     H1       HT       0.417000       1.00800           0
     25484 TIP3     4334     TIP3     H2       HT       0.417000       1.00800           0
     25485 TIP3     4335     TIP3     OH2      OT      -0.834000       15.9994           0
     25486 TIP3     4335     TIP3     H1       HT       0.417000       1.00800           0
     25487 TIP3     4335     TIP3     H2       HT       0.417000       1.00800           0
     25488 TIP3     4336     TIP3     OH2      OT      -0.834000       15.9994           0
     25489 TIP3     4336     TIP3     H1       HT       0.417000       1.00800           0
     25490 TIP3     4336     TIP3     H2       HT       0.417000       1.00800           0
     25491 TIP3     4337     TIP3     OH2      OT      -0.834000       15.9994           0
     25492 TIP3     4337     TIP3     H1       HT       0.417000       1.00800           0
     25493 TIP3     4337     TIP3     H2       HT       0.417000       1.00800           0
     25494 TIP3     4338     TIP3     OH2      OT      -0.834000       15.9994           0
     25495 TIP3     4338     TIP3     H1       HT       0.417000       1.00800           0
     25496 TIP3     4338     TIP3     H2       HT       0.417000       1.00800           0
     25497 TIP3     4339     TIP3     OH2      OT      -0.834000       15.9994           0
     25498 TIP3     4339     TIP3     H1       HT       0.417000       1.00800           0
     25499 TIP3     4339     TIP3     H2       HT       0.417000       1.00800           0
     25500 TIP3     4340     TIP3     OH2      OT      -0.834000       15.9994           0
     25501 TIP3     4340     TIP3     H1       HT       0.417000       1.00800           0
     25502 TIP3     4340     TIP3     H2       HT       0.417000       1.00800           0
     25503 TIP3     4341     TIP3     OH2      OT      -0.834000       15.9994           0
     25504 TIP3     4341     TIP3     H1       HT       0.417000       1.00800           0
     25505 TIP3     4341     TIP3     H2       HT       0.417000       1.00800           0
     25506 TIP3     4342     TIP3     OH2      OT      -0.834000       15.9994           0
     25507 TIP3     4342     TIP3     H1       HT       0.417000       1.00800           0
     25508 TIP3     4342     TIP3     H2       HT       0.417000       1.00800           0
     25509 TIP3     4343     TIP3     OH2      OT      -0.834000       15.9994           0
     25510 TIP3     4343     TIP3     H1       HT       0.417000       1.00800           0
     25511 TIP3     4343     TIP3     H2       HT       0.417000       1.00800           0
     25512 TIP3     4344     TIP3     OH2      OT      -0.834000       15.9994           0
     25513 TIP3     4344     TIP3     H1       HT       0.417000       1.00800           0
     25514 TIP3     4344     TIP3     H2       HT       0.417000       1.00800           0
     25515 TIP3     4345     TIP3     OH2      OT      -0.834000       15.9994           0
     25516 TIP3     4345     TIP3     H1       HT       0.417000       1.00800           0
     25517 TIP3     4345     TIP3     H2       HT       0.417000       1.00800           0
     25518 TIP3     4346     TIP3     OH2      OT      -0.834000       15.9994           0
     25519 TIP3     4346     TIP3     H1       HT       0.417000       1.00800           0
     25520 TIP3     4346     TIP3     H2       HT       0.417000       1.00800           0
     25521 TIP3     4347     TIP3     OH2      OT      -0.834000       15.9994           0
     25522 TIP3     4347     TIP3     H1       HT       0.417000       1.00800           0
     25523 TIP3     4347     TIP3     H2       HT       0.417000       1.00800           0
     25524 TIP3     4348     TIP3     OH2      OT      -0.834000       15.9994           0
     25525 TIP3     4348     TIP3     H1       HT       0.417000       1.00800           0
     25526 TIP3     4348     TIP3     H2       HT       0.417000       1.00800           0
     25527 TIP3     4349     TIP3     OH2      OT      -0.834000       15.9994           0
     25528 TIP3     4349     TIP3     H1       HT       0.417000       1.00800           0
     25529 TIP3     4349     TIP3     H2       HT       0.417000       1.00800           0
     25530 TIP3     4350     TIP3     OH2      OT      -0.834000       15.9994           0
     25531 TIP3     4350     TIP3     H1       HT       0.417000       1.00800           0
     25532 TIP3     4350     TIP3     H2       HT       0.417000       1.00800           0
     25533 TIP3     4351     TIP3     OH2      OT      -0.834000       15.9994           0
     25534 TIP3     4351     TIP3     H1       HT       0.417000       1.00800           0
     25535 TIP3     4351     TIP3     H2       HT       0.417000       1.00800           0
     25536 TIP3     4352     TIP3     OH2      OT      -0.834000       15.9994           0
     25537 TIP3     4352     TIP3     H1       HT       0.417000       1.00800           0
     25538 TIP3     4352     TIP3     H2       HT       0.417000       1.00800           0
     25539 TIP3     4353     TIP3     OH2      OT      -0.834000       15.9994           0
     25540 TIP3     4353     TIP3     H1       HT       0.417000       1.00800           0
     25541 TIP3     4353     TIP3     H2       HT       0.417000       1.00800           0
     25542 TIP3     4354     TIP3     OH2      OT      -0.834000       15.9994           0
     25543 TIP3     4354     TIP3     H1       HT       0.417000       1.00800           0
     25544 TIP3     4354     TIP3     H2       HT       0.417000       1.00800           0
     25545 TIP3     4355     TIP3     OH2      OT      -0.834000       15.9994           0
     25546 TIP3     4355     TIP3     H1       HT       0.417000       1.00800           0
     25547 TIP3     4355     TIP3     H2       HT       0.417000       1.00800           0
     25548 TIP3     4356     TIP3     OH2      OT      -0.834000       15.9994           0
     25549 TIP3     4356     TIP3     H1       HT       0.417000       1.00800           0
     25550 TIP3     4356     TIP3     H2       HT       0.417000       1.00800           0
     25551 TIP3     4357     TIP3     OH2      OT      -0.834000       15.9994           0
     25552 TIP3     4357     TIP3     H1       HT       0.417000       1.00800           0
     25553 TIP3     4357     TIP3     H2       HT       0.417000       1.00800           0
     25554 TIP3     4358     TIP3     OH2      OT      -0.834000       15.9994           0
     25555 TIP3     4358     TIP3     H1       HT       0.417000       1.00800           0
     25556 TIP3     4358     TIP3     H2       HT       0.417000       1.00800           0
     25557 TIP3     4359     TIP3     OH2      OT      -0.834000       15.9994           0
     25558 TIP3     4359     TIP3     H1       HT       0.417000       1.00800           0
     25559 TIP3     4359     TIP3     H2       HT       0.417000       1.00800           0
     25560 TIP3     4360     TIP3     OH2      OT      -0.834000       15.9994           0
     25561 TIP3     4360     TIP3     H1       HT       0.417000       1.00800           0
     25562 TIP3     4360     TIP3     H2       HT       0.417000       1.00800           0
     25563 TIP3     4361     TIP3     OH2      OT      -0.834000       15.9994           0
     25564 TIP3     4361     TIP3     H1       HT       0.417000       1.00800           0
     25565 TIP3     4361     TIP3     H2       HT       0.417000       1.00800           0
     25566 TIP3     4362     TIP3     OH2      OT      -0.834000       15.9994           0
     25567 TIP3     4362     TIP3     H1       HT       0.417000       1.00800           0
     25568 TIP3     4362     TIP3     H2       HT       0.417000       1.00800           0
     25569 TIP3     4363     TIP3     OH2      OT      -0.834000       15.9994           0
     25570 TIP3     4363     TIP3     H1       HT       0.417000       1.00800           0
     25571 TIP3     4363     TIP3     H2       HT       0.417000       1.00800           0
     25572 TIP3     4364     TIP3     OH2      OT      -0.834000       15.9994           0
     25573 TIP3     4364     TIP3     H1       HT       0.417000       1.00800           0
     25574 TIP3     4364     TIP3     H2       HT       0.417000       1.00800           0
     25575 TIP3     4365     TIP3     OH2      OT      -0.834000       15.9994           0
     25576 TIP3     4365     TIP3     H1       HT       0.417000       1.00800           0
     25577 TIP3     4365     TIP3     H2       HT       0.417000       1.00800           0
     25578 TIP3     4366     TIP3     OH2      OT      -0.834000       15.9994           0
     25579 TIP3     4366     TIP3     H1       HT       0.417000       1.00800           0
     25580 TIP3     4366     TIP3     H2       HT       0.417000       1.00800           0
     25581 TIP3     4367     TIP3     OH2      OT      -0.834000       15.9994           0
     25582 TIP3     4367     TIP3     H1       HT       0.417000       1.00800           0
     25583 TIP3     4367     TIP3     H2       HT       0.417000       1.00800           0
     25584 TIP3     4368     TIP3     OH2      OT      -0.834000       15.9994           0
     25585 TIP3     4368     TIP3     H1       HT       0.417000       1.00800           0
     25586 TIP3     4368     TIP3     H2       HT       0.417000       1.00800           0
     25587 TIP3     4369     TIP3     OH2      OT      -0.834000       15.9994           0
     25588 TIP3     4369     TIP3     H1       HT       0.417000       1.00800           0
     25589 TIP3     4369     TIP3     H2       HT       0.417000       1.00800           0
     25590 TIP3     4370     TIP3     OH2      OT      -0.834000       15.9994           0
     25591 TIP3     4370     TIP3     H1       HT       0.417000       1.00800           0
     25592 TIP3     4370     TIP3     H2       HT       0.417000       1.00800           0
     25593 TIP3     4371     TIP3     OH2      OT      -0.834000       15.9994           0
     25594 TIP3     4371     TIP3     H1       HT       0.417000       1.00800           0
     25595 TIP3     4371     TIP3     H2       HT       0.417000       1.00800           0
     25596 TIP3     4372     TIP3     OH2      OT      -0.834000       15.9994           0
     25597 TIP3     4372     TIP3     H1       HT       0.417000       1.00800           0
     25598 TIP3     4372     TIP3     H2       HT       0.417000       1.00800           0
     25599 TIP3     4373     TIP3     OH2      OT      -0.834000       15.9994           0
     25600 TIP3     4373     TIP3     H1       HT       0.417000       1.00800           0
     25601 TIP3     4373     TIP3     H2       HT       0.417000       1.00800           0
     25602 TIP3     4374     TIP3     OH2      OT      -0.834000       15.9994           0
     25603 TIP3     4374     TIP3     H1       HT       0.417000       1.00800           0
     25604 TIP3     4374     TIP3     H2       HT       0.417000       1.00800           0
     25605 TIP3     4375     TIP3     OH2      OT      -0.834000       15.9994           0
     25606 TIP3     4375     TIP3     H1       HT       0.417000       1.00800           0
     25607 TIP3     4375     TIP3     H2       HT       0.417000       1.00800           0
     25608 TIP3     4376     TIP3     OH2      OT      -0.834000       15.9994           0
     25609 TIP3     4376     TIP3     H1       HT       0.417000       1.00800           0
     25610 TIP3     4376     TIP3     H2       HT       0.417000       1.00800           0
     25611 TIP3     4377     TIP3     OH2      OT      -0.834000       15.9994           0
     25612 TIP3     4377     TIP3     H1       HT       0.417000       1.00800           0
     25613 TIP3     4377     TIP3     H2       HT       0.417000       1.00800           0
     25614 TIP3     4378     TIP3     OH2      OT      -0.834000       15.9994           0
     25615 TIP3     4378     TIP3     H1       HT       0.417000       1.00800           0
     25616 TIP3     4378     TIP3     H2       HT       0.417000       1.00800           0
     25617 TIP3     4379     TIP3     OH2      OT      -0.834000       15.9994           0
     25618 TIP3     4379     TIP3     H1       HT       0.417000       1.00800           0
     25619 TIP3     4379     TIP3     H2       HT       0.417000       1.00800           0
     25620 TIP3     4380     TIP3     OH2      OT      -0.834000       15.9994           0
     25621 TIP3     4380     TIP3     H1       HT       0.417000       1.00800           0
     25622 TIP3     4380     TIP3     H2       HT       0.417000       1.00800           0
     25623 TIP3     4381     TIP3     OH2      OT      -0.834000       15.9994           0
     25624 TIP3     4381     TIP3     H1       HT       0.417000       1.00800           0
     25625 TIP3     4381     TIP3     H2       HT       0.417000       1.00800           0
     25626 TIP3     4382     TIP3     OH2      OT      -0.834000       15.9994           0
     25627 TIP3     4382     TIP3     H1       HT       0.417000       1.00800           0
     25628 TIP3     4382     TIP3     H2       HT       0.417000       1.00800           0
     25629 TIP3     4383     TIP3     OH2      OT      -0.834000       15.9994           0
     25630 TIP3     4383     TIP3     H1       HT       0.417000       1.00800           0
     25631 TIP3     4383     TIP3     H2       HT       0.417000       1.00800           0
     25632 TIP3     4384     TIP3     OH2      OT      -0.834000       15.9994           0
     25633 TIP3     4384     TIP3     H1       HT       0.417000       1.00800           0
     25634 TIP3     4384     TIP3     H2       HT       0.417000       1.00800           0
     25635 TIP3     4385     TIP3     OH2      OT      -0.834000       15.9994           0
     25636 TIP3     4385     TIP3     H1       HT       0.417000       1.00800           0
     25637 TIP3     4385     TIP3     H2       HT       0.417000       1.00800           0
     25638 TIP3     4386     TIP3     OH2      OT      -0.834000       15.9994           0
     25639 TIP3     4386     TIP3     H1       HT       0.417000       1.00800           0
     25640 TIP3     4386     TIP3     H2       HT       0.417000       1.00800           0
     25641 TIP3     4387     TIP3     OH2      OT      -0.834000       15.9994           0
     25642 TIP3     4387     TIP3     H1       HT       0.417000       1.00800           0
     25643 TIP3     4387     TIP3     H2       HT       0.417000       1.00800           0
     25644 TIP3     4388     TIP3     OH2      OT      -0.834000       15.9994           0
     25645 TIP3     4388     TIP3     H1       HT       0.417000       1.00800           0
     25646 TIP3     4388     TIP3     H2       HT       0.417000       1.00800           0
     25647 TIP3     4389     TIP3     OH2      OT      -0.834000       15.9994           0
     25648 TIP3     4389     TIP3     H1       HT       0.417000       1.00800           0
     25649 TIP3     4389     TIP3     H2       HT       0.417000       1.00800           0
     25650 TIP3     4390     TIP3     OH2      OT      -0.834000       15.9994           0
     25651 TIP3     4390     TIP3     H1       HT       0.417000       1.00800           0
     25652 TIP3     4390     TIP3     H2       HT       0.417000       1.00800           0
     25653 TIP3     4391     TIP3     OH2      OT      -0.834000       15.9994           0
     25654 TIP3     4391     TIP3     H1       HT       0.417000       1.00800           0
     25655 TIP3     4391     TIP3     H2       HT       0.417000       1.00800           0
     25656 TIP3     4392     TIP3     OH2      OT      -0.834000       15.9994           0
     25657 TIP3     4392     TIP3     H1       HT       0.417000       1.00800           0
     25658 TIP3     4392     TIP3     H2       HT       0.417000       1.00800           0
     25659 TIP3     4393     TIP3     OH2      OT      -0.834000       15.9994           0
     25660 TIP3     4393     TIP3     H1       HT       0.417000       1.00800           0
     25661 TIP3     4393     TIP3     H2       HT       0.417000       1.00800           0
     25662 TIP3     4394     TIP3     OH2      OT      -0.834000       15.9994           0
     25663 TIP3     4394     TIP3     H1       HT       0.417000       1.00800           0
     25664 TIP3     4394     TIP3     H2       HT       0.417000       1.00800           0
     25665 TIP3     4395     TIP3     OH2      OT      -0.834000       15.9994           0
     25666 TIP3     4395     TIP3     H1       HT       0.417000       1.00800           0
     25667 TIP3     4395     TIP3     H2       HT       0.417000       1.00800           0
     25668 TIP3     4396     TIP3     OH2      OT      -0.834000       15.9994           0
     25669 TIP3     4396     TIP3     H1       HT       0.417000       1.00800           0
     25670 TIP3     4396     TIP3     H2       HT       0.417000       1.00800           0
     25671 TIP3     4397     TIP3     OH2      OT      -0.834000       15.9994           0
     25672 TIP3     4397     TIP3     H1       HT       0.417000       1.00800           0
     25673 TIP3     4397     TIP3     H2       HT       0.417000       1.00800           0
     25674 TIP3     4398     TIP3     OH2      OT      -0.834000       15.9994           0
     25675 TIP3     4398     TIP3     H1       HT       0.417000       1.00800           0
     25676 TIP3     4398     TIP3     H2       HT       0.417000       1.00800           0
     25677 TIP3     4399     TIP3     OH2      OT      -0.834000       15.9994           0
     25678 TIP3     4399     TIP3     H1       HT       0.417000       1.00800           0
     25679 TIP3     4399     TIP3     H2       HT       0.417000       1.00800           0
     25680 TIP3     4400     TIP3     OH2      OT      -0.834000       15.9994           0
     25681 TIP3     4400     TIP3     H1       HT       0.417000       1.00800           0
     25682 TIP3     4400     TIP3     H2       HT       0.417000       1.00800           0
     25683 TIP3     4401     TIP3     OH2      OT      -0.834000       15.9994           0
     25684 TIP3     4401     TIP3     H1       HT       0.417000       1.00800           0
     25685 TIP3     4401     TIP3     H2       HT       0.417000       1.00800           0
     25686 TIP3     4402     TIP3     OH2      OT      -0.834000       15.9994           0
     25687 TIP3     4402     TIP3     H1       HT       0.417000       1.00800           0
     25688 TIP3     4402     TIP3     H2       HT       0.417000       1.00800           0
     25689 TIP3     4403     TIP3     OH2      OT      -0.834000       15.9994           0
     25690 TIP3     4403     TIP3     H1       HT       0.417000       1.00800           0
     25691 TIP3     4403     TIP3     H2       HT       0.417000       1.00800           0
     25692 TIP3     4404     TIP3     OH2      OT      -0.834000       15.9994           0
     25693 TIP3     4404     TIP3     H1       HT       0.417000       1.00800           0
     25694 TIP3     4404     TIP3     H2       HT       0.417000       1.00800           0
     25695 TIP3     4405     TIP3     OH2      OT      -0.834000       15.9994           0
     25696 TIP3     4405     TIP3     H1       HT       0.417000       1.00800           0
     25697 TIP3     4405     TIP3     H2       HT       0.417000       1.00800           0
     25698 TIP3     4406     TIP3     OH2      OT      -0.834000       15.9994           0
     25699 TIP3     4406     TIP3     H1       HT       0.417000       1.00800           0
     25700 TIP3     4406     TIP3     H2       HT       0.417000       1.00800           0
     25701 TIP3     4407     TIP3     OH2      OT      -0.834000       15.9994           0
     25702 TIP3     4407     TIP3     H1       HT       0.417000       1.00800           0
     25703 TIP3     4407     TIP3     H2       HT       0.417000       1.00800           0
     25704 TIP3     4408     TIP3     OH2      OT      -0.834000       15.9994           0
     25705 TIP3     4408     TIP3     H1       HT       0.417000       1.00800           0
     25706 TIP3     4408     TIP3     H2       HT       0.417000       1.00800           0
     25707 TIP3     4409     TIP3     OH2      OT      -0.834000       15.9994           0
     25708 TIP3     4409     TIP3     H1       HT       0.417000       1.00800           0
     25709 TIP3     4409     TIP3     H2       HT       0.417000       1.00800           0
     25710 TIP3     4410     TIP3     OH2      OT      -0.834000       15.9994           0
     25711 TIP3     4410     TIP3     H1       HT       0.417000       1.00800           0
     25712 TIP3     4410     TIP3     H2       HT       0.417000       1.00800           0
     25713 TIP3     4411     TIP3     OH2      OT      -0.834000       15.9994           0
     25714 TIP3     4411     TIP3     H1       HT       0.417000       1.00800           0
     25715 TIP3     4411     TIP3     H2       HT       0.417000       1.00800           0
     25716 TIP3     4412     TIP3     OH2      OT      -0.834000       15.9994           0
     25717 TIP3     4412     TIP3     H1       HT       0.417000       1.00800           0
     25718 TIP3     4412     TIP3     H2       HT       0.417000       1.00800           0
     25719 TIP3     4413     TIP3     OH2      OT      -0.834000       15.9994           0
     25720 TIP3     4413     TIP3     H1       HT       0.417000       1.00800           0
     25721 TIP3     4413     TIP3     H2       HT       0.417000       1.00800           0
     25722 TIP3     4414     TIP3     OH2      OT      -0.834000       15.9994           0
     25723 TIP3     4414     TIP3     H1       HT       0.417000       1.00800           0
     25724 TIP3     4414     TIP3     H2       HT       0.417000       1.00800           0
     25725 TIP3     4415     TIP3     OH2      OT      -0.834000       15.9994           0
     25726 TIP3     4415     TIP3     H1       HT       0.417000       1.00800           0
     25727 TIP3     4415     TIP3     H2       HT       0.417000       1.00800           0
     25728 TIP3     4416     TIP3     OH2      OT      -0.834000       15.9994           0
     25729 TIP3     4416     TIP3     H1       HT       0.417000       1.00800           0
     25730 TIP3     4416     TIP3     H2       HT       0.417000       1.00800           0
     25731 TIP3     4417     TIP3     OH2      OT      -0.834000       15.9994           0
     25732 TIP3     4417     TIP3     H1       HT       0.417000       1.00800           0
     25733 TIP3     4417     TIP3     H2       HT       0.417000       1.00800           0
     25734 TIP3     4418     TIP3     OH2      OT      -0.834000       15.9994           0
     25735 TIP3     4418     TIP3     H1       HT       0.417000       1.00800           0
     25736 TIP3     4418     TIP3     H2       HT       0.417000       1.00800           0
     25737 TIP3     4419     TIP3     OH2      OT      -0.834000       15.9994           0
     25738 TIP3     4419     TIP3     H1       HT       0.417000       1.00800           0
     25739 TIP3     4419     TIP3     H2       HT       0.417000       1.00800           0
     25740 TIP3     4420     TIP3     OH2      OT      -0.834000       15.9994           0
     25741 TIP3     4420     TIP3     H1       HT       0.417000       1.00800           0
     25742 TIP3     4420     TIP3     H2       HT       0.417000       1.00800           0
     25743 TIP3     4421     TIP3     OH2      OT      -0.834000       15.9994           0
     25744 TIP3     4421     TIP3     H1       HT       0.417000       1.00800           0
     25745 TIP3     4421     TIP3     H2       HT       0.417000       1.00800           0
     25746 TIP3     4422     TIP3     OH2      OT      -0.834000       15.9994           0
     25747 TIP3     4422     TIP3     H1       HT       0.417000       1.00800           0
     25748 TIP3     4422     TIP3     H2       HT       0.417000       1.00800           0
     25749 TIP3     4423     TIP3     OH2      OT      -0.834000       15.9994           0
     25750 TIP3     4423     TIP3     H1       HT       0.417000       1.00800           0
     25751 TIP3     4423     TIP3     H2       HT       0.417000       1.00800           0
     25752 TIP3     4424     TIP3     OH2      OT      -0.834000       15.9994           0
     25753 TIP3     4424     TIP3     H1       HT       0.417000       1.00800           0
     25754 TIP3     4424     TIP3     H2       HT       0.417000       1.00800           0
     25755 TIP3     4425     TIP3     OH2      OT      -0.834000       15.9994           0
     25756 TIP3     4425     TIP3     H1       HT       0.417000       1.00800           0
     25757 TIP3     4425     TIP3     H2       HT       0.417000       1.00800           0
     25758 TIP3     4426     TIP3     OH2      OT      -0.834000       15.9994           0
     25759 TIP3     4426     TIP3     H1       HT       0.417000       1.00800           0
     25760 TIP3     4426     TIP3     H2       HT       0.417000       1.00800           0
     25761 TIP3     4427     TIP3     OH2      OT      -0.834000       15.9994           0
     25762 TIP3     4427     TIP3     H1       HT       0.417000       1.00800           0
     25763 TIP3     4427     TIP3     H2       HT       0.417000       1.00800           0
     25764 TIP3     4428     TIP3     OH2      OT      -0.834000       15.9994           0
     25765 TIP3     4428     TIP3     H1       HT       0.417000       1.00800           0
     25766 TIP3     4428     TIP3     H2       HT       0.417000       1.00800           0
     25767 TIP3     4429     TIP3     OH2      OT      -0.834000       15.9994           0
     25768 TIP3     4429     TIP3     H1       HT       0.417000       1.00800           0
     25769 TIP3     4429     TIP3     H2       HT       0.417000       1.00800           0
     25770 TIP3     4430     TIP3     OH2      OT      -0.834000       15.9994           0
     25771 TIP3     4430     TIP3     H1       HT       0.417000       1.00800           0
     25772 TIP3     4430     TIP3     H2       HT       0.417000       1.00800           0
     25773 TIP3     4431     TIP3     OH2      OT      -0.834000       15.9994           0
     25774 TIP3     4431     TIP3     H1       HT       0.417000       1.00800           0
     25775 TIP3     4431     TIP3     H2       HT       0.417000       1.00800           0
     25776 TIP3     4432     TIP3     OH2      OT      -0.834000       15.9994           0
     25777 TIP3     4432     TIP3     H1       HT       0.417000       1.00800           0
     25778 TIP3     4432     TIP3     H2       HT       0.417000       1.00800           0
     25779 TIP3     4433     TIP3     OH2      OT      -0.834000       15.9994           0
     25780 TIP3     4433     TIP3     H1       HT       0.417000       1.00800           0
     25781 TIP3     4433     TIP3     H2       HT       0.417000       1.00800           0
     25782 TIP3     4434     TIP3     OH2      OT      -0.834000       15.9994           0
     25783 TIP3     4434     TIP3     H1       HT       0.417000       1.00800           0
     25784 TIP3     4434     TIP3     H2       HT       0.417000       1.00800           0
     25785 TIP3     4435     TIP3     OH2      OT      -0.834000       15.9994           0
     25786 TIP3     4435     TIP3     H1       HT       0.417000       1.00800           0
     25787 TIP3     4435     TIP3     H2       HT       0.417000       1.00800           0
     25788 TIP3     4436     TIP3     OH2      OT      -0.834000       15.9994           0
     25789 TIP3     4436     TIP3     H1       HT       0.417000       1.00800           0
     25790 TIP3     4436     TIP3     H2       HT       0.417000       1.00800           0
     25791 TIP3     4437     TIP3     OH2      OT      -0.834000       15.9994           0
     25792 TIP3     4437     TIP3     H1       HT       0.417000       1.00800           0
     25793 TIP3     4437     TIP3     H2       HT       0.417000       1.00800           0
     25794 TIP3     4438     TIP3     OH2      OT      -0.834000       15.9994           0
     25795 TIP3     4438     TIP3     H1       HT       0.417000       1.00800           0
     25796 TIP3     4438     TIP3     H2       HT       0.417000       1.00800           0
     25797 TIP3     4439     TIP3     OH2      OT      -0.834000       15.9994           0
     25798 TIP3     4439     TIP3     H1       HT       0.417000       1.00800           0
     25799 TIP3     4439     TIP3     H2       HT       0.417000       1.00800           0
     25800 TIP3     4440     TIP3     OH2      OT      -0.834000       15.9994           0
     25801 TIP3     4440     TIP3     H1       HT       0.417000       1.00800           0
     25802 TIP3     4440     TIP3     H2       HT       0.417000       1.00800           0
     25803 TIP3     4441     TIP3     OH2      OT      -0.834000       15.9994           0
     25804 TIP3     4441     TIP3     H1       HT       0.417000       1.00800           0
     25805 TIP3     4441     TIP3     H2       HT       0.417000       1.00800           0
     25806 TIP3     4442     TIP3     OH2      OT      -0.834000       15.9994           0
     25807 TIP3     4442     TIP3     H1       HT       0.417000       1.00800           0
     25808 TIP3     4442     TIP3     H2       HT       0.417000       1.00800           0
     25809 TIP3     4443     TIP3     OH2      OT      -0.834000       15.9994           0
     25810 TIP3     4443     TIP3     H1       HT       0.417000       1.00800           0
     25811 TIP3     4443     TIP3     H2       HT       0.417000       1.00800           0
     25812 TIP3     4444     TIP3     OH2      OT      -0.834000       15.9994           0
     25813 TIP3     4444     TIP3     H1       HT       0.417000       1.00800           0
     25814 TIP3     4444     TIP3     H2       HT       0.417000       1.00800           0
     25815 TIP3     4445     TIP3     OH2      OT      -0.834000       15.9994           0
     25816 TIP3     4445     TIP3     H1       HT       0.417000       1.00800           0
     25817 TIP3     4445     TIP3     H2       HT       0.417000       1.00800           0
     25818 TIP3     4446     TIP3     OH2      OT      -0.834000       15.9994           0
     25819 TIP3     4446     TIP3     H1       HT       0.417000       1.00800           0
     25820 TIP3     4446     TIP3     H2       HT       0.417000       1.00800           0
     25821 TIP3     4447     TIP3     OH2      OT      -0.834000       15.9994           0
     25822 TIP3     4447     TIP3     H1       HT       0.417000       1.00800           0
     25823 TIP3     4447     TIP3     H2       HT       0.417000       1.00800           0
     25824 TIP3     4448     TIP3     OH2      OT      -0.834000       15.9994           0
     25825 TIP3     4448     TIP3     H1       HT       0.417000       1.00800           0
     25826 TIP3     4448     TIP3     H2       HT       0.417000       1.00800           0
     25827 TIP3     4449     TIP3     OH2      OT      -0.834000       15.9994           0
     25828 TIP3     4449     TIP3     H1       HT       0.417000       1.00800           0
     25829 TIP3     4449     TIP3     H2       HT       0.417000       1.00800           0
     25830 TIP3     4450     TIP3     OH2      OT      -0.834000       15.9994           0
     25831 TIP3     4450     TIP3     H1       HT       0.417000       1.00800           0
     25832 TIP3     4450     TIP3     H2       HT       0.417000       1.00800           0
     25833 TIP3     4451     TIP3     OH2      OT      -0.834000       15.9994           0
     25834 TIP3     4451     TIP3     H1       HT       0.417000       1.00800           0
     25835 TIP3     4451     TIP3     H2       HT       0.417000       1.00800           0
     25836 TIP3     4452     TIP3     OH2      OT      -0.834000       15.9994           0
     25837 TIP3     4452     TIP3     H1       HT       0.417000       1.00800           0
     25838 TIP3     4452     TIP3     H2       HT       0.417000       1.00800           0
     25839 TIP3     4453     TIP3     OH2      OT      -0.834000       15.9994           0
     25840 TIP3     4453     TIP3     H1       HT       0.417000       1.00800           0
     25841 TIP3     4453     TIP3     H2       HT       0.417000       1.00800           0
     25842 TIP3     4454     TIP3     OH2      OT      -0.834000       15.9994           0
     25843 TIP3     4454     TIP3     H1       HT       0.417000       1.00800           0
     25844 TIP3     4454     TIP3     H2       HT       0.417000       1.00800           0
     25845 TIP3     4455     TIP3     OH2      OT      -0.834000       15.9994           0
     25846 TIP3     4455     TIP3     H1       HT       0.417000       1.00800           0
     25847 TIP3     4455     TIP3     H2       HT       0.417000       1.00800           0
     25848 TIP3     4456     TIP3     OH2      OT      -0.834000       15.9994           0
     25849 TIP3     4456     TIP3     H1       HT       0.417000       1.00800           0
     25850 TIP3     4456     TIP3     H2       HT       0.417000       1.00800           0
     25851 TIP3     4457     TIP3     OH2      OT      -0.834000       15.9994           0
     25852 TIP3     4457     TIP3     H1       HT       0.417000       1.00800           0
     25853 TIP3     4457     TIP3     H2       HT       0.417000       1.00800           0
     25854 TIP3     4458     TIP3     OH2      OT      -0.834000       15.9994           0
     25855 TIP3     4458     TIP3     H1       HT       0.417000       1.00800           0
     25856 TIP3     4458     TIP3     H2       HT       0.417000       1.00800           0
     25857 TIP3     4459     TIP3     OH2      OT      -0.834000       15.9994           0
     25858 TIP3     4459     TIP3     H1       HT       0.417000       1.00800           0
     25859 TIP3     4459     TIP3     H2       HT       0.417000       1.00800           0
     25860 TIP3     4460     TIP3     OH2      OT      -0.834000       15.9994           0
     25861 TIP3     4460     TIP3     H1       HT       0.417000       1.00800           0
     25862 TIP3     4460     TIP3     H2       HT       0.417000       1.00800           0
     25863 TIP3     4461     TIP3     OH2      OT      -0.834000       15.9994           0
     25864 TIP3     4461     TIP3     H1       HT       0.417000       1.00800           0
     25865 TIP3     4461     TIP3     H2       HT       0.417000       1.00800           0
     25866 TIP3     4462     TIP3     OH2      OT      -0.834000       15.9994           0
     25867 TIP3     4462     TIP3     H1       HT       0.417000       1.00800           0
     25868 TIP3     4462     TIP3     H2       HT       0.417000       1.00800           0
     25869 TIP3     4463     TIP3     OH2      OT      -0.834000       15.9994           0
     25870 TIP3     4463     TIP3     H1       HT       0.417000       1.00800           0
     25871 TIP3     4463     TIP3     H2       HT       0.417000       1.00800           0
     25872 TIP3     4464     TIP3     OH2      OT      -0.834000       15.9994           0
     25873 TIP3     4464     TIP3     H1       HT       0.417000       1.00800           0
     25874 TIP3     4464     TIP3     H2       HT       0.417000       1.00800           0
     25875 TIP3     4465     TIP3     OH2      OT      -0.834000       15.9994           0
     25876 TIP3     4465     TIP3     H1       HT       0.417000       1.00800           0
     25877 TIP3     4465     TIP3     H2       HT       0.417000       1.00800           0
     25878 TIP3     4466     TIP3     OH2      OT      -0.834000       15.9994           0
     25879 TIP3     4466     TIP3     H1       HT       0.417000       1.00800           0
     25880 TIP3     4466     TIP3     H2       HT       0.417000       1.00800           0
     25881 TIP3     4467     TIP3     OH2      OT      -0.834000       15.9994           0
     25882 TIP3     4467     TIP3     H1       HT       0.417000       1.00800           0
     25883 TIP3     4467     TIP3     H2       HT       0.417000       1.00800           0
     25884 TIP3     4468     TIP3     OH2      OT      -0.834000       15.9994           0
     25885 TIP3     4468     TIP3     H1       HT       0.417000       1.00800           0
     25886 TIP3     4468     TIP3     H2       HT       0.417000       1.00800           0
     25887 TIP3     4469     TIP3     OH2      OT      -0.834000       15.9994           0
     25888 TIP3     4469     TIP3     H1       HT       0.417000       1.00800           0
     25889 TIP3     4469     TIP3     H2       HT       0.417000       1.00800           0
     25890 TIP3     4470     TIP3     OH2      OT      -0.834000       15.9994           0
     25891 TIP3     4470     TIP3     H1       HT       0.417000       1.00800           0
     25892 TIP3     4470     TIP3     H2       HT       0.417000       1.00800           0
     25893 TIP3     4471     TIP3     OH2      OT      -0.834000       15.9994           0
     25894 TIP3     4471     TIP3     H1       HT       0.417000       1.00800           0
     25895 TIP3     4471     TIP3     H2       HT       0.417000       1.00800           0
     25896 TIP3     4472     TIP3     OH2      OT      -0.834000       15.9994           0
     25897 TIP3     4472     TIP3     H1       HT       0.417000       1.00800           0
     25898 TIP3     4472     TIP3     H2       HT       0.417000       1.00800           0
     25899 TIP3     4473     TIP3     OH2      OT      -0.834000       15.9994           0
     25900 TIP3     4473     TIP3     H1       HT       0.417000       1.00800           0
     25901 TIP3     4473     TIP3     H2       HT       0.417000       1.00800           0
     25902 TIP3     4474     TIP3     OH2      OT      -0.834000       15.9994           0
     25903 TIP3     4474     TIP3     H1       HT       0.417000       1.00800           0
     25904 TIP3     4474     TIP3     H2       HT       0.417000       1.00800           0
     25905 TIP3     4475     TIP3     OH2      OT      -0.834000       15.9994           0
     25906 TIP3     4475     TIP3     H1       HT       0.417000       1.00800           0
     25907 TIP3     4475     TIP3     H2       HT       0.417000       1.00800           0
     25908 TIP3     4476     TIP3     OH2      OT      -0.834000       15.9994           0
     25909 TIP3     4476     TIP3     H1       HT       0.417000       1.00800           0
     25910 TIP3     4476     TIP3     H2       HT       0.417000       1.00800           0
     25911 TIP3     4477     TIP3     OH2      OT      -0.834000       15.9994           0
     25912 TIP3     4477     TIP3     H1       HT       0.417000       1.00800           0
     25913 TIP3     4477     TIP3     H2       HT       0.417000       1.00800           0
     25914 TIP3     4478     TIP3     OH2      OT      -0.834000       15.9994           0
     25915 TIP3     4478     TIP3     H1       HT       0.417000       1.00800           0
     25916 TIP3     4478     TIP3     H2       HT       0.417000       1.00800           0
     25917 TIP3     4479     TIP3     OH2      OT      -0.834000       15.9994           0
     25918 TIP3     4479     TIP3     H1       HT       0.417000       1.00800           0
     25919 TIP3     4479     TIP3     H2       HT       0.417000       1.00800           0
     25920 TIP3     4480     TIP3     OH2      OT      -0.834000       15.9994           0
     25921 TIP3     4480     TIP3     H1       HT       0.417000       1.00800           0
     25922 TIP3     4480     TIP3     H2       HT       0.417000       1.00800           0
     25923 TIP3     4481     TIP3     OH2      OT      -0.834000       15.9994           0
     25924 TIP3     4481     TIP3     H1       HT       0.417000       1.00800           0
     25925 TIP3     4481     TIP3     H2       HT       0.417000       1.00800           0
     25926 TIP3     4482     TIP3     OH2      OT      -0.834000       15.9994           0
     25927 TIP3     4482     TIP3     H1       HT       0.417000       1.00800           0
     25928 TIP3     4482     TIP3     H2       HT       0.417000       1.00800           0
     25929 TIP3     4483     TIP3     OH2      OT      -0.834000       15.9994           0
     25930 TIP3     4483     TIP3     H1       HT       0.417000       1.00800           0
     25931 TIP3     4483     TIP3     H2       HT       0.417000       1.00800           0
     25932 TIP3     4484     TIP3     OH2      OT      -0.834000       15.9994           0
     25933 TIP3     4484     TIP3     H1       HT       0.417000       1.00800           0
     25934 TIP3     4484     TIP3     H2       HT       0.417000       1.00800           0
     25935 TIP3     4485     TIP3     OH2      OT      -0.834000       15.9994           0
     25936 TIP3     4485     TIP3     H1       HT       0.417000       1.00800           0
     25937 TIP3     4485     TIP3     H2       HT       0.417000       1.00800           0
     25938 TIP3     4486     TIP3     OH2      OT      -0.834000       15.9994           0
     25939 TIP3     4486     TIP3     H1       HT       0.417000       1.00800           0
     25940 TIP3     4486     TIP3     H2       HT       0.417000       1.00800           0
     25941 TIP3     4487     TIP3     OH2      OT      -0.834000       15.9994           0
     25942 TIP3     4487     TIP3     H1       HT       0.417000       1.00800           0
     25943 TIP3     4487     TIP3     H2       HT       0.417000       1.00800           0
     25944 TIP3     4488     TIP3     OH2      OT      -0.834000       15.9994           0
     25945 TIP3     4488     TIP3     H1       HT       0.417000       1.00800           0
     25946 TIP3     4488     TIP3     H2       HT       0.417000       1.00800           0
     25947 TIP3     4489     TIP3     OH2      OT      -0.834000       15.9994           0
     25948 TIP3     4489     TIP3     H1       HT       0.417000       1.00800           0
     25949 TIP3     4489     TIP3     H2       HT       0.417000       1.00800           0
     25950 TIP3     4490     TIP3     OH2      OT      -0.834000       15.9994           0
     25951 TIP3     4490     TIP3     H1       HT       0.417000       1.00800           0
     25952 TIP3     4490     TIP3     H2       HT       0.417000       1.00800           0
     25953 TIP3     4491     TIP3     OH2      OT      -0.834000       15.9994           0
     25954 TIP3     4491     TIP3     H1       HT       0.417000       1.00800           0
     25955 TIP3     4491     TIP3     H2       HT       0.417000       1.00800           0
     25956 TIP3     4492     TIP3     OH2      OT      -0.834000       15.9994           0
     25957 TIP3     4492     TIP3     H1       HT       0.417000       1.00800           0
     25958 TIP3     4492     TIP3     H2       HT       0.417000       1.00800           0
     25959 TIP3     4493     TIP3     OH2      OT      -0.834000       15.9994           0
     25960 TIP3     4493     TIP3     H1       HT       0.417000       1.00800           0
     25961 TIP3     4493     TIP3     H2       HT       0.417000       1.00800           0
     25962 TIP3     4494     TIP3     OH2      OT      -0.834000       15.9994           0
     25963 TIP3     4494     TIP3     H1       HT       0.417000       1.00800           0
     25964 TIP3     4494     TIP3     H2       HT       0.417000       1.00800           0
     25965 TIP3     4495     TIP3     OH2      OT      -0.834000       15.9994           0
     25966 TIP3     4495     TIP3     H1       HT       0.417000       1.00800           0
     25967 TIP3     4495     TIP3     H2       HT       0.417000       1.00800           0
     25968 TIP3     4496     TIP3     OH2      OT      -0.834000       15.9994           0
     25969 TIP3     4496     TIP3     H1       HT       0.417000       1.00800           0
     25970 TIP3     4496     TIP3     H2       HT       0.417000       1.00800           0
     25971 TIP3     4497     TIP3     OH2      OT      -0.834000       15.9994           0
     25972 TIP3     4497     TIP3     H1       HT       0.417000       1.00800           0
     25973 TIP3     4497     TIP3     H2       HT       0.417000       1.00800           0
     25974 TIP3     4498     TIP3     OH2      OT      -0.834000       15.9994           0
     25975 TIP3     4498     TIP3     H1       HT       0.417000       1.00800           0
     25976 TIP3     4498     TIP3     H2       HT       0.417000       1.00800           0
     25977 TIP3     4499     TIP3     OH2      OT      -0.834000       15.9994           0
     25978 TIP3     4499     TIP3     H1       HT       0.417000       1.00800           0
     25979 TIP3     4499     TIP3     H2       HT       0.417000       1.00800           0
     25980 TIP3     4500     TIP3     OH2      OT      -0.834000       15.9994           0
     25981 TIP3     4500     TIP3     H1       HT       0.417000       1.00800           0
     25982 TIP3     4500     TIP3     H2       HT       0.417000       1.00800           0
     25983 TIP3     4501     TIP3     OH2      OT      -0.834000       15.9994           0
     25984 TIP3     4501     TIP3     H1       HT       0.417000       1.00800           0
     25985 TIP3     4501     TIP3     H2       HT       0.417000       1.00800           0
     25986 TIP3     4502     TIP3     OH2      OT      -0.834000       15.9994           0
     25987 TIP3     4502     TIP3     H1       HT       0.417000       1.00800           0
     25988 TIP3     4502     TIP3     H2       HT       0.417000       1.00800           0
     25989 TIP3     4503     TIP3     OH2      OT      -0.834000       15.9994           0
     25990 TIP3     4503     TIP3     H1       HT       0.417000       1.00800           0
     25991 TIP3     4503     TIP3     H2       HT       0.417000       1.00800           0
     25992 TIP3     4504     TIP3     OH2      OT      -0.834000       15.9994           0
     25993 TIP3     4504     TIP3     H1       HT       0.417000       1.00800           0
     25994 TIP3     4504     TIP3     H2       HT       0.417000       1.00800           0
     25995 TIP3     4505     TIP3     OH2      OT      -0.834000       15.9994           0
     25996 TIP3     4505     TIP3     H1       HT       0.417000       1.00800           0
     25997 TIP3     4505     TIP3     H2       HT       0.417000       1.00800           0
     25998 TIP3     4506     TIP3     OH2      OT      -0.834000       15.9994           0
     25999 TIP3     4506     TIP3     H1       HT       0.417000       1.00800           0
     26000 TIP3     4506     TIP3     H2       HT       0.417000       1.00800           0
     26001 TIP3     4507     TIP3     OH2      OT      -0.834000       15.9994           0
     26002 TIP3     4507     TIP3     H1       HT       0.417000       1.00800           0
     26003 TIP3     4507     TIP3     H2       HT       0.417000       1.00800           0
     26004 TIP3     4508     TIP3     OH2      OT      -0.834000       15.9994           0
     26005 TIP3     4508     TIP3     H1       HT       0.417000       1.00800           0
     26006 TIP3     4508     TIP3     H2       HT       0.417000       1.00800           0
     26007 TIP3     4509     TIP3     OH2      OT      -0.834000       15.9994           0
     26008 TIP3     4509     TIP3     H1       HT       0.417000       1.00800           0
     26009 TIP3     4509     TIP3     H2       HT       0.417000       1.00800           0
     26010 TIP3     4510     TIP3     OH2      OT      -0.834000       15.9994           0
     26011 TIP3     4510     TIP3     H1       HT       0.417000       1.00800           0
     26012 TIP3     4510     TIP3     H2       HT       0.417000       1.00800           0
     26013 TIP3     4511     TIP3     OH2      OT      -0.834000       15.9994           0
     26014 TIP3     4511     TIP3     H1       HT       0.417000       1.00800           0
     26015 TIP3     4511     TIP3     H2       HT       0.417000       1.00800           0
     26016 TIP3     4512     TIP3     OH2      OT      -0.834000       15.9994           0
     26017 TIP3     4512     TIP3     H1       HT       0.417000       1.00800           0
     26018 TIP3     4512     TIP3     H2       HT       0.417000       1.00800           0
     26019 TIP3     4513     TIP3     OH2      OT      -0.834000       15.9994           0
     26020 TIP3     4513     TIP3     H1       HT       0.417000       1.00800           0
     26021 TIP3     4513     TIP3     H2       HT       0.417000       1.00800           0
     26022 TIP3     4514     TIP3     OH2      OT      -0.834000       15.9994           0
     26023 TIP3     4514     TIP3     H1       HT       0.417000       1.00800           0
     26024 TIP3     4514     TIP3     H2       HT       0.417000       1.00800           0
     26025 TIP3     4515     TIP3     OH2      OT      -0.834000       15.9994           0
     26026 TIP3     4515     TIP3     H1       HT       0.417000       1.00800           0
     26027 TIP3     4515     TIP3     H2       HT       0.417000       1.00800           0
     26028 TIP3     4516     TIP3     OH2      OT      -0.834000       15.9994           0
     26029 TIP3     4516     TIP3     H1       HT       0.417000       1.00800           0
     26030 TIP3     4516     TIP3     H2       HT       0.417000       1.00800           0
     26031 TIP3     4517     TIP3     OH2      OT      -0.834000       15.9994           0
     26032 TIP3     4517     TIP3     H1       HT       0.417000       1.00800           0
     26033 TIP3     4517     TIP3     H2       HT       0.417000       1.00800           0
     26034 TIP3     4518     TIP3     OH2      OT      -0.834000       15.9994           0
     26035 TIP3     4518     TIP3     H1       HT       0.417000       1.00800           0
     26036 TIP3     4518     TIP3     H2       HT       0.417000       1.00800           0
     26037 TIP3     4519     TIP3     OH2      OT      -0.834000       15.9994           0
     26038 TIP3     4519     TIP3     H1       HT       0.417000       1.00800           0
     26039 TIP3     4519     TIP3     H2       HT       0.417000       1.00800           0
     26040 TIP3     4520     TIP3     OH2      OT      -0.834000       15.9994           0
     26041 TIP3     4520     TIP3     H1       HT       0.417000       1.00800           0
     26042 TIP3     4520     TIP3     H2       HT       0.417000       1.00800           0
     26043 TIP3     4521     TIP3     OH2      OT      -0.834000       15.9994           0
     26044 TIP3     4521     TIP3     H1       HT       0.417000       1.00800           0
     26045 TIP3     4521     TIP3     H2       HT       0.417000       1.00800           0
     26046 TIP3     4522     TIP3     OH2      OT      -0.834000       15.9994           0
     26047 TIP3     4522     TIP3     H1       HT       0.417000       1.00800           0
     26048 TIP3     4522     TIP3     H2       HT       0.417000       1.00800           0
     26049 TIP3     4523     TIP3     OH2      OT      -0.834000       15.9994           0
     26050 TIP3     4523     TIP3     H1       HT       0.417000       1.00800           0
     26051 TIP3     4523     TIP3     H2       HT       0.417000       1.00800           0
     26052 TIP3     4524     TIP3     OH2      OT      -0.834000       15.9994           0
     26053 TIP3     4524     TIP3     H1       HT       0.417000       1.00800           0
     26054 TIP3     4524     TIP3     H2       HT       0.417000       1.00800           0
     26055 TIP3     4525     TIP3     OH2      OT      -0.834000       15.9994           0
     26056 TIP3     4525     TIP3     H1       HT       0.417000       1.00800           0
     26057 TIP3     4525     TIP3     H2       HT       0.417000       1.00800           0
     26058 TIP3     4526     TIP3     OH2      OT      -0.834000       15.9994           0
     26059 TIP3     4526     TIP3     H1       HT       0.417000       1.00800           0
     26060 TIP3     4526     TIP3     H2       HT       0.417000       1.00800           0
     26061 TIP3     4527     TIP3     OH2      OT      -0.834000       15.9994           0
     26062 TIP3     4527     TIP3     H1       HT       0.417000       1.00800           0
     26063 TIP3     4527     TIP3     H2       HT       0.417000       1.00800           0
     26064 TIP3     4528     TIP3     OH2      OT      -0.834000       15.9994           0
     26065 TIP3     4528     TIP3     H1       HT       0.417000       1.00800           0
     26066 TIP3     4528     TIP3     H2       HT       0.417000       1.00800           0
     26067 TIP3     4529     TIP3     OH2      OT      -0.834000       15.9994           0
     26068 TIP3     4529     TIP3     H1       HT       0.417000       1.00800           0
     26069 TIP3     4529     TIP3     H2       HT       0.417000       1.00800           0
     26070 TIP3     4530     TIP3     OH2      OT      -0.834000       15.9994           0
     26071 TIP3     4530     TIP3     H1       HT       0.417000       1.00800           0
     26072 TIP3     4530     TIP3     H2       HT       0.417000       1.00800           0
     26073 TIP3     4531     TIP3     OH2      OT      -0.834000       15.9994           0
     26074 TIP3     4531     TIP3     H1       HT       0.417000       1.00800           0
     26075 TIP3     4531     TIP3     H2       HT       0.417000       1.00800           0
     26076 TIP3     4532     TIP3     OH2      OT      -0.834000       15.9994           0
     26077 TIP3     4532     TIP3     H1       HT       0.417000       1.00800           0
     26078 TIP3     4532     TIP3     H2       HT       0.417000       1.00800           0
     26079 TIP3     4533     TIP3     OH2      OT      -0.834000       15.9994           0
     26080 TIP3     4533     TIP3     H1       HT       0.417000       1.00800           0
     26081 TIP3     4533     TIP3     H2       HT       0.417000       1.00800           0
     26082 TIP3     4534     TIP3     OH2      OT      -0.834000       15.9994           0
     26083 TIP3     4534     TIP3     H1       HT       0.417000       1.00800           0
     26084 TIP3     4534     TIP3     H2       HT       0.417000       1.00800           0
     26085 TIP3     4535     TIP3     OH2      OT      -0.834000       15.9994           0
     26086 TIP3     4535     TIP3     H1       HT       0.417000       1.00800           0
     26087 TIP3     4535     TIP3     H2       HT       0.417000       1.00800           0
     26088 TIP3     4536     TIP3     OH2      OT      -0.834000       15.9994           0
     26089 TIP3     4536     TIP3     H1       HT       0.417000       1.00800           0
     26090 TIP3     4536     TIP3     H2       HT       0.417000       1.00800           0
     26091 TIP3     4537     TIP3     OH2      OT      -0.834000       15.9994           0
     26092 TIP3     4537     TIP3     H1       HT       0.417000       1.00800           0
     26093 TIP3     4537     TIP3     H2       HT       0.417000       1.00800           0
     26094 TIP3     4538     TIP3     OH2      OT      -0.834000       15.9994           0
     26095 TIP3     4538     TIP3     H1       HT       0.417000       1.00800           0
     26096 TIP3     4538     TIP3     H2       HT       0.417000       1.00800           0
     26097 TIP3     4539     TIP3     OH2      OT      -0.834000       15.9994           0
     26098 TIP3     4539     TIP3     H1       HT       0.417000       1.00800           0
     26099 TIP3     4539     TIP3     H2       HT       0.417000       1.00800           0
     26100 TIP3     4540     TIP3     OH2      OT      -0.834000       15.9994           0
     26101 TIP3     4540     TIP3     H1       HT       0.417000       1.00800           0
     26102 TIP3     4540     TIP3     H2       HT       0.417000       1.00800           0
     26103 TIP3     4541     TIP3     OH2      OT      -0.834000       15.9994           0
     26104 TIP3     4541     TIP3     H1       HT       0.417000       1.00800           0
     26105 TIP3     4541     TIP3     H2       HT       0.417000       1.00800           0
     26106 TIP3     4542     TIP3     OH2      OT      -0.834000       15.9994           0
     26107 TIP3     4542     TIP3     H1       HT       0.417000       1.00800           0
     26108 TIP3     4542     TIP3     H2       HT       0.417000       1.00800           0
     26109 TIP3     4543     TIP3     OH2      OT      -0.834000       15.9994           0
     26110 TIP3     4543     TIP3     H1       HT       0.417000       1.00800           0
     26111 TIP3     4543     TIP3     H2       HT       0.417000       1.00800           0
     26112 TIP3     4544     TIP3     OH2      OT      -0.834000       15.9994           0
     26113 TIP3     4544     TIP3     H1       HT       0.417000       1.00800           0
     26114 TIP3     4544     TIP3     H2       HT       0.417000       1.00800           0
     26115 TIP3     4545     TIP3     OH2      OT      -0.834000       15.9994           0
     26116 TIP3     4545     TIP3     H1       HT       0.417000       1.00800           0
     26117 TIP3     4545     TIP3     H2       HT       0.417000       1.00800           0
     26118 TIP3     4546     TIP3     OH2      OT      -0.834000       15.9994           0
     26119 TIP3     4546     TIP3     H1       HT       0.417000       1.00800           0
     26120 TIP3     4546     TIP3     H2       HT       0.417000       1.00800           0
     26121 TIP3     4547     TIP3     OH2      OT      -0.834000       15.9994           0
     26122 TIP3     4547     TIP3     H1       HT       0.417000       1.00800           0
     26123 TIP3     4547     TIP3     H2       HT       0.417000       1.00800           0
     26124 TIP3     4548     TIP3     OH2      OT      -0.834000       15.9994           0
     26125 TIP3     4548     TIP3     H1       HT       0.417000       1.00800           0
     26126 TIP3     4548     TIP3     H2       HT       0.417000       1.00800           0
     26127 TIP3     4549     TIP3     OH2      OT      -0.834000       15.9994           0
     26128 TIP3     4549     TIP3     H1       HT       0.417000       1.00800           0
     26129 TIP3     4549     TIP3     H2       HT       0.417000       1.00800           0
     26130 TIP3     4550     TIP3     OH2      OT      -0.834000       15.9994           0
     26131 TIP3     4550     TIP3     H1       HT       0.417000       1.00800           0
     26132 TIP3     4550     TIP3     H2       HT       0.417000       1.00800           0
     26133 TIP3     4551     TIP3     OH2      OT      -0.834000       15.9994           0
     26134 TIP3     4551     TIP3     H1       HT       0.417000       1.00800           0
     26135 TIP3     4551     TIP3     H2       HT       0.417000       1.00800           0
     26136 TIP3     4552     TIP3     OH2      OT      -0.834000       15.9994           0
     26137 TIP3     4552     TIP3     H1       HT       0.417000       1.00800           0
     26138 TIP3     4552     TIP3     H2       HT       0.417000       1.00800           0
     26139 TIP3     4553     TIP3     OH2      OT      -0.834000       15.9994           0
     26140 TIP3     4553     TIP3     H1       HT       0.417000       1.00800           0
     26141 TIP3     4553     TIP3     H2       HT       0.417000       1.00800           0
     26142 TIP3     4554     TIP3     OH2      OT      -0.834000       15.9994           0
     26143 TIP3     4554     TIP3     H1       HT       0.417000       1.00800           0
     26144 TIP3     4554     TIP3     H2       HT       0.417000       1.00800           0
     26145 TIP3     4555     TIP3     OH2      OT      -0.834000       15.9994           0
     26146 TIP3     4555     TIP3     H1       HT       0.417000       1.00800           0
     26147 TIP3     4555     TIP3     H2       HT       0.417000       1.00800           0
     26148 TIP3     4556     TIP3     OH2      OT      -0.834000       15.9994           0
     26149 TIP3     4556     TIP3     H1       HT       0.417000       1.00800           0
     26150 TIP3     4556     TIP3     H2       HT       0.417000       1.00800           0
     26151 TIP3     4557     TIP3     OH2      OT      -0.834000       15.9994           0
     26152 TIP3     4557     TIP3     H1       HT       0.417000       1.00800           0
     26153 TIP3     4557     TIP3     H2       HT       0.417000       1.00800           0
     26154 TIP3     4558     TIP3     OH2      OT      -0.834000       15.9994           0
     26155 TIP3     4558     TIP3     H1       HT       0.417000       1.00800           0
     26156 TIP3     4558     TIP3     H2       HT       0.417000       1.00800           0
     26157 TIP3     4559     TIP3     OH2      OT      -0.834000       15.9994           0
     26158 TIP3     4559     TIP3     H1       HT       0.417000       1.00800           0
     26159 TIP3     4559     TIP3     H2       HT       0.417000       1.00800           0
     26160 TIP3     4560     TIP3     OH2      OT      -0.834000       15.9994           0
     26161 TIP3     4560     TIP3     H1       HT       0.417000       1.00800           0
     26162 TIP3     4560     TIP3     H2       HT       0.417000       1.00800           0
     26163 TIP3     4561     TIP3     OH2      OT      -0.834000       15.9994           0
     26164 TIP3     4561     TIP3     H1       HT       0.417000       1.00800           0
     26165 TIP3     4561     TIP3     H2       HT       0.417000       1.00800           0
     26166 TIP3     4562     TIP3     OH2      OT      -0.834000       15.9994           0
     26167 TIP3     4562     TIP3     H1       HT       0.417000       1.00800           0
     26168 TIP3     4562     TIP3     H2       HT       0.417000       1.00800           0
     26169 TIP3     4563     TIP3     OH2      OT      -0.834000       15.9994           0
     26170 TIP3     4563     TIP3     H1       HT       0.417000       1.00800           0
     26171 TIP3     4563     TIP3     H2       HT       0.417000       1.00800           0
     26172 TIP3     4564     TIP3     OH2      OT      -0.834000       15.9994           0
     26173 TIP3     4564     TIP3     H1       HT       0.417000       1.00800           0
     26174 TIP3     4564     TIP3     H2       HT       0.417000       1.00800           0
     26175 TIP3     4565     TIP3     OH2      OT      -0.834000       15.9994           0
     26176 TIP3     4565     TIP3     H1       HT       0.417000       1.00800           0
     26177 TIP3     4565     TIP3     H2       HT       0.417000       1.00800           0
     26178 TIP3     4566     TIP3     OH2      OT      -0.834000       15.9994           0
     26179 TIP3     4566     TIP3     H1       HT       0.417000       1.00800           0
     26180 TIP3     4566     TIP3     H2       HT       0.417000       1.00800           0
     26181 TIP3     4567     TIP3     OH2      OT      -0.834000       15.9994           0
     26182 TIP3     4567     TIP3     H1       HT       0.417000       1.00800           0
     26183 TIP3     4567     TIP3     H2       HT       0.417000       1.00800           0
     26184 TIP3     4568     TIP3     OH2      OT      -0.834000       15.9994           0
     26185 TIP3     4568     TIP3     H1       HT       0.417000       1.00800           0
     26186 TIP3     4568     TIP3     H2       HT       0.417000       1.00800           0
     26187 TIP3     4569     TIP3     OH2      OT      -0.834000       15.9994           0
     26188 TIP3     4569     TIP3     H1       HT       0.417000       1.00800           0
     26189 TIP3     4569     TIP3     H2       HT       0.417000       1.00800           0
     26190 TIP3     4570     TIP3     OH2      OT      -0.834000       15.9994           0
     26191 TIP3     4570     TIP3     H1       HT       0.417000       1.00800           0
     26192 TIP3     4570     TIP3     H2       HT       0.417000       1.00800           0
     26193 TIP3     4571     TIP3     OH2      OT      -0.834000       15.9994           0
     26194 TIP3     4571     TIP3     H1       HT       0.417000       1.00800           0
     26195 TIP3     4571     TIP3     H2       HT       0.417000       1.00800           0
     26196 TIP3     4572     TIP3     OH2      OT      -0.834000       15.9994           0
     26197 TIP3     4572     TIP3     H1       HT       0.417000       1.00800           0
     26198 TIP3     4572     TIP3     H2       HT       0.417000       1.00800           0
     26199 TIP3     4573     TIP3     OH2      OT      -0.834000       15.9994           0
     26200 TIP3     4573     TIP3     H1       HT       0.417000       1.00800           0
     26201 TIP3     4573     TIP3     H2       HT       0.417000       1.00800           0
     26202 TIP3     4574     TIP3     OH2      OT      -0.834000       15.9994           0
     26203 TIP3     4574     TIP3     H1       HT       0.417000       1.00800           0
     26204 TIP3     4574     TIP3     H2       HT       0.417000       1.00800           0
     26205 TIP3     4575     TIP3     OH2      OT      -0.834000       15.9994           0
     26206 TIP3     4575     TIP3     H1       HT       0.417000       1.00800           0
     26207 TIP3     4575     TIP3     H2       HT       0.417000       1.00800           0
     26208 TIP3     4576     TIP3     OH2      OT      -0.834000       15.9994           0
     26209 TIP3     4576     TIP3     H1       HT       0.417000       1.00800           0
     26210 TIP3     4576     TIP3     H2       HT       0.417000       1.00800           0
     26211 TIP3     4577     TIP3     OH2      OT      -0.834000       15.9994           0
     26212 TIP3     4577     TIP3     H1       HT       0.417000       1.00800           0
     26213 TIP3     4577     TIP3     H2       HT       0.417000       1.00800           0
     26214 TIP3     4578     TIP3     OH2      OT      -0.834000       15.9994           0
     26215 TIP3     4578     TIP3     H1       HT       0.417000       1.00800           0
     26216 TIP3     4578     TIP3     H2       HT       0.417000       1.00800           0
     26217 TIP3     4579     TIP3     OH2      OT      -0.834000       15.9994           0
     26218 TIP3     4579     TIP3     H1       HT       0.417000       1.00800           0
     26219 TIP3     4579     TIP3     H2       HT       0.417000       1.00800           0
     26220 TIP3     4580     TIP3     OH2      OT      -0.834000       15.9994           0
     26221 TIP3     4580     TIP3     H1       HT       0.417000       1.00800           0
     26222 TIP3     4580     TIP3     H2       HT       0.417000       1.00800           0
     26223 TIP3     4581     TIP3     OH2      OT      -0.834000       15.9994           0
     26224 TIP3     4581     TIP3     H1       HT       0.417000       1.00800           0
     26225 TIP3     4581     TIP3     H2       HT       0.417000       1.00800           0
     26226 TIP3     4582     TIP3     OH2      OT      -0.834000       15.9994           0
     26227 TIP3     4582     TIP3     H1       HT       0.417000       1.00800           0
     26228 TIP3     4582     TIP3     H2       HT       0.417000       1.00800           0
     26229 TIP3     4583     TIP3     OH2      OT      -0.834000       15.9994           0
     26230 TIP3     4583     TIP3     H1       HT       0.417000       1.00800           0
     26231 TIP3     4583     TIP3     H2       HT       0.417000       1.00800           0
     26232 TIP3     4584     TIP3     OH2      OT      -0.834000       15.9994           0
     26233 TIP3     4584     TIP3     H1       HT       0.417000       1.00800           0
     26234 TIP3     4584     TIP3     H2       HT       0.417000       1.00800           0
     26235 TIP3     4585     TIP3     OH2      OT      -0.834000       15.9994           0
     26236 TIP3     4585     TIP3     H1       HT       0.417000       1.00800           0
     26237 TIP3     4585     TIP3     H2       HT       0.417000       1.00800           0
     26238 TIP3     4586     TIP3     OH2      OT      -0.834000       15.9994           0
     26239 TIP3     4586     TIP3     H1       HT       0.417000       1.00800           0
     26240 TIP3     4586     TIP3     H2       HT       0.417000       1.00800           0
     26241 TIP3     4587     TIP3     OH2      OT      -0.834000       15.9994           0
     26242 TIP3     4587     TIP3     H1       HT       0.417000       1.00800           0
     26243 TIP3     4587     TIP3     H2       HT       0.417000       1.00800           0
     26244 TIP3     4588     TIP3     OH2      OT      -0.834000       15.9994           0
     26245 TIP3     4588     TIP3     H1       HT       0.417000       1.00800           0
     26246 TIP3     4588     TIP3     H2       HT       0.417000       1.00800           0
     26247 TIP3     4589     TIP3     OH2      OT      -0.834000       15.9994           0
     26248 TIP3     4589     TIP3     H1       HT       0.417000       1.00800           0
     26249 TIP3     4589     TIP3     H2       HT       0.417000       1.00800           0
     26250 TIP3     4590     TIP3     OH2      OT      -0.834000       15.9994           0
     26251 TIP3     4590     TIP3     H1       HT       0.417000       1.00800           0
     26252 TIP3     4590     TIP3     H2       HT       0.417000       1.00800           0
     26253 TIP3     4591     TIP3     OH2      OT      -0.834000       15.9994           0
     26254 TIP3     4591     TIP3     H1       HT       0.417000       1.00800           0
     26255 TIP3     4591     TIP3     H2       HT       0.417000       1.00800           0
     26256 TIP3     4592     TIP3     OH2      OT      -0.834000       15.9994           0
     26257 TIP3     4592     TIP3     H1       HT       0.417000       1.00800           0
     26258 TIP3     4592     TIP3     H2       HT       0.417000       1.00800           0
     26259 TIP3     4593     TIP3     OH2      OT      -0.834000       15.9994           0
     26260 TIP3     4593     TIP3     H1       HT       0.417000       1.00800           0
     26261 TIP3     4593     TIP3     H2       HT       0.417000       1.00800           0
     26262 TIP3     4594     TIP3     OH2      OT      -0.834000       15.9994           0
     26263 TIP3     4594     TIP3     H1       HT       0.417000       1.00800           0
     26264 TIP3     4594     TIP3     H2       HT       0.417000       1.00800           0
     26265 TIP3     4595     TIP3     OH2      OT      -0.834000       15.9994           0
     26266 TIP3     4595     TIP3     H1       HT       0.417000       1.00800           0
     26267 TIP3     4595     TIP3     H2       HT       0.417000       1.00800           0
     26268 TIP3     4596     TIP3     OH2      OT      -0.834000       15.9994           0
     26269 TIP3     4596     TIP3     H1       HT       0.417000       1.00800           0
     26270 TIP3     4596     TIP3     H2       HT       0.417000       1.00800           0
     26271 TIP3     4597     TIP3     OH2      OT      -0.834000       15.9994           0
     26272 TIP3     4597     TIP3     H1       HT       0.417000       1.00800           0
     26273 TIP3     4597     TIP3     H2       HT       0.417000       1.00800           0
     26274 TIP3     4598     TIP3     OH2      OT      -0.834000       15.9994           0
     26275 TIP3     4598     TIP3     H1       HT       0.417000       1.00800           0
     26276 TIP3     4598     TIP3     H2       HT       0.417000       1.00800           0
     26277 TIP3     4599     TIP3     OH2      OT      -0.834000       15.9994           0
     26278 TIP3     4599     TIP3     H1       HT       0.417000       1.00800           0
     26279 TIP3     4599     TIP3     H2       HT       0.417000       1.00800           0
     26280 TIP3     4600     TIP3     OH2      OT      -0.834000       15.9994           0
     26281 TIP3     4600     TIP3     H1       HT       0.417000       1.00800           0
     26282 TIP3     4600     TIP3     H2       HT       0.417000       1.00800           0
     26283 TIP3     4601     TIP3     OH2      OT      -0.834000       15.9994           0
     26284 TIP3     4601     TIP3     H1       HT       0.417000       1.00800           0
     26285 TIP3     4601     TIP3     H2       HT       0.417000       1.00800           0
     26286 TIP3     4602     TIP3     OH2      OT      -0.834000       15.9994           0
     26287 TIP3     4602     TIP3     H1       HT       0.417000       1.00800           0
     26288 TIP3     4602     TIP3     H2       HT       0.417000       1.00800           0
     26289 TIP3     4603     TIP3     OH2      OT      -0.834000       15.9994           0
     26290 TIP3     4603     TIP3     H1       HT       0.417000       1.00800           0
     26291 TIP3     4603     TIP3     H2       HT       0.417000       1.00800           0
     26292 TIP3     4604     TIP3     OH2      OT      -0.834000       15.9994           0
     26293 TIP3     4604     TIP3     H1       HT       0.417000       1.00800           0
     26294 TIP3     4604     TIP3     H2       HT       0.417000       1.00800           0
     26295 TIP3     4605     TIP3     OH2      OT      -0.834000       15.9994           0
     26296 TIP3     4605     TIP3     H1       HT       0.417000       1.00800           0
     26297 TIP3     4605     TIP3     H2       HT       0.417000       1.00800           0
     26298 TIP3     4606     TIP3     OH2      OT      -0.834000       15.9994           0
     26299 TIP3     4606     TIP3     H1       HT       0.417000       1.00800           0
     26300 TIP3     4606     TIP3     H2       HT       0.417000       1.00800           0
     26301 TIP3     4607     TIP3     OH2      OT      -0.834000       15.9994           0
     26302 TIP3     4607     TIP3     H1       HT       0.417000       1.00800           0
     26303 TIP3     4607     TIP3     H2       HT       0.417000       1.00800           0
     26304 TIP3     4608     TIP3     OH2      OT      -0.834000       15.9994           0
     26305 TIP3     4608     TIP3     H1       HT       0.417000       1.00800           0
     26306 TIP3     4608     TIP3     H2       HT       0.417000       1.00800           0
     26307 TIP3     4609     TIP3     OH2      OT      -0.834000       15.9994           0
     26308 TIP3     4609     TIP3     H1       HT       0.417000       1.00800           0
     26309 TIP3     4609     TIP3     H2       HT       0.417000       1.00800           0
     26310 TIP3     4610     TIP3     OH2      OT      -0.834000       15.9994           0
     26311 TIP3     4610     TIP3     H1       HT       0.417000       1.00800           0
     26312 TIP3     4610     TIP3     H2       HT       0.417000       1.00800           0
     26313 TIP3     4611     TIP3     OH2      OT      -0.834000       15.9994           0
     26314 TIP3     4611     TIP3     H1       HT       0.417000       1.00800           0
     26315 TIP3     4611     TIP3     H2       HT       0.417000       1.00800           0
     26316 TIP3     4612     TIP3     OH2      OT      -0.834000       15.9994           0
     26317 TIP3     4612     TIP3     H1       HT       0.417000       1.00800           0
     26318 TIP3     4612     TIP3     H2       HT       0.417000       1.00800           0
     26319 TIP3     4613     TIP3     OH2      OT      -0.834000       15.9994           0
     26320 TIP3     4613     TIP3     H1       HT       0.417000       1.00800           0
     26321 TIP3     4613     TIP3     H2       HT       0.417000       1.00800           0
     26322 TIP3     4614     TIP3     OH2      OT      -0.834000       15.9994           0
     26323 TIP3     4614     TIP3     H1       HT       0.417000       1.00800           0
     26324 TIP3     4614     TIP3     H2       HT       0.417000       1.00800           0
     26325 TIP3     4615     TIP3     OH2      OT      -0.834000       15.9994           0
     26326 TIP3     4615     TIP3     H1       HT       0.417000       1.00800           0
     26327 TIP3     4615     TIP3     H2       HT       0.417000       1.00800           0
     26328 TIP3     4616     TIP3     OH2      OT      -0.834000       15.9994           0
     26329 TIP3     4616     TIP3     H1       HT       0.417000       1.00800           0
     26330 TIP3     4616     TIP3     H2       HT       0.417000       1.00800           0
     26331 TIP3     4617     TIP3     OH2      OT      -0.834000       15.9994           0
     26332 TIP3     4617     TIP3     H1       HT       0.417000       1.00800           0
     26333 TIP3     4617     TIP3     H2       HT       0.417000       1.00800           0
     26334 TIP3     4618     TIP3     OH2      OT      -0.834000       15.9994           0
     26335 TIP3     4618     TIP3     H1       HT       0.417000       1.00800           0
     26336 TIP3     4618     TIP3     H2       HT       0.417000       1.00800           0
     26337 TIP3     4619     TIP3     OH2      OT      -0.834000       15.9994           0
     26338 TIP3     4619     TIP3     H1       HT       0.417000       1.00800           0
     26339 TIP3     4619     TIP3     H2       HT       0.417000       1.00800           0
     26340 TIP3     4620     TIP3     OH2      OT      -0.834000       15.9994           0
     26341 TIP3     4620     TIP3     H1       HT       0.417000       1.00800           0
     26342 TIP3     4620     TIP3     H2       HT       0.417000       1.00800           0
     26343 TIP3     4621     TIP3     OH2      OT      -0.834000       15.9994           0
     26344 TIP3     4621     TIP3     H1       HT       0.417000       1.00800           0
     26345 TIP3     4621     TIP3     H2       HT       0.417000       1.00800           0
     26346 TIP3     4622     TIP3     OH2      OT      -0.834000       15.9994           0
     26347 TIP3     4622     TIP3     H1       HT       0.417000       1.00800           0
     26348 TIP3     4622     TIP3     H2       HT       0.417000       1.00800           0
     26349 TIP3     4623     TIP3     OH2      OT      -0.834000       15.9994           0
     26350 TIP3     4623     TIP3     H1       HT       0.417000       1.00800           0
     26351 TIP3     4623     TIP3     H2       HT       0.417000       1.00800           0
     26352 TIP3     4624     TIP3     OH2      OT      -0.834000       15.9994           0
     26353 TIP3     4624     TIP3     H1       HT       0.417000       1.00800           0
     26354 TIP3     4624     TIP3     H2       HT       0.417000       1.00800           0
     26355 TIP3     4625     TIP3     OH2      OT      -0.834000       15.9994           0
     26356 TIP3     4625     TIP3     H1       HT       0.417000       1.00800           0
     26357 TIP3     4625     TIP3     H2       HT       0.417000       1.00800           0
     26358 TIP3     4626     TIP3     OH2      OT      -0.834000       15.9994           0
     26359 TIP3     4626     TIP3     H1       HT       0.417000       1.00800           0
     26360 TIP3     4626     TIP3     H2       HT       0.417000       1.00800           0
     26361 TIP3     4627     TIP3     OH2      OT      -0.834000       15.9994           0
     26362 TIP3     4627     TIP3     H1       HT       0.417000       1.00800           0
     26363 TIP3     4627     TIP3     H2       HT       0.417000       1.00800           0
     26364 TIP3     4628     TIP3     OH2      OT      -0.834000       15.9994           0
     26365 TIP3     4628     TIP3     H1       HT       0.417000       1.00800           0
     26366 TIP3     4628     TIP3     H2       HT       0.417000       1.00800           0
     26367 TIP3     4629     TIP3     OH2      OT      -0.834000       15.9994           0
     26368 TIP3     4629     TIP3     H1       HT       0.417000       1.00800           0
     26369 TIP3     4629     TIP3     H2       HT       0.417000       1.00800           0
     26370 TIP3     4630     TIP3     OH2      OT      -0.834000       15.9994           0
     26371 TIP3     4630     TIP3     H1       HT       0.417000       1.00800           0
     26372 TIP3     4630     TIP3     H2       HT       0.417000       1.00800           0
     26373 TIP3     4631     TIP3     OH2      OT      -0.834000       15.9994           0
     26374 TIP3     4631     TIP3     H1       HT       0.417000       1.00800           0
     26375 TIP3     4631     TIP3     H2       HT       0.417000       1.00800           0
     26376 TIP3     4632     TIP3     OH2      OT      -0.834000       15.9994           0
     26377 TIP3     4632     TIP3     H1       HT       0.417000       1.00800           0
     26378 TIP3     4632     TIP3     H2       HT       0.417000       1.00800           0
     26379 TIP3     4633     TIP3     OH2      OT      -0.834000       15.9994           0
     26380 TIP3     4633     TIP3     H1       HT       0.417000       1.00800           0
     26381 TIP3     4633     TIP3     H2       HT       0.417000       1.00800           0
     26382 TIP3     4634     TIP3     OH2      OT      -0.834000       15.9994           0
     26383 TIP3     4634     TIP3     H1       HT       0.417000       1.00800           0
     26384 TIP3     4634     TIP3     H2       HT       0.417000       1.00800           0
     26385 TIP3     4635     TIP3     OH2      OT      -0.834000       15.9994           0
     26386 TIP3     4635     TIP3     H1       HT       0.417000       1.00800           0
     26387 TIP3     4635     TIP3     H2       HT       0.417000       1.00800           0
     26388 TIP3     4636     TIP3     OH2      OT      -0.834000       15.9994           0
     26389 TIP3     4636     TIP3     H1       HT       0.417000       1.00800           0
     26390 TIP3     4636     TIP3     H2       HT       0.417000       1.00800           0
     26391 TIP3     4637     TIP3     OH2      OT      -0.834000       15.9994           0
     26392 TIP3     4637     TIP3     H1       HT       0.417000       1.00800           0
     26393 TIP3     4637     TIP3     H2       HT       0.417000       1.00800           0
     26394 TIP3     4638     TIP3     OH2      OT      -0.834000       15.9994           0
     26395 TIP3     4638     TIP3     H1       HT       0.417000       1.00800           0
     26396 TIP3     4638     TIP3     H2       HT       0.417000       1.00800           0
     26397 TIP3     4639     TIP3     OH2      OT      -0.834000       15.9994           0
     26398 TIP3     4639     TIP3     H1       HT       0.417000       1.00800           0
     26399 TIP3     4639     TIP3     H2       HT       0.417000       1.00800           0
     26400 TIP3     4640     TIP3     OH2      OT      -0.834000       15.9994           0
     26401 TIP3     4640     TIP3     H1       HT       0.417000       1.00800           0
     26402 TIP3     4640     TIP3     H2       HT       0.417000       1.00800           0
     26403 TIP3     4641     TIP3     OH2      OT      -0.834000       15.9994           0
     26404 TIP3     4641     TIP3     H1       HT       0.417000       1.00800           0
     26405 TIP3     4641     TIP3     H2       HT       0.417000       1.00800           0
     26406 TIP3     4642     TIP3     OH2      OT      -0.834000       15.9994           0
     26407 TIP3     4642     TIP3     H1       HT       0.417000       1.00800           0
     26408 TIP3     4642     TIP3     H2       HT       0.417000       1.00800           0
     26409 TIP3     4643     TIP3     OH2      OT      -0.834000       15.9994           0
     26410 TIP3     4643     TIP3     H1       HT       0.417000       1.00800           0
     26411 TIP3     4643     TIP3     H2       HT       0.417000       1.00800           0
     26412 TIP3     4644     TIP3     OH2      OT      -0.834000       15.9994           0
     26413 TIP3     4644     TIP3     H1       HT       0.417000       1.00800           0
     26414 TIP3     4644     TIP3     H2       HT       0.417000       1.00800           0
     26415 TIP3     4645     TIP3     OH2      OT      -0.834000       15.9994           0
     26416 TIP3     4645     TIP3     H1       HT       0.417000       1.00800           0
     26417 TIP3     4645     TIP3     H2       HT       0.417000       1.00800           0
     26418 TIP3     4646     TIP3     OH2      OT      -0.834000       15.9994           0
     26419 TIP3     4646     TIP3     H1       HT       0.417000       1.00800           0
     26420 TIP3     4646     TIP3     H2       HT       0.417000       1.00800           0
     26421 TIP3     4647     TIP3     OH2      OT      -0.834000       15.9994           0
     26422 TIP3     4647     TIP3     H1       HT       0.417000       1.00800           0
     26423 TIP3     4647     TIP3     H2       HT       0.417000       1.00800           0
     26424 TIP3     4648     TIP3     OH2      OT      -0.834000       15.9994           0
     26425 TIP3     4648     TIP3     H1       HT       0.417000       1.00800           0
     26426 TIP3     4648     TIP3     H2       HT       0.417000       1.00800           0
     26427 TIP3     4649     TIP3     OH2      OT      -0.834000       15.9994           0
     26428 TIP3     4649     TIP3     H1       HT       0.417000       1.00800           0
     26429 TIP3     4649     TIP3     H2       HT       0.417000       1.00800           0
     26430 TIP3     4650     TIP3     OH2      OT      -0.834000       15.9994           0
     26431 TIP3     4650     TIP3     H1       HT       0.417000       1.00800           0
     26432 TIP3     4650     TIP3     H2       HT       0.417000       1.00800           0
     26433 TIP3     4651     TIP3     OH2      OT      -0.834000       15.9994           0
     26434 TIP3     4651     TIP3     H1       HT       0.417000       1.00800           0
     26435 TIP3     4651     TIP3     H2       HT       0.417000       1.00800           0
     26436 TIP3     4652     TIP3     OH2      OT      -0.834000       15.9994           0
     26437 TIP3     4652     TIP3     H1       HT       0.417000       1.00800           0
     26438 TIP3     4652     TIP3     H2       HT       0.417000       1.00800           0
     26439 TIP3     4653     TIP3     OH2      OT      -0.834000       15.9994           0
     26440 TIP3     4653     TIP3     H1       HT       0.417000       1.00800           0
     26441 TIP3     4653     TIP3     H2       HT       0.417000       1.00800           0
     26442 TIP3     4654     TIP3     OH2      OT      -0.834000       15.9994           0
     26443 TIP3     4654     TIP3     H1       HT       0.417000       1.00800           0
     26444 TIP3     4654     TIP3     H2       HT       0.417000       1.00800           0
     26445 TIP3     4655     TIP3     OH2      OT      -0.834000       15.9994           0
     26446 TIP3     4655     TIP3     H1       HT       0.417000       1.00800           0
     26447 TIP3     4655     TIP3     H2       HT       0.417000       1.00800           0
     26448 TIP3     4656     TIP3     OH2      OT      -0.834000       15.9994           0
     26449 TIP3     4656     TIP3     H1       HT       0.417000       1.00800           0
     26450 TIP3     4656     TIP3     H2       HT       0.417000       1.00800           0
     26451 TIP3     4657     TIP3     OH2      OT      -0.834000       15.9994           0
     26452 TIP3     4657     TIP3     H1       HT       0.417000       1.00800           0
     26453 TIP3     4657     TIP3     H2       HT       0.417000       1.00800           0
     26454 TIP3     4658     TIP3     OH2      OT      -0.834000       15.9994           0
     26455 TIP3     4658     TIP3     H1       HT       0.417000       1.00800           0
     26456 TIP3     4658     TIP3     H2       HT       0.417000       1.00800           0
     26457 TIP3     4659     TIP3     OH2      OT      -0.834000       15.9994           0
     26458 TIP3     4659     TIP3     H1       HT       0.417000       1.00800           0
     26459 TIP3     4659     TIP3     H2       HT       0.417000       1.00800           0
     26460 TIP3     4660     TIP3     OH2      OT      -0.834000       15.9994           0
     26461 TIP3     4660     TIP3     H1       HT       0.417000       1.00800           0
     26462 TIP3     4660     TIP3     H2       HT       0.417000       1.00800           0
     26463 TIP3     4661     TIP3     OH2      OT      -0.834000       15.9994           0
     26464 TIP3     4661     TIP3     H1       HT       0.417000       1.00800           0
     26465 TIP3     4661     TIP3     H2       HT       0.417000       1.00800           0
     26466 TIP3     4662     TIP3     OH2      OT      -0.834000       15.9994           0
     26467 TIP3     4662     TIP3     H1       HT       0.417000       1.00800           0
     26468 TIP3     4662     TIP3     H2       HT       0.417000       1.00800           0
     26469 TIP3     4663     TIP3     OH2      OT      -0.834000       15.9994           0
     26470 TIP3     4663     TIP3     H1       HT       0.417000       1.00800           0
     26471 TIP3     4663     TIP3     H2       HT       0.417000       1.00800           0
     26472 TIP3     4664     TIP3     OH2      OT      -0.834000       15.9994           0
     26473 TIP3     4664     TIP3     H1       HT       0.417000       1.00800           0
     26474 TIP3     4664     TIP3     H2       HT       0.417000       1.00800           0
     26475 TIP3     4665     TIP3     OH2      OT      -0.834000       15.9994           0
     26476 TIP3     4665     TIP3     H1       HT       0.417000       1.00800           0
     26477 TIP3     4665     TIP3     H2       HT       0.417000       1.00800           0
     26478 TIP3     4666     TIP3     OH2      OT      -0.834000       15.9994           0
     26479 TIP3     4666     TIP3     H1       HT       0.417000       1.00800           0
     26480 TIP3     4666     TIP3     H2       HT       0.417000       1.00800           0
     26481 TIP3     4667     TIP3     OH2      OT      -0.834000       15.9994           0
     26482 TIP3     4667     TIP3     H1       HT       0.417000       1.00800           0
     26483 TIP3     4667     TIP3     H2       HT       0.417000       1.00800           0
     26484 TIP3     4668     TIP3     OH2      OT      -0.834000       15.9994           0
     26485 TIP3     4668     TIP3     H1       HT       0.417000       1.00800           0
     26486 TIP3     4668     TIP3     H2       HT       0.417000       1.00800           0
     26487 TIP3     4669     TIP3     OH2      OT      -0.834000       15.9994           0
     26488 TIP3     4669     TIP3     H1       HT       0.417000       1.00800           0
     26489 TIP3     4669     TIP3     H2       HT       0.417000       1.00800           0
     26490 TIP3     4670     TIP3     OH2      OT      -0.834000       15.9994           0
     26491 TIP3     4670     TIP3     H1       HT       0.417000       1.00800           0
     26492 TIP3     4670     TIP3     H2       HT       0.417000       1.00800           0
     26493 TIP3     4671     TIP3     OH2      OT      -0.834000       15.9994           0
     26494 TIP3     4671     TIP3     H1       HT       0.417000       1.00800           0
     26495 TIP3     4671     TIP3     H2       HT       0.417000       1.00800           0
     26496 TIP3     4672     TIP3     OH2      OT      -0.834000       15.9994           0
     26497 TIP3     4672     TIP3     H1       HT       0.417000       1.00800           0
     26498 TIP3     4672     TIP3     H2       HT       0.417000       1.00800           0
     26499 TIP3     4673     TIP3     OH2      OT      -0.834000       15.9994           0
     26500 TIP3     4673     TIP3     H1       HT       0.417000       1.00800           0
     26501 TIP3     4673     TIP3     H2       HT       0.417000       1.00800           0
     26502 TIP3     4674     TIP3     OH2      OT      -0.834000       15.9994           0
     26503 TIP3     4674     TIP3     H1       HT       0.417000       1.00800           0
     26504 TIP3     4674     TIP3     H2       HT       0.417000       1.00800           0
     26505 TIP3     4675     TIP3     OH2      OT      -0.834000       15.9994           0
     26506 TIP3     4675     TIP3     H1       HT       0.417000       1.00800           0
     26507 TIP3     4675     TIP3     H2       HT       0.417000       1.00800           0
     26508 TIP3     4676     TIP3     OH2      OT      -0.834000       15.9994           0
     26509 TIP3     4676     TIP3     H1       HT       0.417000       1.00800           0
     26510 TIP3     4676     TIP3     H2       HT       0.417000       1.00800           0
     26511 TIP3     4677     TIP3     OH2      OT      -0.834000       15.9994           0
     26512 TIP3     4677     TIP3     H1       HT       0.417000       1.00800           0
     26513 TIP3     4677     TIP3     H2       HT       0.417000       1.00800           0
     26514 TIP3     4678     TIP3     OH2      OT      -0.834000       15.9994           0
     26515 TIP3     4678     TIP3     H1       HT       0.417000       1.00800           0
     26516 TIP3     4678     TIP3     H2       HT       0.417000       1.00800           0
     26517 TIP3     4679     TIP3     OH2      OT      -0.834000       15.9994           0
     26518 TIP3     4679     TIP3     H1       HT       0.417000       1.00800           0
     26519 TIP3     4679     TIP3     H2       HT       0.417000       1.00800           0
     26520 TIP3     4680     TIP3     OH2      OT      -0.834000       15.9994           0
     26521 TIP3     4680     TIP3     H1       HT       0.417000       1.00800           0
     26522 TIP3     4680     TIP3     H2       HT       0.417000       1.00800           0
     26523 TIP3     4681     TIP3     OH2      OT      -0.834000       15.9994           0
     26524 TIP3     4681     TIP3     H1       HT       0.417000       1.00800           0
     26525 TIP3     4681     TIP3     H2       HT       0.417000       1.00800           0
     26526 TIP3     4682     TIP3     OH2      OT      -0.834000       15.9994           0
     26527 TIP3     4682     TIP3     H1       HT       0.417000       1.00800           0
     26528 TIP3     4682     TIP3     H2       HT       0.417000       1.00800           0
     26529 TIP3     4683     TIP3     OH2      OT      -0.834000       15.9994           0
     26530 TIP3     4683     TIP3     H1       HT       0.417000       1.00800           0
     26531 TIP3     4683     TIP3     H2       HT       0.417000       1.00800           0
     26532 TIP3     4684     TIP3     OH2      OT      -0.834000       15.9994           0
     26533 TIP3     4684     TIP3     H1       HT       0.417000       1.00800           0
     26534 TIP3     4684     TIP3     H2       HT       0.417000       1.00800           0
     26535 TIP3     4685     TIP3     OH2      OT      -0.834000       15.9994           0
     26536 TIP3     4685     TIP3     H1       HT       0.417000       1.00800           0
     26537 TIP3     4685     TIP3     H2       HT       0.417000       1.00800           0
     26538 TIP3     4686     TIP3     OH2      OT      -0.834000       15.9994           0
     26539 TIP3     4686     TIP3     H1       HT       0.417000       1.00800           0
     26540 TIP3     4686     TIP3     H2       HT       0.417000       1.00800           0
     26541 TIP3     4687     TIP3     OH2      OT      -0.834000       15.9994           0
     26542 TIP3     4687     TIP3     H1       HT       0.417000       1.00800           0
     26543 TIP3     4687     TIP3     H2       HT       0.417000       1.00800           0
     26544 TIP3     4688     TIP3     OH2      OT      -0.834000       15.9994           0
     26545 TIP3     4688     TIP3     H1       HT       0.417000       1.00800           0
     26546 TIP3     4688     TIP3     H2       HT       0.417000       1.00800           0
     26547 TIP3     4689     TIP3     OH2      OT      -0.834000       15.9994           0
     26548 TIP3     4689     TIP3     H1       HT       0.417000       1.00800           0
     26549 TIP3     4689     TIP3     H2       HT       0.417000       1.00800           0
     26550 TIP3     4690     TIP3     OH2      OT      -0.834000       15.9994           0
     26551 TIP3     4690     TIP3     H1       HT       0.417000       1.00800           0
     26552 TIP3     4690     TIP3     H2       HT       0.417000       1.00800           0
     26553 TIP3     4691     TIP3     OH2      OT      -0.834000       15.9994           0
     26554 TIP3     4691     TIP3     H1       HT       0.417000       1.00800           0
     26555 TIP3     4691     TIP3     H2       HT       0.417000       1.00800           0
     26556 TIP3     4692     TIP3     OH2      OT      -0.834000       15.9994           0
     26557 TIP3     4692     TIP3     H1       HT       0.417000       1.00800           0
     26558 TIP3     4692     TIP3     H2       HT       0.417000       1.00800           0
     26559 TIP3     4693     TIP3     OH2      OT      -0.834000       15.9994           0
     26560 TIP3     4693     TIP3     H1       HT       0.417000       1.00800           0
     26561 TIP3     4693     TIP3     H2       HT       0.417000       1.00800           0
     26562 TIP3     4694     TIP3     OH2      OT      -0.834000       15.9994           0
     26563 TIP3     4694     TIP3     H1       HT       0.417000       1.00800           0
     26564 TIP3     4694     TIP3     H2       HT       0.417000       1.00800           0
     26565 TIP3     4695     TIP3     OH2      OT      -0.834000       15.9994           0
     26566 TIP3     4695     TIP3     H1       HT       0.417000       1.00800           0
     26567 TIP3     4695     TIP3     H2       HT       0.417000       1.00800           0
     26568 TIP3     4696     TIP3     OH2      OT      -0.834000       15.9994           0
     26569 TIP3     4696     TIP3     H1       HT       0.417000       1.00800           0
     26570 TIP3     4696     TIP3     H2       HT       0.417000       1.00800           0
     26571 TIP3     4697     TIP3     OH2      OT      -0.834000       15.9994           0
     26572 TIP3     4697     TIP3     H1       HT       0.417000       1.00800           0
     26573 TIP3     4697     TIP3     H2       HT       0.417000       1.00800           0
     26574 TIP3     4698     TIP3     OH2      OT      -0.834000       15.9994           0
     26575 TIP3     4698     TIP3     H1       HT       0.417000       1.00800           0
     26576 TIP3     4698     TIP3     H2       HT       0.417000       1.00800           0
     26577 TIP3     4699     TIP3     OH2      OT      -0.834000       15.9994           0
     26578 TIP3     4699     TIP3     H1       HT       0.417000       1.00800           0
     26579 TIP3     4699     TIP3     H2       HT       0.417000       1.00800           0
     26580 TIP3     4700     TIP3     OH2      OT      -0.834000       15.9994           0
     26581 TIP3     4700     TIP3     H1       HT       0.417000       1.00800           0
     26582 TIP3     4700     TIP3     H2       HT       0.417000       1.00800           0
     26583 TIP3     4701     TIP3     OH2      OT      -0.834000       15.9994           0
     26584 TIP3     4701     TIP3     H1       HT       0.417000       1.00800           0
     26585 TIP3     4701     TIP3     H2       HT       0.417000       1.00800           0
     26586 TIP3     4702     TIP3     OH2      OT      -0.834000       15.9994           0
     26587 TIP3     4702     TIP3     H1       HT       0.417000       1.00800           0
     26588 TIP3     4702     TIP3     H2       HT       0.417000       1.00800           0
     26589 TIP3     4703     TIP3     OH2      OT      -0.834000       15.9994           0
     26590 TIP3     4703     TIP3     H1       HT       0.417000       1.00800           0
     26591 TIP3     4703     TIP3     H2       HT       0.417000       1.00800           0
     26592 TIP3     4704     TIP3     OH2      OT      -0.834000       15.9994           0
     26593 TIP3     4704     TIP3     H1       HT       0.417000       1.00800           0
     26594 TIP3     4704     TIP3     H2       HT       0.417000       1.00800           0
     26595 TIP3     4705     TIP3     OH2      OT      -0.834000       15.9994           0
     26596 TIP3     4705     TIP3     H1       HT       0.417000       1.00800           0
     26597 TIP3     4705     TIP3     H2       HT       0.417000       1.00800           0
     26598 TIP3     4706     TIP3     OH2      OT      -0.834000       15.9994           0
     26599 TIP3     4706     TIP3     H1       HT       0.417000       1.00800           0
     26600 TIP3     4706     TIP3     H2       HT       0.417000       1.00800           0
     26601 TIP3     4707     TIP3     OH2      OT      -0.834000       15.9994           0
     26602 TIP3     4707     TIP3     H1       HT       0.417000       1.00800           0
     26603 TIP3     4707     TIP3     H2       HT       0.417000       1.00800           0
     26604 TIP3     4708     TIP3     OH2      OT      -0.834000       15.9994           0
     26605 TIP3     4708     TIP3     H1       HT       0.417000       1.00800           0
     26606 TIP3     4708     TIP3     H2       HT       0.417000       1.00800           0
     26607 TIP3     4709     TIP3     OH2      OT      -0.834000       15.9994           0
     26608 TIP3     4709     TIP3     H1       HT       0.417000       1.00800           0
     26609 TIP3     4709     TIP3     H2       HT       0.417000       1.00800           0
     26610 TIP3     4710     TIP3     OH2      OT      -0.834000       15.9994           0
     26611 TIP3     4710     TIP3     H1       HT       0.417000       1.00800           0
     26612 TIP3     4710     TIP3     H2       HT       0.417000       1.00800           0
     26613 TIP3     4711     TIP3     OH2      OT      -0.834000       15.9994           0
     26614 TIP3     4711     TIP3     H1       HT       0.417000       1.00800           0
     26615 TIP3     4711     TIP3     H2       HT       0.417000       1.00800           0
     26616 TIP3     4712     TIP3     OH2      OT      -0.834000       15.9994           0
     26617 TIP3     4712     TIP3     H1       HT       0.417000       1.00800           0
     26618 TIP3     4712     TIP3     H2       HT       0.417000       1.00800           0
     26619 TIP3     4713     TIP3     OH2      OT      -0.834000       15.9994           0
     26620 TIP3     4713     TIP3     H1       HT       0.417000       1.00800           0
     26621 TIP3     4713     TIP3     H2       HT       0.417000       1.00800           0
     26622 TIP3     4714     TIP3     OH2      OT      -0.834000       15.9994           0
     26623 TIP3     4714     TIP3     H1       HT       0.417000       1.00800           0
     26624 TIP3     4714     TIP3     H2       HT       0.417000       1.00800           0
     26625 TIP3     4715     TIP3     OH2      OT      -0.834000       15.9994           0
     26626 TIP3     4715     TIP3     H1       HT       0.417000       1.00800           0
     26627 TIP3     4715     TIP3     H2       HT       0.417000       1.00800           0
     26628 TIP3     4716     TIP3     OH2      OT      -0.834000       15.9994           0
     26629 TIP3     4716     TIP3     H1       HT       0.417000       1.00800           0
     26630 TIP3     4716     TIP3     H2       HT       0.417000       1.00800           0
     26631 TIP3     4717     TIP3     OH2      OT      -0.834000       15.9994           0
     26632 TIP3     4717     TIP3     H1       HT       0.417000       1.00800           0
     26633 TIP3     4717     TIP3     H2       HT       0.417000       1.00800           0
     26634 TIP3     4718     TIP3     OH2      OT      -0.834000       15.9994           0
     26635 TIP3     4718     TIP3     H1       HT       0.417000       1.00800           0
     26636 TIP3     4718     TIP3     H2       HT       0.417000       1.00800           0
     26637 TIP3     4719     TIP3     OH2      OT      -0.834000       15.9994           0
     26638 TIP3     4719     TIP3     H1       HT       0.417000       1.00800           0
     26639 TIP3     4719     TIP3     H2       HT       0.417000       1.00800           0
     26640 TIP3     4720     TIP3     OH2      OT      -0.834000       15.9994           0
     26641 TIP3     4720     TIP3     H1       HT       0.417000       1.00800           0
     26642 TIP3     4720     TIP3     H2       HT       0.417000       1.00800           0
     26643 TIP3     4721     TIP3     OH2      OT      -0.834000       15.9994           0
     26644 TIP3     4721     TIP3     H1       HT       0.417000       1.00800           0
     26645 TIP3     4721     TIP3     H2       HT       0.417000       1.00800           0
     26646 TIP3     4722     TIP3     OH2      OT      -0.834000       15.9994           0
     26647 TIP3     4722     TIP3     H1       HT       0.417000       1.00800           0
     26648 TIP3     4722     TIP3     H2       HT       0.417000       1.00800           0
     26649 TIP3     4723     TIP3     OH2      OT      -0.834000       15.9994           0
     26650 TIP3     4723     TIP3     H1       HT       0.417000       1.00800           0
     26651 TIP3     4723     TIP3     H2       HT       0.417000       1.00800           0
     26652 TIP3     4724     TIP3     OH2      OT      -0.834000       15.9994           0
     26653 TIP3     4724     TIP3     H1       HT       0.417000       1.00800           0
     26654 TIP3     4724     TIP3     H2       HT       0.417000       1.00800           0
     26655 TIP3     4725     TIP3     OH2      OT      -0.834000       15.9994           0
     26656 TIP3     4725     TIP3     H1       HT       0.417000       1.00800           0
     26657 TIP3     4725     TIP3     H2       HT       0.417000       1.00800           0
     26658 TIP3     4726     TIP3     OH2      OT      -0.834000       15.9994           0
     26659 TIP3     4726     TIP3     H1       HT       0.417000       1.00800           0
     26660 TIP3     4726     TIP3     H2       HT       0.417000       1.00800           0
     26661 TIP3     4727     TIP3     OH2      OT      -0.834000       15.9994           0
     26662 TIP3     4727     TIP3     H1       HT       0.417000       1.00800           0
     26663 TIP3     4727     TIP3     H2       HT       0.417000       1.00800           0
     26664 TIP3     4728     TIP3     OH2      OT      -0.834000       15.9994           0
     26665 TIP3     4728     TIP3     H1       HT       0.417000       1.00800           0
     26666 TIP3     4728     TIP3     H2       HT       0.417000       1.00800           0
     26667 TIP3     4729     TIP3     OH2      OT      -0.834000       15.9994           0
     26668 TIP3     4729     TIP3     H1       HT       0.417000       1.00800           0
     26669 TIP3     4729     TIP3     H2       HT       0.417000       1.00800           0
     26670 TIP3     4730     TIP3     OH2      OT      -0.834000       15.9994           0
     26671 TIP3     4730     TIP3     H1       HT       0.417000       1.00800           0
     26672 TIP3     4730     TIP3     H2       HT       0.417000       1.00800           0
     26673 TIP3     4731     TIP3     OH2      OT      -0.834000       15.9994           0
     26674 TIP3     4731     TIP3     H1       HT       0.417000       1.00800           0
     26675 TIP3     4731     TIP3     H2       HT       0.417000       1.00800           0
     26676 TIP3     4732     TIP3     OH2      OT      -0.834000       15.9994           0
     26677 TIP3     4732     TIP3     H1       HT       0.417000       1.00800           0
     26678 TIP3     4732     TIP3     H2       HT       0.417000       1.00800           0
     26679 TIP3     4733     TIP3     OH2      OT      -0.834000       15.9994           0
     26680 TIP3     4733     TIP3     H1       HT       0.417000       1.00800           0
     26681 TIP3     4733     TIP3     H2       HT       0.417000       1.00800           0
     26682 TIP3     4734     TIP3     OH2      OT      -0.834000       15.9994           0
     26683 TIP3     4734     TIP3     H1       HT       0.417000       1.00800           0
     26684 TIP3     4734     TIP3     H2       HT       0.417000       1.00800           0
     26685 TIP3     4735     TIP3     OH2      OT      -0.834000       15.9994           0
     26686 TIP3     4735     TIP3     H1       HT       0.417000       1.00800           0
     26687 TIP3     4735     TIP3     H2       HT       0.417000       1.00800           0
     26688 TIP3     4736     TIP3     OH2      OT      -0.834000       15.9994           0
     26689 TIP3     4736     TIP3     H1       HT       0.417000       1.00800           0
     26690 TIP3     4736     TIP3     H2       HT       0.417000       1.00800           0
     26691 TIP3     4737     TIP3     OH2      OT      -0.834000       15.9994           0
     26692 TIP3     4737     TIP3     H1       HT       0.417000       1.00800           0
     26693 TIP3     4737     TIP3     H2       HT       0.417000       1.00800           0
     26694 TIP3     4738     TIP3     OH2      OT      -0.834000       15.9994           0
     26695 TIP3     4738     TIP3     H1       HT       0.417000       1.00800           0
     26696 TIP3     4738     TIP3     H2       HT       0.417000       1.00800           0
     26697 TIP3     4739     TIP3     OH2      OT      -0.834000       15.9994           0
     26698 TIP3     4739     TIP3     H1       HT       0.417000       1.00800           0
     26699 TIP3     4739     TIP3     H2       HT       0.417000       1.00800           0
     26700 TIP3     4740     TIP3     OH2      OT      -0.834000       15.9994           0
     26701 TIP3     4740     TIP3     H1       HT       0.417000       1.00800           0
     26702 TIP3     4740     TIP3     H2       HT       0.417000       1.00800           0
     26703 TIP3     4741     TIP3     OH2      OT      -0.834000       15.9994           0
     26704 TIP3     4741     TIP3     H1       HT       0.417000       1.00800           0
     26705 TIP3     4741     TIP3     H2       HT       0.417000       1.00800           0
     26706 TIP3     4742     TIP3     OH2      OT      -0.834000       15.9994           0
     26707 TIP3     4742     TIP3     H1       HT       0.417000       1.00800           0
     26708 TIP3     4742     TIP3     H2       HT       0.417000       1.00800           0
     26709 TIP3     4743     TIP3     OH2      OT      -0.834000       15.9994           0
     26710 TIP3     4743     TIP3     H1       HT       0.417000       1.00800           0
     26711 TIP3     4743     TIP3     H2       HT       0.417000       1.00800           0
     26712 TIP3     4744     TIP3     OH2      OT      -0.834000       15.9994           0
     26713 TIP3     4744     TIP3     H1       HT       0.417000       1.00800           0
     26714 TIP3     4744     TIP3     H2       HT       0.417000       1.00800           0
     26715 TIP3     4745     TIP3     OH2      OT      -0.834000       15.9994           0
     26716 TIP3     4745     TIP3     H1       HT       0.417000       1.00800           0
     26717 TIP3     4745     TIP3     H2       HT       0.417000       1.00800           0
     26718 TIP3     4746     TIP3     OH2      OT      -0.834000       15.9994           0
     26719 TIP3     4746     TIP3     H1       HT       0.417000       1.00800           0
     26720 TIP3     4746     TIP3     H2       HT       0.417000       1.00800           0
     26721 TIP3     4747     TIP3     OH2      OT      -0.834000       15.9994           0
     26722 TIP3     4747     TIP3     H1       HT       0.417000       1.00800           0
     26723 TIP3     4747     TIP3     H2       HT       0.417000       1.00800           0
     26724 TIP3     4748     TIP3     OH2      OT      -0.834000       15.9994           0
     26725 TIP3     4748     TIP3     H1       HT       0.417000       1.00800           0
     26726 TIP3     4748     TIP3     H2       HT       0.417000       1.00800           0
     26727 TIP3     4749     TIP3     OH2      OT      -0.834000       15.9994           0
     26728 TIP3     4749     TIP3     H1       HT       0.417000       1.00800           0
     26729 TIP3     4749     TIP3     H2       HT       0.417000       1.00800           0
     26730 TIP3     4750     TIP3     OH2      OT      -0.834000       15.9994           0
     26731 TIP3     4750     TIP3     H1       HT       0.417000       1.00800           0
     26732 TIP3     4750     TIP3     H2       HT       0.417000       1.00800           0
     26733 TIP3     4751     TIP3     OH2      OT      -0.834000       15.9994           0
     26734 TIP3     4751     TIP3     H1       HT       0.417000       1.00800           0
     26735 TIP3     4751     TIP3     H2       HT       0.417000       1.00800           0
     26736 TIP3     4752     TIP3     OH2      OT      -0.834000       15.9994           0
     26737 TIP3     4752     TIP3     H1       HT       0.417000       1.00800           0
     26738 TIP3     4752     TIP3     H2       HT       0.417000       1.00800           0
     26739 TIP3     4753     TIP3     OH2      OT      -0.834000       15.9994           0
     26740 TIP3     4753     TIP3     H1       HT       0.417000       1.00800           0
     26741 TIP3     4753     TIP3     H2       HT       0.417000       1.00800           0
     26742 TIP3     4754     TIP3     OH2      OT      -0.834000       15.9994           0
     26743 TIP3     4754     TIP3     H1       HT       0.417000       1.00800           0
     26744 TIP3     4754     TIP3     H2       HT       0.417000       1.00800           0
     26745 TIP3     4755     TIP3     OH2      OT      -0.834000       15.9994           0
     26746 TIP3     4755     TIP3     H1       HT       0.417000       1.00800           0
     26747 TIP3     4755     TIP3     H2       HT       0.417000       1.00800           0
     26748 TIP3     4756     TIP3     OH2      OT      -0.834000       15.9994           0
     26749 TIP3     4756     TIP3     H1       HT       0.417000       1.00800           0
     26750 TIP3     4756     TIP3     H2       HT       0.417000       1.00800           0
     26751 TIP3     4757     TIP3     OH2      OT      -0.834000       15.9994           0
     26752 TIP3     4757     TIP3     H1       HT       0.417000       1.00800           0
     26753 TIP3     4757     TIP3     H2       HT       0.417000       1.00800           0
     26754 TIP3     4758     TIP3     OH2      OT      -0.834000       15.9994           0
     26755 TIP3     4758     TIP3     H1       HT       0.417000       1.00800           0
     26756 TIP3     4758     TIP3     H2       HT       0.417000       1.00800           0
     26757 TIP3     4759     TIP3     OH2      OT      -0.834000       15.9994           0
     26758 TIP3     4759     TIP3     H1       HT       0.417000       1.00800           0
     26759 TIP3     4759     TIP3     H2       HT       0.417000       1.00800           0
     26760 TIP3     4760     TIP3     OH2      OT      -0.834000       15.9994           0
     26761 TIP3     4760     TIP3     H1       HT       0.417000       1.00800           0
     26762 TIP3     4760     TIP3     H2       HT       0.417000       1.00800           0
     26763 TIP3     4761     TIP3     OH2      OT      -0.834000       15.9994           0
     26764 TIP3     4761     TIP3     H1       HT       0.417000       1.00800           0
     26765 TIP3     4761     TIP3     H2       HT       0.417000       1.00800           0
     26766 TIP3     4762     TIP3     OH2      OT      -0.834000       15.9994           0
     26767 TIP3     4762     TIP3     H1       HT       0.417000       1.00800           0
     26768 TIP3     4762     TIP3     H2       HT       0.417000       1.00800           0
     26769 TIP3     4763     TIP3     OH2      OT      -0.834000       15.9994           0
     26770 TIP3     4763     TIP3     H1       HT       0.417000       1.00800           0
     26771 TIP3     4763     TIP3     H2       HT       0.417000       1.00800           0
     26772 TIP3     4764     TIP3     OH2      OT      -0.834000       15.9994           0
     26773 TIP3     4764     TIP3     H1       HT       0.417000       1.00800           0
     26774 TIP3     4764     TIP3     H2       HT       0.417000       1.00800           0
     26775 TIP3     4765     TIP3     OH2      OT      -0.834000       15.9994           0
     26776 TIP3     4765     TIP3     H1       HT       0.417000       1.00800           0
     26777 TIP3     4765     TIP3     H2       HT       0.417000       1.00800           0
     26778 TIP3     4766     TIP3     OH2      OT      -0.834000       15.9994           0
     26779 TIP3     4766     TIP3     H1       HT       0.417000       1.00800           0
     26780 TIP3     4766     TIP3     H2       HT       0.417000       1.00800           0
     26781 TIP3     4767     TIP3     OH2      OT      -0.834000       15.9994           0
     26782 TIP3     4767     TIP3     H1       HT       0.417000       1.00800           0
     26783 TIP3     4767     TIP3     H2       HT       0.417000       1.00800           0
     26784 TIP3     4768     TIP3     OH2      OT      -0.834000       15.9994           0
     26785 TIP3     4768     TIP3     H1       HT       0.417000       1.00800           0
     26786 TIP3     4768     TIP3     H2       HT       0.417000       1.00800           0
     26787 TIP3     4769     TIP3     OH2      OT      -0.834000       15.9994           0
     26788 TIP3     4769     TIP3     H1       HT       0.417000       1.00800           0
     26789 TIP3     4769     TIP3     H2       HT       0.417000       1.00800           0
     26790 TIP3     4770     TIP3     OH2      OT      -0.834000       15.9994           0
     26791 TIP3     4770     TIP3     H1       HT       0.417000       1.00800           0
     26792 TIP3     4770     TIP3     H2       HT       0.417000       1.00800           0
     26793 TIP3     4771     TIP3     OH2      OT      -0.834000       15.9994           0
     26794 TIP3     4771     TIP3     H1       HT       0.417000       1.00800           0
     26795 TIP3     4771     TIP3     H2       HT       0.417000       1.00800           0
     26796 TIP3     4772     TIP3     OH2      OT      -0.834000       15.9994           0
     26797 TIP3     4772     TIP3     H1       HT       0.417000       1.00800           0
     26798 TIP3     4772     TIP3     H2       HT       0.417000       1.00800           0
     26799 TIP3     4773     TIP3     OH2      OT      -0.834000       15.9994           0
     26800 TIP3     4773     TIP3     H1       HT       0.417000       1.00800           0
     26801 TIP3     4773     TIP3     H2       HT       0.417000       1.00800           0
     26802 TIP3     4774     TIP3     OH2      OT      -0.834000       15.9994           0
     26803 TIP3     4774     TIP3     H1       HT       0.417000       1.00800           0
     26804 TIP3     4774     TIP3     H2       HT       0.417000       1.00800           0
     26805 TIP3     4775     TIP3     OH2      OT      -0.834000       15.9994           0
     26806 TIP3     4775     TIP3     H1       HT       0.417000       1.00800           0
     26807 TIP3     4775     TIP3     H2       HT       0.417000       1.00800           0
     26808 TIP3     4776     TIP3     OH2      OT      -0.834000       15.9994           0
     26809 TIP3     4776     TIP3     H1       HT       0.417000       1.00800           0
     26810 TIP3     4776     TIP3     H2       HT       0.417000       1.00800           0
     26811 TIP3     4777     TIP3     OH2      OT      -0.834000       15.9994           0
     26812 TIP3     4777     TIP3     H1       HT       0.417000       1.00800           0
     26813 TIP3     4777     TIP3     H2       HT       0.417000       1.00800           0
     26814 TIP3     4778     TIP3     OH2      OT      -0.834000       15.9994           0
     26815 TIP3     4778     TIP3     H1       HT       0.417000       1.00800           0
     26816 TIP3     4778     TIP3     H2       HT       0.417000       1.00800           0
     26817 TIP3     4779     TIP3     OH2      OT      -0.834000       15.9994           0
     26818 TIP3     4779     TIP3     H1       HT       0.417000       1.00800           0
     26819 TIP3     4779     TIP3     H2       HT       0.417000       1.00800           0
     26820 TIP3     4780     TIP3     OH2      OT      -0.834000       15.9994           0
     26821 TIP3     4780     TIP3     H1       HT       0.417000       1.00800           0
     26822 TIP3     4780     TIP3     H2       HT       0.417000       1.00800           0
     26823 TIP3     4781     TIP3     OH2      OT      -0.834000       15.9994           0
     26824 TIP3     4781     TIP3     H1       HT       0.417000       1.00800           0
     26825 TIP3     4781     TIP3     H2       HT       0.417000       1.00800           0
     26826 TIP3     4782     TIP3     OH2      OT      -0.834000       15.9994           0
     26827 TIP3     4782     TIP3     H1       HT       0.417000       1.00800           0
     26828 TIP3     4782     TIP3     H2       HT       0.417000       1.00800           0
     26829 TIP3     4783     TIP3     OH2      OT      -0.834000       15.9994           0
     26830 TIP3     4783     TIP3     H1       HT       0.417000       1.00800           0
     26831 TIP3     4783     TIP3     H2       HT       0.417000       1.00800           0
     26832 TIP3     4784     TIP3     OH2      OT      -0.834000       15.9994           0
     26833 TIP3     4784     TIP3     H1       HT       0.417000       1.00800           0
     26834 TIP3     4784     TIP3     H2       HT       0.417000       1.00800           0
     26835 TIP3     4785     TIP3     OH2      OT      -0.834000       15.9994           0
     26836 TIP3     4785     TIP3     H1       HT       0.417000       1.00800           0
     26837 TIP3     4785     TIP3     H2       HT       0.417000       1.00800           0
     26838 TIP3     4786     TIP3     OH2      OT      -0.834000       15.9994           0
     26839 TIP3     4786     TIP3     H1       HT       0.417000       1.00800           0
     26840 TIP3     4786     TIP3     H2       HT       0.417000       1.00800           0
     26841 TIP3     4787     TIP3     OH2      OT      -0.834000       15.9994           0
     26842 TIP3     4787     TIP3     H1       HT       0.417000       1.00800           0
     26843 TIP3     4787     TIP3     H2       HT       0.417000       1.00800           0
     26844 TIP3     4788     TIP3     OH2      OT      -0.834000       15.9994           0
     26845 TIP3     4788     TIP3     H1       HT       0.417000       1.00800           0
     26846 TIP3     4788     TIP3     H2       HT       0.417000       1.00800           0
     26847 TIP3     4789     TIP3     OH2      OT      -0.834000       15.9994           0
     26848 TIP3     4789     TIP3     H1       HT       0.417000       1.00800           0
     26849 TIP3     4789     TIP3     H2       HT       0.417000       1.00800           0
     26850 TIP3     4790     TIP3     OH2      OT      -0.834000       15.9994           0
     26851 TIP3     4790     TIP3     H1       HT       0.417000       1.00800           0
     26852 TIP3     4790     TIP3     H2       HT       0.417000       1.00800           0
     26853 TIP3     4791     TIP3     OH2      OT      -0.834000       15.9994           0
     26854 TIP3     4791     TIP3     H1       HT       0.417000       1.00800           0
     26855 TIP3     4791     TIP3     H2       HT       0.417000       1.00800           0
     26856 TIP3     4792     TIP3     OH2      OT      -0.834000       15.9994           0
     26857 TIP3     4792     TIP3     H1       HT       0.417000       1.00800           0
     26858 TIP3     4792     TIP3     H2       HT       0.417000       1.00800           0
     26859 TIP3     4793     TIP3     OH2      OT      -0.834000       15.9994           0
     26860 TIP3     4793     TIP3     H1       HT       0.417000       1.00800           0
     26861 TIP3     4793     TIP3     H2       HT       0.417000       1.00800           0
     26862 TIP3     4794     TIP3     OH2      OT      -0.834000       15.9994           0
     26863 TIP3     4794     TIP3     H1       HT       0.417000       1.00800           0
     26864 TIP3     4794     TIP3     H2       HT       0.417000       1.00800           0
     26865 TIP3     4795     TIP3     OH2      OT      -0.834000       15.9994           0
     26866 TIP3     4795     TIP3     H1       HT       0.417000       1.00800           0
     26867 TIP3     4795     TIP3     H2       HT       0.417000       1.00800           0
     26868 TIP3     4796     TIP3     OH2      OT      -0.834000       15.9994           0
     26869 TIP3     4796     TIP3     H1       HT       0.417000       1.00800           0
     26870 TIP3     4796     TIP3     H2       HT       0.417000       1.00800           0
     26871 TIP3     4797     TIP3     OH2      OT      -0.834000       15.9994           0
     26872 TIP3     4797     TIP3     H1       HT       0.417000       1.00800           0
     26873 TIP3     4797     TIP3     H2       HT       0.417000       1.00800           0
     26874 TIP3     4798     TIP3     OH2      OT      -0.834000       15.9994           0
     26875 TIP3     4798     TIP3     H1       HT       0.417000       1.00800           0
     26876 TIP3     4798     TIP3     H2       HT       0.417000       1.00800           0
     26877 TIP3     4799     TIP3     OH2      OT      -0.834000       15.9994           0
     26878 TIP3     4799     TIP3     H1       HT       0.417000       1.00800           0
     26879 TIP3     4799     TIP3     H2       HT       0.417000       1.00800           0
     26880 TIP3     4800     TIP3     OH2      OT      -0.834000       15.9994           0
     26881 TIP3     4800     TIP3     H1       HT       0.417000       1.00800           0
     26882 TIP3     4800     TIP3     H2       HT       0.417000       1.00800           0
     26883 TIP3     4801     TIP3     OH2      OT      -0.834000       15.9994           0
     26884 TIP3     4801     TIP3     H1       HT       0.417000       1.00800           0
     26885 TIP3     4801     TIP3     H2       HT       0.417000       1.00800           0
     26886 TIP3     4802     TIP3     OH2      OT      -0.834000       15.9994           0
     26887 TIP3     4802     TIP3     H1       HT       0.417000       1.00800           0
     26888 TIP3     4802     TIP3     H2       HT       0.417000       1.00800           0
     26889 TIP3     4803     TIP3     OH2      OT      -0.834000       15.9994           0
     26890 TIP3     4803     TIP3     H1       HT       0.417000       1.00800           0
     26891 TIP3     4803     TIP3     H2       HT       0.417000       1.00800           0
     26892 TIP3     4804     TIP3     OH2      OT      -0.834000       15.9994           0
     26893 TIP3     4804     TIP3     H1       HT       0.417000       1.00800           0
     26894 TIP3     4804     TIP3     H2       HT       0.417000       1.00800           0
     26895 TIP3     4805     TIP3     OH2      OT      -0.834000       15.9994           0
     26896 TIP3     4805     TIP3     H1       HT       0.417000       1.00800           0
     26897 TIP3     4805     TIP3     H2       HT       0.417000       1.00800           0
     26898 TIP3     4806     TIP3     OH2      OT      -0.834000       15.9994           0
     26899 TIP3     4806     TIP3     H1       HT       0.417000       1.00800           0
     26900 TIP3     4806     TIP3     H2       HT       0.417000       1.00800           0
     26901 TIP3     4807     TIP3     OH2      OT      -0.834000       15.9994           0
     26902 TIP3     4807     TIP3     H1       HT       0.417000       1.00800           0
     26903 TIP3     4807     TIP3     H2       HT       0.417000       1.00800           0
     26904 TIP3     4808     TIP3     OH2      OT      -0.834000       15.9994           0
     26905 TIP3     4808     TIP3     H1       HT       0.417000       1.00800           0
     26906 TIP3     4808     TIP3     H2       HT       0.417000       1.00800           0
     26907 TIP3     4809     TIP3     OH2      OT      -0.834000       15.9994           0
     26908 TIP3     4809     TIP3     H1       HT       0.417000       1.00800           0
     26909 TIP3     4809     TIP3     H2       HT       0.417000       1.00800           0
     26910 TIP3     4810     TIP3     OH2      OT      -0.834000       15.9994           0
     26911 TIP3     4810     TIP3     H1       HT       0.417000       1.00800           0
     26912 TIP3     4810     TIP3     H2       HT       0.417000       1.00800           0
     26913 TIP3     4811     TIP3     OH2      OT      -0.834000       15.9994           0
     26914 TIP3     4811     TIP3     H1       HT       0.417000       1.00800           0
     26915 TIP3     4811     TIP3     H2       HT       0.417000       1.00800           0
     26916 TIP3     4812     TIP3     OH2      OT      -0.834000       15.9994           0
     26917 TIP3     4812     TIP3     H1       HT       0.417000       1.00800           0
     26918 TIP3     4812     TIP3     H2       HT       0.417000       1.00800           0
     26919 TIP3     4813     TIP3     OH2      OT      -0.834000       15.9994           0
     26920 TIP3     4813     TIP3     H1       HT       0.417000       1.00800           0
     26921 TIP3     4813     TIP3     H2       HT       0.417000       1.00800           0
     26922 TIP3     4814     TIP3     OH2      OT      -0.834000       15.9994           0
     26923 TIP3     4814     TIP3     H1       HT       0.417000       1.00800           0
     26924 TIP3     4814     TIP3     H2       HT       0.417000       1.00800           0
     26925 TIP3     4815     TIP3     OH2      OT      -0.834000       15.9994           0
     26926 TIP3     4815     TIP3     H1       HT       0.417000       1.00800           0
     26927 TIP3     4815     TIP3     H2       HT       0.417000       1.00800           0
     26928 TIP3     4816     TIP3     OH2      OT      -0.834000       15.9994           0
     26929 TIP3     4816     TIP3     H1       HT       0.417000       1.00800           0
     26930 TIP3     4816     TIP3     H2       HT       0.417000       1.00800           0
     26931 TIP3     4817     TIP3     OH2      OT      -0.834000       15.9994           0
     26932 TIP3     4817     TIP3     H1       HT       0.417000       1.00800           0
     26933 TIP3     4817     TIP3     H2       HT       0.417000       1.00800           0
     26934 TIP3     4818     TIP3     OH2      OT      -0.834000       15.9994           0
     26935 TIP3     4818     TIP3     H1       HT       0.417000       1.00800           0
     26936 TIP3     4818     TIP3     H2       HT       0.417000       1.00800           0
     26937 TIP3     4819     TIP3     OH2      OT      -0.834000       15.9994           0
     26938 TIP3     4819     TIP3     H1       HT       0.417000       1.00800           0
     26939 TIP3     4819     TIP3     H2       HT       0.417000       1.00800           0
     26940 TIP3     4820     TIP3     OH2      OT      -0.834000       15.9994           0
     26941 TIP3     4820     TIP3     H1       HT       0.417000       1.00800           0
     26942 TIP3     4820     TIP3     H2       HT       0.417000       1.00800           0
     26943 TIP3     4821     TIP3     OH2      OT      -0.834000       15.9994           0
     26944 TIP3     4821     TIP3     H1       HT       0.417000       1.00800           0
     26945 TIP3     4821     TIP3     H2       HT       0.417000       1.00800           0
     26946 TIP3     4822     TIP3     OH2      OT      -0.834000       15.9994           0
     26947 TIP3     4822     TIP3     H1       HT       0.417000       1.00800           0
     26948 TIP3     4822     TIP3     H2       HT       0.417000       1.00800           0
     26949 TIP3     4823     TIP3     OH2      OT      -0.834000       15.9994           0
     26950 TIP3     4823     TIP3     H1       HT       0.417000       1.00800           0
     26951 TIP3     4823     TIP3     H2       HT       0.417000       1.00800           0
     26952 TIP3     4824     TIP3     OH2      OT      -0.834000       15.9994           0
     26953 TIP3     4824     TIP3     H1       HT       0.417000       1.00800           0
     26954 TIP3     4824     TIP3     H2       HT       0.417000       1.00800           0
     26955 TIP3     4825     TIP3     OH2      OT      -0.834000       15.9994           0
     26956 TIP3     4825     TIP3     H1       HT       0.417000       1.00800           0
     26957 TIP3     4825     TIP3     H2       HT       0.417000       1.00800           0
     26958 TIP3     4826     TIP3     OH2      OT      -0.834000       15.9994           0
     26959 TIP3     4826     TIP3     H1       HT       0.417000       1.00800           0
     26960 TIP3     4826     TIP3     H2       HT       0.417000       1.00800           0
     26961 TIP3     4827     TIP3     OH2      OT      -0.834000       15.9994           0
     26962 TIP3     4827     TIP3     H1       HT       0.417000       1.00800           0
     26963 TIP3     4827     TIP3     H2       HT       0.417000       1.00800           0
     26964 TIP3     4828     TIP3     OH2      OT      -0.834000       15.9994           0
     26965 TIP3     4828     TIP3     H1       HT       0.417000       1.00800           0
     26966 TIP3     4828     TIP3     H2       HT       0.417000       1.00800           0
     26967 TIP3     4829     TIP3     OH2      OT      -0.834000       15.9994           0
     26968 TIP3     4829     TIP3     H1       HT       0.417000       1.00800           0
     26969 TIP3     4829     TIP3     H2       HT       0.417000       1.00800           0
     26970 TIP3     4830     TIP3     OH2      OT      -0.834000       15.9994           0
     26971 TIP3     4830     TIP3     H1       HT       0.417000       1.00800           0
     26972 TIP3     4830     TIP3     H2       HT       0.417000       1.00800           0
     26973 TIP3     4831     TIP3     OH2      OT      -0.834000       15.9994           0
     26974 TIP3     4831     TIP3     H1       HT       0.417000       1.00800           0
     26975 TIP3     4831     TIP3     H2       HT       0.417000       1.00800           0
     26976 TIP3     4832     TIP3     OH2      OT      -0.834000       15.9994           0
     26977 TIP3     4832     TIP3     H1       HT       0.417000       1.00800           0
     26978 TIP3     4832     TIP3     H2       HT       0.417000       1.00800           0
     26979 TIP3     4833     TIP3     OH2      OT      -0.834000       15.9994           0
     26980 TIP3     4833     TIP3     H1       HT       0.417000       1.00800           0
     26981 TIP3     4833     TIP3     H2       HT       0.417000       1.00800           0
     26982 TIP3     4834     TIP3     OH2      OT      -0.834000       15.9994           0
     26983 TIP3     4834     TIP3     H1       HT       0.417000       1.00800           0
     26984 TIP3     4834     TIP3     H2       HT       0.417000       1.00800           0
     26985 TIP3     4835     TIP3     OH2      OT      -0.834000       15.9994           0
     26986 TIP3     4835     TIP3     H1       HT       0.417000       1.00800           0
     26987 TIP3     4835     TIP3     H2       HT       0.417000       1.00800           0
     26988 TIP3     4836     TIP3     OH2      OT      -0.834000       15.9994           0
     26989 TIP3     4836     TIP3     H1       HT       0.417000       1.00800           0
     26990 TIP3     4836     TIP3     H2       HT       0.417000       1.00800           0
     26991 TIP3     4837     TIP3     OH2      OT      -0.834000       15.9994           0
     26992 TIP3     4837     TIP3     H1       HT       0.417000       1.00800           0
     26993 TIP3     4837     TIP3     H2       HT       0.417000       1.00800           0
     26994 TIP3     4838     TIP3     OH2      OT      -0.834000       15.9994           0
     26995 TIP3     4838     TIP3     H1       HT       0.417000       1.00800           0
     26996 TIP3     4838     TIP3     H2       HT       0.417000       1.00800           0
     26997 TIP3     4839     TIP3     OH2      OT      -0.834000       15.9994           0
     26998 TIP3     4839     TIP3     H1       HT       0.417000       1.00800           0
     26999 TIP3     4839     TIP3     H2       HT       0.417000       1.00800           0
     27000 TIP3     4840     TIP3     OH2      OT      -0.834000       15.9994           0
     27001 TIP3     4840     TIP3     H1       HT       0.417000       1.00800           0
     27002 TIP3     4840     TIP3     H2       HT       0.417000       1.00800           0
     27003 TIP3     4841     TIP3     OH2      OT      -0.834000       15.9994           0
     27004 TIP3     4841     TIP3     H1       HT       0.417000       1.00800           0
     27005 TIP3     4841     TIP3     H2       HT       0.417000       1.00800           0
     27006 TIP3     4842     TIP3     OH2      OT      -0.834000       15.9994           0
     27007 TIP3     4842     TIP3     H1       HT       0.417000       1.00800           0
     27008 TIP3     4842     TIP3     H2       HT       0.417000       1.00800           0
     27009 TIP3     4843     TIP3     OH2      OT      -0.834000       15.9994           0
     27010 TIP3     4843     TIP3     H1       HT       0.417000       1.00800           0
     27011 TIP3     4843     TIP3     H2       HT       0.417000       1.00800           0
     27012 TIP3     4844     TIP3     OH2      OT      -0.834000       15.9994           0
     27013 TIP3     4844     TIP3     H1       HT       0.417000       1.00800           0
     27014 TIP3     4844     TIP3     H2       HT       0.417000       1.00800           0
     27015 TIP3     4845     TIP3     OH2      OT      -0.834000       15.9994           0
     27016 TIP3     4845     TIP3     H1       HT       0.417000       1.00800           0
     27017 TIP3     4845     TIP3     H2       HT       0.417000       1.00800           0
     27018 IONS     1        POT      POT      POT      1.000000       39.0983           0
     27019 IONS     2        POT      POT      POT      1.000000       39.0983           0
     27020 IONS     3        POT      POT      POT      1.000000       39.0983           0
     27021 IONS     4        POT      POT      POT      1.000000       39.0983           0
     27022 IONS     5        POT      POT      POT      1.000000       39.0983           0
     27023 IONS     6        POT      POT      POT      1.000000       39.0983           0
     27024 IONS     7        POT      POT      POT      1.000000       39.0983           0
     27025 IONS     8        POT      POT      POT      1.000000       39.0983           0
     27026 IONS     9        POT      POT      POT      1.000000       39.0983           0
     27027 IONS     10       POT      POT      POT      1.000000       39.0983           0
     27028 IONS     11       POT      POT      POT      1.000000       39.0983           0
     27029 IONS     12       POT      POT      POT      1.000000       39.0983           0
     27030 IONS     13       POT      POT      POT      1.000000       39.0983           0
     27031 IONS     14       POT      POT      POT      1.000000       39.0983           0
     27032 IONS     15       POT      POT      POT      1.000000       39.0983           0
     27033 IONS     16       POT      POT      POT      1.000000       39.0983           0
     27034 IONS     17       POT      POT      POT      1.000000       39.0983           0
     27035 IONS     18       POT      POT      POT      1.000000       39.0983           0
     27036 IONS     19       POT      POT      POT      1.000000       39.0983           0
     27037 IONS     20       POT      POT      POT      1.000000       39.0983           0
     27038 IONS     21       CLA      CLA      CLA     -1.000000       35.4500           0
     27039 IONS     22       CLA      CLA      CLA     -1.000000       35.4500           0
     27040 IONS     23       CLA      CLA      CLA     -1.000000       35.4500           0
     27041 IONS     24       CLA      CLA      CLA     -1.000000       35.4500           0
     27042 IONS     25       CLA      CLA      CLA     -1.000000       35.4500           0
     27043 IONS     26       CLA      CLA      CLA     -1.000000       35.4500           0
     27044 IONS     27       CLA      CLA      CLA     -1.000000       35.4500           0
     27045 IONS     28       CLA      CLA      CLA     -1.000000       35.4500           0
     27046 IONS     29       CLA      CLA      CLA     -1.000000       35.4500           0
     27047 IONS     30       CLA      CLA      CLA     -1.000000       35.4500           0
     27048 IONS     31       CLA      CLA      CLA     -1.000000       35.4500           0
     27049 IONS     32       CLA      CLA      CLA     -1.000000       35.4500           0

     27073 !NBOND: bonds
         5         1         5         7         1         2         1         3
         1         4         6         5        11         9        14        11
        17        14        19        17         7         8         7         9
        22         9        22        24         9        10        11        12
        11        13        14        15        14        16        19        20
        19        21        23        22        17        18        28        26
        24        25        24        26        32        26        32        34
        26        27        28        29        28        30        28        31
        33        32        46        38        46        48        34        38
        38        40        40        43        43        35        34        35
        39        38        44        43        45        43        36        35
        37        35        41        40        42        40        47        46
        52        50        48        49        48        50        56        50
        56        58        50        51        52        53        52        54
        52        55        57        56        62        60        65        62
        73        65        68        66        70        75        71        70
        58        59        58        60        77        60        77        79
        60        61        62        63        62        64        66        67
        73        74        68        69        75        76        71        72
        78        77        66        65        68        70        75        73
        83        81        86        83        89        86        92        89
        95        92        79        80        79        81        99        81
        99       101        81        82        83        84        83        85
        86        87        86        88        89        90        89        91
        92        93        92        94       100        99        95        96
        95        97        95        98       105       103       108       105
       111       108       114       111       117       114       101       102
       101       103       121       103       121       123       103       104
       105       106       105       107       108       109       108       110
       111       112       111       113       114       115       114       116
       122       121       117       118       117       119       117       120
       127       125       123       124       123       125       131       125
       131       133       125       126       127       128       127       129
       127       130       132       131       137       135       133       134
       133       135       141       135       141       143       135       136
       137       138       137       139       137       140       142       141
       147       145       150       147       153       150       156       153
       159       156       143       144       143       145       163       145
       163       165       145       146       147       148       147       149
       150       151       150       152       153       154       153       155
       156       157       156       158       164       163       159       160
       159       161       159       162       169       167       172       169
       175       172       178       175       181       178       165       166
       165       167       185       167       185       187       167       168
       169       170       169       171       172       173       172       174
       175       176       175       177       178       179       178       180
       186       185       181       182       181       183       181       184
       191       189       194       191       196       194       200       194
       187       188       187       189       204       189       204       206
       189       190       191       192       191       193       194       195
       196       197       196       198       196       199       200       201
       200       202       200       203       205       204       210       208
       206       207       206       208       214       208       214       216
       208       209       210       211       210       212       210       213
       215       214       220       218       223       220       226       223
       228       226       216       217       216       218       229       218
       229       231       218       219       220       221       220       222
       223       224       223       225       230       229       226       227
       235       233       238       235       231       232       231       233
       240       233       233       234       235       236       235       237
       238       239       241       240       240       242       242       243
       242       244       244       245       244       246       244       247
       248       250       248       249       250       251       248       294
       294       295       294       296       294       291       291       292
       291       293       248       252       252       253       252       254
       252       255       255       286       286       291       286       287
       287       288       287       289       287       290       255       256
       256       257       256       258       258       259       258       260
       258       261       261       262       261       284       284       285
       284       286       261       263       263       264       263       273
       273       278       278       279       278       280       278       281
       281       282       281       283       281       284       273       274
       274       275       274       276       274       277       263       265
       265       266       265       267       265       268       268       269
       268       270       268       271       271       272       271       273
       271       297       297       298       297       299       299       300
       299       301       299       302       297       303       303       304
       303       305       303       306       306       307       306       308
       306       309       309       310       309       311       309       312
       312       313       312       314       314       315       314       316
       314       317       312       318       318       319       318       320
       318       321       322       324       322       323       324       325
       322       368       368       369       368       370       368       365
       365       366       365       367       322       326       326       327
       326       328       326       329       329       360       360       365
       360       361       361       362       361       363       361       364
       329       330       330       331       330       332       332       333
       332       334       332       335       335       336       335       358
       358       359       358       360       335       337       337       338
       337       347       347       352       352       353       352       354
       352       355       355       356       355       357       355       358
       347       348       348       349       348       350       348       351
       337       339       339       340       339       341       339       342
       342       343       342       344       342       345       345       346
       345       347       345       371       371       372       371       373
       373       374       373       375       373       376       371       377
       377       378       377       379       377       380       380       381
       380       382       380       383       383       384       383       385
       383       386       386       387       386       388       388       389
       388       390       388       391       386       392       392       393
       392       394       392       395       396       398       396       397
       398       399       396       442       442       443       442       444
       442       439       439       440       439       441       396       400
       400       401       400       402       400       403       403       434
       434       439       434       435       435       436       435       437
       435       438       403       404       404       405       404       406
       406       407       406       408       406       409       409       410
       409       432       432       433       432       434       409       411
       411       412       411       421       421       426       426       427
       426       428       426       429       429       430       429       431
       429       432       421       422       422       423       422       424
       422       425       411       413       413       414       413       415
       413       416       416       417       416       418       416       419
       419       420       419       421       419       445       445       446
       445       447       447       448       447       449       447       450
       445       451       451       452       451       453       451       454
       454       455       454       456       454       457       457       458
       457       459       457       460       460       461       460       462
       462       463       462       464       462       465       460       466
       466       467       466       468       466       469       470       472
       470       471       472       473       470       516       516       517
       516       518       516       513       513       514       513       515
       470       474       474       475       474       476       474       477
       477       508       508       513       508       509       509       510
       509       511       509       512       477       478       478       479
       478       480       480       481       480       482       480       483
       483       484       483       506       506       507       506       508
       483       485       485       486       485       495       495       500
       500       501       500       502       500       503       503       504
       503       505       503       506       495       496       496       497
       496       498       496       499       485       487       487       488
       487       489       487       490       490       491       490       492
       490       493       493       494       493       495       493       519
       519       520       519       521       521       522       521       523
       521       524       519       525       525       526       525       527
       525       528       528       529       528       530       528       531
       531       532       531       533       531       534       534       535
       534       536       536       537       536       538       536       539
       534       540       540       541       540       542       540       543
       544       546       544       545       546       547       544       590
       590       591       590       592       590       587       587       588
       587       589       544       548       548       549       548       550
       548       551       551       582       582       587       582       583
       583       584       583       585       583       586       551       552
       552       553       552       554       554       555       554       556
       554       557       557       558       557       580       580       581
       580       582       557       559       559       560       559       569
       569       574       574       575       574       576       574       577
       577       578       577       579       577       580       569       570
       570       571       570       572       570       573       559       561
       561       562       561       563       561       564       564       565
       564       566       564       567       567       568       567       569
       567       593       593       594       593       595       595       596
       595       597       595       598       593       599       599       600
       599       601       599       602       602       603       602       604
       602       605       605       606       605       607       605       608
       608       609       608       610       610       611       610       612
       610       613       608       614       614       615       614       616
       614       617       618       620       618       619       620       621
       618       664       664       665       664       666       664       661
       661       662       661       663       618       622       622       623
       622       624       622       625       625       656       656       661
       656       657       657       658       657       659       657       660
       625       626       626       627       626       628       628       629
       628       630       628       631       631       632       631       654
       654       655       654       656       631       633       633       634
       633       643       643       648       648       649       648       650
       648       651       651       652       651       653       651       654
       643       644       644       645       644       646       644       647
       633       635       635       636       635       637       635       638
       638       639       638       640       638       641       641       642
       641       643       641       667       667       668       667       669
       669       670       669       671       669       672       667       673
       673       674       673       675       673       676       676       677
       676       678       676       679       679       680       679       681
       679       682       682       683       682       684       684       685
       684       686       684       687       682       688       688       689
       688       690       688       691       692       694       692       693
       694       695       692       738       738       739       738       740
       738       735       735       736       735       737       692       696
       696       697       696       698       696       699       699       730
       730       735       730       731       731       732       731       733
       731       734       699       700       700       701       700       702
       702       703       702       704       702       705       705       706
       705       728       728       729       728       730       705       707
       707       708       707       717       717       722       722       723
       722       724       722       725       725       726       725       727
       725       728       717       718       718       719       718       720
       718       721       707       709       709       710       709       711
       709       712       712       713       712       714       712       715
       715       716       715       717       715       741       741       742
       741       743       743       744       743       745       743       746
       741       747       747       748       747       749       747       750
       750       751       750       752       750       753       753       754
       753       755       753       756       756       757       756       758
       758       759       758       760       758       761       756       762
       762       763       762       764       762       765       766       768
       766       767       768       769       766       812       812       813
       812       814       812       809       809       810       809       811
       766       770       770       771       770       772       770       773
       773       804       804       809       804       805       805       806
       805       807       805       808       773       774       774       775
       774       776       776       777       776       778       776       779
       779       780       779       802       802       803       802       804
       779       781       781       782       781       791       791       796
       796       797       796       798       796       799       799       800
       799       801       799       802       791       792       792       793
       792       794       792       795       781       783       783       784
       783       785       783       786       786       787       786       788
       786       789       789       790       789       791       789       815
       815       816       815       817       817       818       817       819
       817       820       815       821       821       822       821       823
       821       824       824       825       824       826       824       827
       827       828       827       829       827       830       830       831
       830       832       832       833       832       834       832       835
       830       836       836       837       836       838       836       839
       840       842       840       841       842       843       840       886
       886       887       886       888       886       883       883       884
       883       885       840       844       844       845       844       846
       844       847       847       878       878       883       878       879
       879       880       879       881       879       882       847       848
       848       849       848       850       850       851       850       852
       850       853       853       854       853       876       876       877
       876       878       853       855       855       856       855       865
       865       870       870       871       870       872       870       873
       873       874       873       875       873       876       865       866
       866       867       866       868       866       869       855       857
       857       858       857       859       857       860       860       861
       860       862       860       863       863       864       863       865
       863       889       889       890       889       891       891       892
       891       893       891       894       889       895       895       896
       895       897       895       898       898       899       898       900
       898       901       901       902       901       903       901       904
       904       905       904       906       906       907       906       908
       906       909       904       910       910       911       910       912
       910       913       914       916       914       915       916       917
       914       960       960       961       960       962       960       957
       957       958       957       959       914       918       918       919
       918       920       918       921       921       952       952       957
       952       953       953       954       953       955       953       956
       921       922       922       923       922       924       924       925
       924       926       924       927       927       928       927       950
       950       951       950       952       927       929       929       930
       929       939       939       944       944       945       944       946
       944       947       947       948       947       949       947       950
       939       940       940       941       940       942       940       943
       929       931       931       932       931       933       931       934
       934       935       934       936       934       937       937       938
       937       939       937       963       963       964       963       965
       965       966       965       967       965       968       963       969
       969       970       969       971       969       972       972       973
       972       974       972       975       975       976       975       977
       975       978       978       979       978       980       980       981
       980       982       980       983       978       984       984       985
       984       986       984       987       988       990       988       989
       990       991       988      1034      1034      1035      1034      1036
      1034      1031      1031      1032      1031      1033       988       992
       992       993       992       994       992       995       995      1026
      1026      1031      1026      1027      1027      1028      1027      1029
      1027      1030       995       996       996       997       996       998
       998       999       998      1000       998      1001      1001      1002
      1001      1024      1024      1025      1024      1026      1001      1003
      1003      1004      1003      1013      1013      1018      1018      1019
      1018      1020      1018      1021      1021      1022      1021      1023
      1021      1024      1013      1014      1014      1015      1014      1016
      1014      1017      1003      1005      1005      1006      1005      1007
      1005      1008      1008      1009      1008      1010      1008      1011
      1011      1012      1011      1013      1011      1037      1037      1038
      1037      1039      1039      1040      1039      1041      1039      1042
      1037      1043      1043      1044      1043      1045      1043      1046
      1046      1047      1046      1048      1046      1049      1049      1050
      1049      1051      1049      1052      1052      1053      1052      1054
      1054      1055      1054      1056      1054      1057      1052      1058
      1058      1059      1058      1060      1058      1061      1062      1064
      1062      1063      1064      1065      1062      1108      1108      1109
      1108      1110      1108      1105      1105      1106      1105      1107
      1062      1066      1066      1067      1066      1068      1066      1069
      1069      1100      1100      1105      1100      1101      1101      1102
      1101      1103      1101      1104      1069      1070      1070      1071
      1070      1072      1072      1073      1072      1074      1072      1075
      1075      1076      1075      1098      1098      1099      1098      1100
      1075      1077      1077      1078      1077      1087      1087      1092
      1092      1093      1092      1094      1092      1095      1095      1096
      1095      1097      1095      1098      1087      1088      1088      1089
      1088      1090      1088      1091      1077      1079      1079      1080
      1079      1081      1079      1082      1082      1083      1082      1084
      1082      1085      1085      1086      1085      1087      1085      1111
      1111      1112      1111      1113      1113      1114      1113      1115
      1113      1116      1111      1117      1117      1118      1117      1119
      1117      1120      1120      1121      1120      1122      1120      1123
      1123      1124      1123      1125      1123      1126      1126      1127
      1126      1128      1128      1129      1128      1130      1128      1131
      1126      1132      1132      1133      1132      1134      1132      1135
      1136      1138      1136      1137      1138      1139      1136      1182
      1182      1183      1182      1184      1182      1179      1179      1180
      1179      1181      1136      1140      1140      1141      1140      1142
      1140      1143      1143      1174      1174      1179      1174      1175
      1175      1176      1175      1177      1175      1178      1143      1144
      1144      1145      1144      1146      1146      1147      1146      1148
      1146      1149      1149      1150      1149      1172      1172      1173
      1172      1174      1149      1151      1151      1152      1151      1161
      1161      1166      1166      1167      1166      1168      1166      1169
      1169      1170      1169      1171      1169      1172      1161      1162
      1162      1163      1162      1164      1162      1165      1151      1153
      1153      1154      1153      1155      1153      1156      1156      1157
      1156      1158      1156      1159      1159      1160      1159      1161
      1159      1185      1185      1186      1185      1187      1187      1188
      1187      1189      1187      1190      1185      1191      1191      1192
      1191      1193      1191      1194      1194      1195      1194      1196
      1194      1197      1197      1198      1197      1199      1197      1200
      1200      1201      1200      1202      1202      1203      1202      1204
      1202      1205      1200      1206      1206      1207      1206      1208
      1206      1209      1210      1212      1210      1211      1212      1213
      1210      1256      1256      1257      1256      1258      1256      1253
      1253      1254      1253      1255      1210      1214      1214      1215
      1214      1216      1214      1217      1217      1248      1248      1253
      1248      1249      1249      1250      1249      1251      1249      1252
      1217      1218      1218      1219      1218      1220      1220      1221
      1220      1222      1220      1223      1223      1224      1223      1246
      1246      1247      1246      1248      1223      1225      1225      1226
      1225      1235      1235      1240      1240      1241      1240      1242
      1240      1243      1243      1244      1243      1245      1243      1246
      1235      1236      1236      1237      1236      1238      1236      1239
      1225      1227      1227      1228      1227      1229      1227      1230
      1230      1231      1230      1232      1230      1233      1233      1234
      1233      1235      1233      1259      1259      1260      1259      1261
      1261      1262      1261      1263      1261      1264      1259      1265
      1265      1266      1265      1267      1265      1268      1268      1269
      1268      1270      1268      1271      1271      1272      1271      1273
      1271      1274      1274      1275      1274      1276      1276      1277
      1276      1278      1276      1279      1274      1280      1280      1281
      1280      1282      1280      1283      1284      1286      1284      1285
      1286      1287      1284      1330      1330      1331      1330      1332
      1330      1327      1327      1328      1327      1329      1284      1288
      1288      1289      1288      1290      1288      1291      1291      1322
      1322      1327      1322      1323      1323      1324      1323      1325
      1323      1326      1291      1292      1292      1293      1292      1294
      1294      1295      1294      1296      1294      1297      1297      1298
      1297      1320      1320      1321      1320      1322      1297      1299
      1299      1300      1299      1309      1309      1314      1314      1315
      1314      1316      1314      1317      1317      1318      1317      1319
      1317      1320      1309      1310      1310      1311      1310      1312
      1310      1313      1299      1301      1301      1302      1301      1303
      1301      1304      1304      1305      1304      1306      1304      1307
      1307      1308      1307      1309      1307      1333      1333      1334
      1333      1335      1335      1336      1335      1337      1335      1338
      1333      1339      1339      1340      1339      1341      1339      1342
      1342      1343      1342      1344      1342      1345      1345      1346
      1345      1347      1345      1348      1348      1349      1348      1350
      1350      1351      1350      1352      1350      1353      1348      1354
      1354      1355      1354      1356      1354      1357      1358      1360
      1358      1359      1360      1361      1358      1404      1404      1405
      1404      1406      1404      1401      1401      1402      1401      1403
      1358      1362      1362      1363      1362      1364      1362      1365
      1365      1396      1396      1401      1396      1397      1397      1398
      1397      1399      1397      1400      1365      1366      1366      1367
      1366      1368      1368      1369      1368      1370      1368      1371
      1371      1372      1371      1394      1394      1395      1394      1396
      1371      1373      1373      1374      1373      1383      1383      1388
      1388      1389      1388      1390      1388      1391      1391      1392
      1391      1393      1391      1394      1383      1384      1384      1385
      1384      1386      1384      1387      1373      1375      1375      1376
      1375      1377      1375      1378      1378      1379      1378      1380
      1378      1381      1381      1382      1381      1383      1381      1407
      1407      1408      1407      1409      1409      1410      1409      1411
      1409      1412      1407      1413      1413      1414      1413      1415
      1413      1416      1416      1417      1416      1418      1416      1419
      1419      1420      1419      1421      1419      1422      1422      1423
      1422      1424      1424      1425      1424      1426      1424      1427
      1422      1428      1428      1429      1428      1430      1428      1431
      1432      1434      1432      1433      1434      1435      1432      1478
      1478      1479      1478      1480      1478      1475      1475      1476
      1475      1477      1432      1436      1436      1437      1436      1438
      1436      1439      1439      1470      1470      1475      1470      1471
      1471      1472      1471      1473      1471      1474      1439      1440
      1440      1441      1440      1442      1442      1443      1442      1444
      1442      1445      1445      1446      1445      1468      1468      1469
      1468      1470      1445      1447      1447      1448      1447      1457
      1457      1462      1462      1463      1462      1464      1462      1465
      1465      1466      1465      1467      1465      1468      1457      1458
      1458      1459      1458      1460      1458      1461      1447      1449
      1449      1450      1449      1451      1449      1452      1452      1453
      1452      1454      1452      1455      1455      1456      1455      1457
      1455      1481      1481      1482      1481      1483      1483      1484
      1483      1485      1483      1486      1481      1487      1487      1488
      1487      1489      1487      1490      1490      1491      1490      1492
      1490      1493      1493      1494      1493      1495      1493      1496
      1496      1497      1496      1498      1498      1499      1498      1500
      1498      1501      1496      1502      1502      1503      1502      1504
      1502      1505      1506      1508      1506      1507      1508      1509
      1506      1552      1552      1553      1552      1554      1552      1549
      1549      1550      1549      1551      1506      1510      1510      1511
      1510      1512      1510      1513      1513      1544      1544      1549
      1544      1545      1545      1546      1545      1547      1545      1548
      1513      1514      1514      1515      1514      1516      1516      1517
      1516      1518      1516      1519      1519      1520      1519      1542
      1542      1543      1542      1544      1519      1521      1521      1522
      1521      1531      1531      1536      1536      1537      1536      1538
      1536      1539      1539      1540      1539      1541      1539      1542
      1531      1532      1532      1533      1532      1534      1532      1535
      1521      1523      1523      1524      1523      1525      1523      1526
      1526      1527      1526      1528      1526      1529      1529      1530
      1529      1531      1529      1555      1555      1556      1555      1557
      1557      1558      1557      1559      1557      1560      1555      1561
      1561      1562      1561      1563      1561      1564      1564      1565
      1564      1566      1564      1567      1567      1568      1567      1569
      1567      1570      1570      1571      1570      1572      1572      1573
      1572      1574      1572      1575      1570      1576      1576      1577
      1576      1578      1576      1579      1580      1582      1580      1581
      1582      1583      1580      1626      1626      1627      1626      1628
      1626      1623      1623      1624      1623      1625      1580      1584
      1584      1585      1584      1586      1584      1587      1587      1618
      1618      1623      1618      1619      1619      1620      1619      1621
      1619      1622      1587      1588      1588      1589      1588      1590
      1590      1591      1590      1592      1590      1593      1593      1594
      1593      1616      1616      1617      1616      1618      1593      1595
      1595      1596      1595      1605      1605      1610      1610      1611
      1610      1612      1610      1613      1613      1614      1613      1615
      1613      1616      1605      1606      1606      1607      1606      1608
      1606      1609      1595      1597      1597      1598      1597      1599
      1597      1600      1600      1601      1600      1602      1600      1603
      1603      1604      1603      1605      1603      1629      1629      1630
      1629      1631      1631      1632      1631      1633      1631      1634
      1629      1635      1635      1636      1635      1637      1635      1638
      1638      1639      1638      1640      1638      1641      1641      1642
      1641      1643      1641      1644      1644      1645      1644      1646
      1646      1647      1646      1648      1646      1649      1644      1650
      1650      1651      1650      1652      1650      1653      1654      1656
      1654      1655      1656      1657      1654      1700      1700      1701
      1700      1702      1700      1697      1697      1698      1697      1699
      1654      1658      1658      1659      1658      1660      1658      1661
      1661      1692      1692      1697      1692      1693      1693      1694
      1693      1695      1693      1696      1661      1662      1662      1663
      1662      1664      1664      1665      1664      1666      1664      1667
      1667      1668      1667      1690      1690      1691      1690      1692
      1667      1669      1669      1670      1669      1679      1679      1684
      1684      1685      1684      1686      1684      1687      1687      1688
      1687      1689      1687      1690      1679      1680      1680      1681
      1680      1682      1680      1683      1669      1671      1671      1672
      1671      1673      1671      1674      1674      1675      1674      1676
      1674      1677      1677      1678      1677      1679      1677      1703
      1703      1704      1703      1705      1705      1706      1705      1707
      1705      1708      1703      1709      1709      1710      1709      1711
      1709      1712      1712      1713      1712      1714      1712      1715
      1715      1716      1715      1717      1715      1718      1718      1719
      1718      1720      1720      1721      1720      1722      1720      1723
      1718      1724      1724      1725      1724      1726      1724      1727
      1728      1730      1728      1729      1730      1731      1728      1774
      1774      1775      1774      1776      1774      1771      1771      1772
      1771      1773      1728      1732      1732      1733      1732      1734
      1732      1735      1735      1766      1766      1771      1766      1767
      1767      1768      1767      1769      1767      1770      1735      1736
      1736      1737      1736      1738      1738      1739      1738      1740
      1738      1741      1741      1742      1741      1764      1764      1765
      1764      1766      1741      1743      1743      1744      1743      1753
      1753      1758      1758      1759      1758      1760      1758      1761
      1761      1762      1761      1763      1761      1764      1753      1754
      1754      1755      1754      1756      1754      1757      1743      1745
      1745      1746      1745      1747      1745      1748      1748      1749
      1748      1750      1748      1751      1751      1752      1751      1753
      1751      1777      1777      1778      1777      1779      1779      1780
      1779      1781      1779      1782      1777      1783      1783      1784
      1783      1785      1783      1786      1786      1787      1786      1788
      1786      1789      1789      1790      1789      1791      1789      1792
      1792      1793      1792      1794      1794      1795      1794      1796
      1794      1797      1792      1798      1798      1799      1798      1800
      1798      1801      1877      1878      1877      1879      1877      1880
      1877      1874      1874      1875      1874      1876      1874      1871
      1871      1872      1871      1873      1871      1868      1868      1869
      1868      1870      1868      1865      1865      1866      1865      1867
      1865      1862      1862      1863      1862      1864      1862      1859
      1859      1860      1859      1861      1859      1856      1856      1857
      1856      1858      1856      1853      1853      1854      1853      1855
      1853      1850      1850      1851      1850      1852      1850      1847
      1847      1848      1847      1849      1847      1844      1844      1845
      1844      1846      1844      1841      1841      1842      1841      1843
      1841      1839      1839      1840      1837      1838      1837      1833
      1833      1834      1833      1835      1835      1836      1833      1831
      1831      1832      1831      1826      1826      1827      1826      1828
      1826      1824      1824      1821      1825      1821      1822      1821
      1823      1821      1825      1818      1818      1819      1818      1820
      1818      1815      1815      1816      1815      1817      1815      1802
      1802      1811      1802      1807      1802      1803      1811      1812
      1811      1813      1811      1814      1807      1808      1807      1809
      1807      1810      1803      1804      1803      1805      1803      1806
      1831      1829      1829      1830      1829      1881      1881      1883
      1883      1884      1883      1885      1883      1886      1886      1887
      1886      1888      1886      1889      1889      1890      1889      1891
      1889      1892      1892      1893      1892      1894      1892      1895
      1895      1896      1895      1897      1895      1898      1898      1899
      1898      1900      1898      1901      1901      1902      1901      1903
      1901      1904      1904      1905      1904      1906      1904      1907
      1907      1908      1907      1909      1907      1910      1910      1911
      1910      1912      1910      1913      1913      1914      1913      1915
      1913      1916      1916      1917      1916      1918      1916      1919
      1919      1920      1919      1921      1919      1922      1922      1923
      1922      1924      1922      1925      1925      1926      1925      1927
      1925      1928      1837      1839      1881      1882      1929      1933
      1929      1937      1929      1941      1933      1934      1933      1935
      1933      1936      1937      1938      1937      1939      1937      1940
      1941      1942      1941      1943      1941      1944      1929      1930
      1930      1931      1930      1932      1930      1945      1945      1946
      1945      1947      1945      1951      1952      1953      1951      1948
      1948      1952      1948      1949      1948      1950      1953      1954
      1953      1955      1953      1956      1956      1957      1956      1964
      1956      1958      1964      1965      1964      1966      1964      1967
      1958      1959      1959      1961      1959      1960      1961      1962
      1961      1963      1961      1973      1973      1974      1973      1975
      1973      1976      1976      1977      1976      1978      1976      1979
      1979      1980      1979      1981      1979      1982      1982      1983
      1982      1984      1982      1985      1985      1986      1985      1987
      1985      1988      1988      1989      1988      1990      1988      1991
      1991      1992      1991      1993      1993      1994      1993      1995
      1995      1996      1995      1997      1995      1998      1998      1999
      1998      2000      1998      2001      2001      2002      2001      2003
      2001      2004      2004      2005      2004      2006      2004      2007
      2007      2008      2007      2009      2007      2010      2010      2011
      2010      2012      2010      2013      2013      2014      2013      2015
      2013      2016      2016      2017      2016      2018      2016      2019
      1967      1968      1968      1970      1968      1969      1970      1971
      1970      1972      1970      2020      2020      2021      2020      2022
      2020      2023      2023      2024      2023      2025      2023      2026
      2026      2027      2026      2028      2026      2029      2029      2030
      2029      2031      2029      2032      2032      2033      2032      2034
      2032      2035      2035      2036      2035      2037      2035      2038
      2038      2039      2038      2040      2038      2041      2041      2042
      2041      2043      2041      2044      2044      2045      2044      2046
      2044      2047      2047      2048      2047      2049      2047      2050
      2050      2051      2050      2052      2050      2053      2053      2054
      2053      2055      2053      2056      2056      2057      2056      2058
      2056      2059      2059      2060      2059      2061      2059      2062
      2063      2064      2063      2065      2063      2066      2063      2067
      2071      2069      2069      2067      2069      2070      2067      2068
      2067      2072      2080      2079      2072      2073      2072      2074
      2072      2078      2078      2075      2075      2079      2075      2076
      2075      2077      2080      2081      2080      2082      2080      2083
      2083      2084      2083      2091      2083      2085      2091      2092
      2091      2093      2091      2094      2085      2086      2086      2088
      2086      2087      2088      2089      2088      2090      2088      2100
      2100      2101      2100      2102      2100      2103      2103      2104
      2103      2105      2103      2106      2106      2107      2106      2108
      2106      2109      2109      2110      2109      2111      2109      2112
      2112      2113      2112      2114      2112      2115      2115      2116
      2115      2117      2115      2118      2118      2119      2118      2120
      2120      2121      2120      2122      2122      2123      2122      2124
      2122      2125      2125      2126      2125      2127      2125      2128
      2128      2129      2128      2130      2128      2131      2131      2132
      2131      2133      2131      2134      2134      2135      2134      2136
      2134      2137      2137      2138      2137      2139      2137      2140
      2140      2141      2140      2142      2140      2143      2143      2144
      2143      2145      2143      2146      2094      2095      2095      2097
      2095      2096      2097      2098      2097      2099      2097      2147
      2147      2148      2147      2149      2147      2150      2150      2151
      2150      2152      2150      2153      2153      2154      2153      2155
      2153      2156      2156      2157      2156      2158      2156      2159
      2159      2160      2159      2161      2159      2162      2162      2163
      2162      2164      2162      2165      2165      2166      2165      2167
      2165      2168      2168      2169      2168      2170      2168      2171
      2171      2172      2171      2173      2171      2174      2174      2175
      2174      2176      2174      2177      2177      2178      2177      2179
      2177      2180      2180      2181      2180      2182      2180      2183
      2183      2184      2183      2185      2183      2186      2186      2187
      2186      2188      2186      2189      2265      2266      2265      2267
      2265      2268      2265      2262      2262      2263      2262      2264
      2262      2259      2259      2260      2259      2261      2259      2256
      2256      2257      2256      2258      2256      2253      2253      2254
      2253      2255      2253      2250      2250      2251      2250      2252
      2250      2247      2247      2248      2247      2249      2247      2244
      2244      2245      2244      2246      2244      2241      2241      2242
      2241      2243      2241      2238      2238      2239      2238      2240
      2238      2235      2235      2236      2235      2237      2235      2232
      2232      2233      2232      2234      2232      2229      2229      2230
      2229      2231      2229      2227      2227      2228      2225      2226
      2225      2221      2221      2222      2221      2223      2223      2224
      2221      2219      2219      2220      2219      2214      2214      2215
      2214      2216      2214      2212      2212      2209      2213      2209
      2210      2209      2211      2209      2213      2206      2206      2207
      2206      2208      2206      2203      2203      2204      2203      2205
      2203      2190      2190      2199      2190      2195      2190      2191
      2199      2200      2199      2201      2199      2202      2195      2196
      2195      2197      2195      2198      2191      2192      2191      2193
      2191      2194      2219      2217      2217      2218      2217      2269
      2269      2271      2271      2272      2271      2273      2271      2274
      2274      2275      2274      2276      2274      2277      2277      2278
      2277      2279      2277      2280      2280      2281      2280      2282
      2280      2283      2283      2284      2283      2285      2283      2286
      2286      2287      2286      2288      2286      2289      2289      2290
      2289      2291      2289      2292      2292      2293      2292      2294
      2292      2295      2295      2296      2295      2297      2295      2298
      2298      2299      2298      2300      2298      2301      2301      2302
      2301      2303      2301      2304      2304      2305      2304      2306
      2304      2307      2307      2308      2307      2309      2307      2310
      2310      2311      2310      2312      2310      2313      2313      2314
      2313      2315      2313      2316      2225      2227      2269      2270
      2317      2321      2317      2325      2317      2329      2321      2322
      2321      2323      2321      2324      2325      2326      2325      2327
      2325      2328      2329      2330      2329      2331      2329      2332
      2317      2318      2318      2319      2318      2320      2318      2333
      2333      2334      2333      2335      2333      2339      2340      2341
      2339      2336      2336      2340      2336      2337      2336      2338
      2341      2342      2341      2343      2341      2344      2344      2345
      2344      2352      2344      2346      2352      2353      2352      2354
      2352      2355      2346      2347      2347      2349      2347      2348
      2349      2350      2349      2351      2349      2361      2361      2362
      2361      2363      2361      2364      2364      2365      2364      2366
      2364      2367      2367      2368      2367      2369      2367      2370
      2370      2371      2370      2372      2370      2373      2373      2374
      2373      2375      2373      2376      2376      2377      2376      2378
      2376      2379      2379      2380      2379      2381      2381      2382
      2381      2383      2383      2384      2383      2385      2383      2386
      2386      2387      2386      2388      2386      2389      2389      2390
      2389      2391      2389      2392      2392      2393      2392      2394
      2392      2395      2395      2396      2395      2397      2395      2398
      2398      2399      2398      2400      2398      2401      2401      2402
      2401      2403      2401      2404      2404      2405      2404      2406
      2404      2407      2355      2356      2356      2358      2356      2357
      2358      2359      2358      2360      2358      2408      2408      2409
      2408      2410      2408      2411      2411      2412      2411      2413
      2411      2414      2414      2415      2414      2416      2414      2417
      2417      2418      2417      2419      2417      2420      2420      2421
      2420      2422      2420      2423      2423      2424      2423      2425
      2423      2426      2426      2427      2426      2428      2426      2429
      2429      2430      2429      2431      2429      2432      2432      2433
      2432      2434      2432      2435      2435      2436      2435      2437
      2435      2438      2438      2439      2438      2440      2438      2441
      2441      2442      2441      2443      2441      2444      2444      2445
      2444      2446      2444      2447      2447      2448      2447      2449
      2447      2450      2451      2452      2451      2453      2451      2454
      2451      2455      2455      2456      2455      2457      2455      2458
      2458      2459      2458      2460      2458      2465      2465      2461
      2461      2464      2461      2462      2461      2463      2466      2467
      2466      2468      2466      2469      2466      2464      2469      2470
      2469      2477      2469      2471      2477      2478      2477      2479
      2477      2480      2471      2472      2472      2474      2472      2473
      2474      2475      2474      2476      2474      2486      2486      2487
      2486      2488      2486      2489      2489      2490      2489      2491
      2489      2492      2492      2493      2492      2494      2492      2495
      2495      2496      2495      2497      2495      2498      2498      2499
      2498      2500      2498      2501      2501      2502      2501      2503
      2501      2504      2504      2505      2504      2506      2506      2507
      2506      2508      2508      2509      2508      2510      2508      2511
      2511      2512      2511      2513      2511      2514      2514      2515
      2514      2516      2514      2517      2517      2518      2517      2519
      2517      2520      2520      2521      2520      2522      2520      2523
      2523      2524      2523      2525      2523      2526      2526      2527
      2526      2528      2526      2529      2529      2530      2529      2531
      2529      2532      2480      2481      2481      2483      2481      2482
      2483      2484      2483      2485      2483      2533      2533      2534
      2533      2535      2533      2536      2536      2537      2536      2538
      2536      2539      2539      2540      2539      2541      2539      2542
      2542      2543      2542      2544      2542      2545      2545      2546
      2545      2547      2545      2548      2548      2549      2548      2550
      2548      2551      2551      2552      2551      2553      2551      2554
      2554      2555      2554      2556      2554      2557      2557      2558
      2557      2559      2557      2560      2560      2561      2560      2562
      2560      2563      2563      2564      2563      2565      2563      2566
      2566      2567      2566      2568      2566      2569      2569      2570
      2569      2571      2569      2572      2572      2573      2572      2574
      2572      2575      2576      2577      2576      2578      2576      2579
      2576      2580      2584      2582      2582      2580      2582      2583
      2580      2581      2580      2585      2593      2592      2585      2586
      2585      2587      2585      2591      2591      2588      2588      2592
      2588      2589      2588      2590      2593      2594      2593      2595
      2593      2596      2596      2597      2596      2604      2596      2598
      2604      2605      2604      2606      2604      2607      2598      2599
      2599      2601      2599      2600      2601      2602      2601      2603
      2601      2613      2613      2614      2613      2615      2613      2616
      2616      2617      2616      2618      2616      2619      2619      2620
      2619      2621      2619      2622      2622      2623      2622      2624
      2622      2625      2625      2626      2625      2627      2625      2628
      2628      2629      2628      2630      2628      2631      2631      2632
      2631      2633      2633      2634      2633      2635      2635      2636
      2635      2637      2635      2638      2638      2639      2638      2640
      2638      2641      2641      2642      2641      2643      2641      2644
      2644      2645      2644      2646      2644      2647      2647      2648
      2647      2649      2647      2650      2650      2651      2650      2652
      2650      2653      2653      2654      2653      2655      2653      2656
      2656      2657      2656      2658      2656      2659      2607      2608
      2608      2610      2608      2609      2610      2611      2610      2612
      2610      2660      2660      2661      2660      2662      2660      2663
      2663      2664      2663      2665      2663      2666      2666      2667
      2666      2668      2666      2669      2669      2670      2669      2671
      2669      2672      2672      2673      2672      2674      2672      2675
      2675      2676      2675      2677      2675      2678      2678      2679
      2678      2680      2678      2681      2681      2682      2681      2683
      2681      2684      2684      2685      2684      2686      2684      2687
      2687      2688      2687      2689      2687      2690      2690      2691
      2690      2692      2690      2693      2693      2694      2693      2695
      2693      2696      2696      2697      2696      2698      2696      2699
      2699      2700      2699      2701      2699      2702      2703      2704
      2703      2705      2703      2706      2703      2707      2707      2708
      2707      2709      2707      2710      2710      2711      2710      2712
      2710      2717      2717      2713      2713      2716      2713      2714
      2713      2715      2718      2719      2718      2720      2718      2721
      2718      2716      2721      2722      2721      2729      2721      2723
      2729      2730      2729      2731      2729      2732      2723      2724
      2724      2726      2724      2725      2726      2727      2726      2728
      2726      2738      2738      2739      2738      2740      2738      2741
      2741      2742      2741      2743      2741      2744      2744      2745
      2744      2746      2744      2747      2747      2748      2747      2749
      2747      2750      2750      2751      2750      2752      2750      2753
      2753      2754      2753      2755      2753      2756      2756      2757
      2756      2758      2758      2759      2758      2760      2760      2761
      2760      2762      2760      2763      2763      2764      2763      2765
      2763      2766      2766      2767      2766      2768      2766      2769
      2769      2770      2769      2771      2769      2772      2772      2773
      2772      2774      2772      2775      2775      2776      2775      2777
      2775      2778      2778      2779      2778      2780      2778      2781
      2781      2782      2781      2783      2781      2784      2732      2733
      2733      2735      2733      2734      2735      2736      2735      2737
      2735      2785      2785      2786      2785      2787      2785      2788
      2788      2789      2788      2790      2788      2791      2791      2792
      2791      2793      2791      2794      2794      2795      2794      2796
      2794      2797      2797      2798      2797      2799      2797      2800
      2800      2801      2800      2802      2800      2803      2803      2804
      2803      2805      2803      2806      2806      2807      2806      2808
      2806      2809      2809      2810      2809      2811      2809      2812
      2812      2813      2812      2814      2812      2815      2815      2816
      2815      2817      2815      2818      2818      2819      2818      2820
      2818      2821      2821      2822      2821      2823      2821      2824
      2824      2825      2824      2826      2824      2827      2828      2829
      2828      2830      2828      2831      2828      2832      2836      2834
      2834      2832      2834      2835      2832      2833      2832      2837
      2845      2844      2837      2838      2837      2839      2837      2843
      2843      2840      2840      2844      2840      2841      2840      2842
      2845      2846      2845      2847      2845      2848      2848      2849
      2848      2856      2848      2850      2856      2857      2856      2858
      2856      2859      2850      2851      2851      2853      2851      2852
      2853      2854      2853      2855      2853      2865      2865      2866
      2865      2867      2865      2868      2868      2869      2868      2870
      2868      2871      2871      2872      2871      2873      2871      2874
      2874      2875      2874      2876      2874      2877      2877      2878
      2877      2879      2877      2880      2880      2881      2880      2882
      2880      2883      2883      2884      2883      2885      2885      2886
      2885      2887      2887      2888      2887      2889      2887      2890
      2890      2891      2890      2892      2890      2893      2893      2894
      2893      2895      2893      2896      2896      2897      2896      2898
      2896      2899      2899      2900      2899      2901      2899      2902
      2902      2903      2902      2904      2902      2905      2905      2906
      2905      2907      2905      2908      2908      2909      2908      2910
      2908      2911      2859      2860      2860      2862      2860      2861
      2862      2863      2862      2864      2862      2912      2912      2913
      2912      2914      2912      2915      2915      2916      2915      2917
      2915      2918      2918      2919      2918      2920      2918      2921
      2921      2922      2921      2923      2921      2924      2924      2925
      2924      2926      2924      2927      2927      2928      2927      2929
      2927      2930      2930      2931      2930      2932      2930      2933
      2933      2934      2933      2935      2933      2936      2936      2937
      2936      2938      2936      2939      2939      2940      2939      2941
      2939      2942      2942      2943      2942      2944      2942      2945
      2945      2946      2945      2947      2945      2948      2948      2949
      2948      2950      2948      2951      2951      2952      2951      2953
      2951      2954      2955      2959      2955      2963      2955      2967
      2959      2960      2959      2961      2959      2962      2963      2964
      2963      2965      2963      2966      2967      2968      2967      2969
      2967      2970      2955      2956      2956      2957      2956      2958
      2956      2971      2971      2972      2971      2973      2971      2977
      2978      2979      2977      2974      2974      2978      2974      2975
      2974      2976      2979      2980      2979      2981      2979      2982
      2982      2983      2982      2990      2982      2984      2990      2991
      2990      2992      2990      2993      2984      2985      2985      2987
      2985      2986      2987      2988      2987      2989      2987      2999
      2999      3000      2999      3001      2999      3002      3002      3003
      3002      3004      3002      3005      3005      3006      3005      3007
      3005      3008      3008      3009      3008      3010      3008      3011
      3011      3012      3011      3013      3011      3014      3014      3015
      3014      3016      3014      3017      3017      3018      3017      3019
      3019      3020      3019      3021      3021      3022      3021      3023
      3021      3024      3024      3025      3024      3026      3024      3027
      3027      3028      3027      3029      3027      3030      3030      3031
      3030      3032      3030      3033      3033      3034      3033      3035
      3033      3036      3036      3037      3036      3038      3036      3039
      3039      3040      3039      3041      3039      3042      3042      3043
      3042      3044      3042      3045      2993      2994      2994      2996
      2994      2995      2996      2997      2996      2998      2996      3046
      3046      3047      3046      3048      3046      3049      3049      3050
      3049      3051      3049      3052      3052      3053      3052      3054
      3052      3055      3055      3056      3055      3057      3055      3058
      3058      3059      3058      3060      3058      3061      3061      3062
      3061      3063      3061      3064      3064      3065      3064      3066
      3064      3067      3067      3068      3067      3069      3067      3070
      3070      3071      3070      3072      3070      3073      3073      3074
      3073      3075      3073      3076      3076      3077      3076      3078
      3076      3079      3079      3080      3079      3081      3079      3082
      3082      3083      3082      3084      3082      3085      3085      3086
      3085      3087      3085      3088      3089      3090      3089      3091
      3089      3092      3089      3093      3093      3094      3093      3095
      3093      3096      3096      3097      3096      3098      3096      3103
      3103      3099      3099      3102      3099      3100      3099      3101
      3104      3105      3104      3106      3104      3107      3104      3102
      3107      3108      3107      3115      3107      3109      3115      3116
      3115      3117      3115      3118      3109      3110      3110      3112
      3110      3111      3112      3113      3112      3114      3112      3124
      3124      3125      3124      3126      3124      3127      3127      3128
      3127      3129      3127      3130      3130      3131      3130      3132
      3130      3133      3133      3134      3133      3135      3133      3136
      3136      3137      3136      3138      3136      3139      3139      3140
      3139      3141      3139      3142      3142      3143      3142      3144
      3144      3145      3144      3146      3146      3147      3146      3148
      3146      3149      3149      3150      3149      3151      3149      3152
      3152      3153      3152      3154      3152      3155      3155      3156
      3155      3157      3155      3158      3158      3159      3158      3160
      3158      3161      3161      3162      3161      3163      3161      3164
      3164      3165      3164      3166      3164      3167      3167      3168
      3167      3169      3167      3170      3118      3119      3119      3121
      3119      3120      3121      3122      3121      3123      3121      3171
      3171      3172      3171      3173      3171      3174      3174      3175
      3174      3176      3174      3177      3177      3178      3177      3179
      3177      3180      3180      3181      3180      3182      3180      3183
      3183      3184      3183      3185      3183      3186      3186      3187
      3186      3188      3186      3189      3189      3190      3189      3191
      3189      3192      3192      3193      3192      3194      3192      3195
      3195      3196      3195      3197      3195      3198      3198      3199
      3198      3200      3198      3201      3201      3202      3201      3203
      3201      3204      3204      3205      3204      3206      3204      3207
      3207      3208      3207      3209      3207      3210      3210      3211
      3210      3212      3210      3213      3214      3218      3214      3222
      3214      3226      3218      3219      3218      3220      3218      3221
      3222      3223      3222      3224      3222      3225      3226      3227
      3226      3228      3226      3229      3214      3215      3215      3216
      3215      3217      3215      3230      3230      3231      3230      3232
      3230      3236      3237      3238      3236      3233      3233      3237
      3233      3234      3233      3235      3238      3239      3238      3240
      3238      3241      3241      3242      3241      3249      3241      3243
      3249      3250      3249      3251      3249      3252      3243      3244
      3244      3246      3244      3245      3246      3247      3246      3248
      3246      3258      3258      3259      3258      3260      3258      3261
      3261      3262      3261      3263      3261      3264      3264      3265
      3264      3266      3264      3267      3267      3268      3267      3269
      3267      3270      3270      3271      3270      3272      3270      3273
      3273      3274      3273      3275      3273      3276      3276      3277
      3276      3278      3278      3279      3278      3280      3280      3281
      3280      3282      3280      3283      3283      3284      3283      3285
      3283      3286      3286      3287      3286      3288      3286      3289
      3289      3290      3289      3291      3289      3292      3292      3293
      3292      3294      3292      3295      3295      3296      3295      3297
      3295      3298      3298      3299      3298      3300      3298      3301
      3301      3302      3301      3303      3301      3304      3252      3253
      3253      3255      3253      3254      3255      3256      3255      3257
      3255      3305      3305      3306      3305      3307      3305      3308
      3308      3309      3308      3310      3308      3311      3311      3312
      3311      3313      3311      3314      3314      3315      3314      3316
      3314      3317      3317      3318      3317      3319      3317      3320
      3320      3321      3320      3322      3320      3323      3323      3324
      3323      3325      3323      3326      3326      3327      3326      3328
      3326      3329      3329      3330      3329      3331      3329      3332
      3332      3333      3332      3334      3332      3335      3335      3336
      3335      3337      3335      3338      3338      3339      3338      3340
      3338      3341      3341      3342      3341      3343      3341      3344
      3344      3345      3344      3346      3344      3347      3348      3349
      3348      3350      3348      3351      3348      3352      3356      3354
      3354      3352      3354      3355      3352      3353      3352      3357
      3365      3364      3357      3358      3357      3359      3357      3363
      3363      3360      3360      3364      3360      3361      3360      3362
      3365      3366      3365      3367      3365      3368      3368      3369
      3368      3376      3368      3370      3376      3377      3376      3378
      3376      3379      3370      3371      3371      3373      3371      3372
      3373      3374      3373      3375      3373      3385      3385      3386
      3385      3387      3385      3388      3388      3389      3388      3390
      3388      3391      3391      3392      3391      3393      3391      3394
      3394      3395      3394      3396      3394      3397      3397      3398
      3397      3399      3397      3400      3400      3401      3400      3402
      3400      3403      3403      3404      3403      3405      3405      3406
      3405      3407      3407      3408      3407      3409      3407      3410
      3410      3411      3410      3412      3410      3413      3413      3414
      3413      3415      3413      3416      3416      3417      3416      3418
      3416      3419      3419      3420      3419      3421      3419      3422
      3422      3423      3422      3424      3422      3425      3425      3426
      3425      3427      3425      3428      3428      3429      3428      3430
      3428      3431      3379      3380      3380      3382      3380      3381
      3382      3383      3382      3384      3382      3432      3432      3433
      3432      3434      3432      3435      3435      3436      3435      3437
      3435      3438      3438      3439      3438      3440      3438      3441
      3441      3442      3441      3443      3441      3444      3444      3445
      3444      3446      3444      3447      3447      3448      3447      3449
      3447      3450      3450      3451      3450      3452      3450      3453
      3453      3454      3453      3455      3453      3456      3456      3457
      3456      3458      3456      3459      3459      3460      3459      3461
      3459      3462      3462      3463      3462      3464      3462      3465
      3465      3466      3465      3467      3465      3468      3468      3469
      3468      3470      3468      3471      3471      3472      3471      3473
      3471      3474      3550      3551      3550      3552      3550      3553
      3550      3547      3547      3548      3547      3549      3547      3544
      3544      3545      3544      3546      3544      3541      3541      3542
      3541      3543      3541      3538      3538      3539      3538      3540
      3538      3535      3535      3536      3535      3537      3535      3532
      3532      3533      3532      3534      3532      3529      3529      3530
      3529      3531      3529      3526      3526      3527      3526      3528
      3526      3523      3523      3524      3523      3525      3523      3520
      3520      3521      3520      3522      3520      3517      3517      3518
      3517      3519      3517      3514      3514      3515      3514      3516
      3514      3512      3512      3513      3510      3511      3510      3506
      3506      3507      3506      3508      3508      3509      3506      3504
      3504      3505      3504      3499      3499      3500      3499      3501
      3499      3497      3497      3494      3498      3494      3495      3494
      3496      3494      3498      3491      3491      3492      3491      3493
      3491      3488      3488      3489      3488      3490      3488      3475
      3475      3484      3475      3480      3475      3476      3484      3485
      3484      3486      3484      3487      3480      3481      3480      3482
      3480      3483      3476      3477      3476      3478      3476      3479
      3504      3502      3502      3503      3502      3554      3554      3556
      3556      3557      3556      3558      3556      3559      3559      3560
      3559      3561      3559      3562      3562      3563      3562      3564
      3562      3565      3565      3566      3565      3567      3565      3568
      3568      3569      3568      3570      3568      3571      3571      3572
      3571      3573      3571      3574      3574      3575      3574      3576
      3574      3577      3577      3578      3577      3579      3577      3580
      3580      3581      3580      3582      3580      3583      3583      3584
      3583      3585      3583      3586      3586      3587      3586      3588
      3586      3589      3589      3590      3589      3591      3589      3592
      3592      3593      3592      3594      3592      3595      3595      3596
      3595      3597      3595      3598      3598      3599      3598      3600
      3598      3601      3510      3512      3554      3555      3602      3606
      3602      3610      3602      3614      3606      3607      3606      3608
      3606      3609      3610      3611      3610      3612      3610      3613
      3614      3615      3614      3616      3614      3617      3602      3603
      3603      3604      3603      3605      3603      3618      3618      3619
      3618      3620      3618      3624      3625      3626      3624      3621
      3621      3625      3621      3622      3621      3623      3626      3627
      3626      3628      3626      3629      3629      3630      3629      3637
      3629      3631      3637      3638      3637      3639      3637      3640
      3631      3632      3632      3634      3632      3633      3634      3635
      3634      3636      3634      3646      3646      3647      3646      3648
      3646      3649      3649      3650      3649      3651      3649      3652
      3652      3653      3652      3654      3652      3655      3655      3656
      3655      3657      3655      3658      3658      3659      3658      3660
      3658      3661      3661      3662      3661      3663      3661      3664
      3664      3665      3664      3666      3666      3667      3666      3668
      3668      3669      3668      3670      3668      3671      3671      3672
      3671      3673      3671      3674      3674      3675      3674      3676
      3674      3677      3677      3678      3677      3679      3677      3680
      3680      3681      3680      3682      3680      3683      3683      3684
      3683      3685      3683      3686      3686      3687      3686      3688
      3686      3689      3689      3690      3689      3691      3689      3692
      3640      3641      3641      3643      3641      3642      3643      3644
      3643      3645      3643      3693      3693      3694      3693      3695
      3693      3696      3696      3697      3696      3698      3696      3699
      3699      3700      3699      3701      3699      3702      3702      3703
      3702      3704      3702      3705      3705      3706      3705      3707
      3705      3708      3708      3709      3708      3710      3708      3711
      3711      3712      3711      3713      3711      3714      3714      3715
      3714      3716      3714      3717      3717      3718      3717      3719
      3717      3720      3720      3721      3720      3722      3720      3723
      3723      3724      3723      3725      3723      3726      3726      3727
      3726      3728      3726      3729      3729      3730      3729      3731
      3729      3732      3732      3733      3732      3734      3732      3735
      3736      3737      3736      3738      3736      3739      3736      3740
      3744      3742      3742      3740      3742      3743      3740      3741
      3740      3745      3753      3752      3745      3746      3745      3747
      3745      3751      3751      3748      3748      3752      3748      3749
      3748      3750      3753      3754      3753      3755      3753      3756
      3756      3757      3756      3764      3756      3758      3764      3765
      3764      3766      3764      3767      3758      3759      3759      3761
      3759      3760      3761      3762      3761      3763      3761      3773
      3773      3774      3773      3775      3773      3776      3776      3777
      3776      3778      3776      3779      3779      3780      3779      3781
      3779      3782      3782      3783      3782      3784      3782      3785
      3785      3786      3785      3787      3785      3788      3788      3789
      3788      3790      3788      3791      3791      3792      3791      3793
      3793      3794      3793      3795      3795      3796      3795      3797
      3795      3798      3798      3799      3798      3800      3798      3801
      3801      3802      3801      3803      3801      3804      3804      3805
      3804      3806      3804      3807      3807      3808      3807      3809
      3807      3810      3810      3811      3810      3812      3810      3813
      3813      3814      3813      3815      3813      3816      3816      3817
      3816      3818      3816      3819      3767      3768      3768      3770
      3768      3769      3770      3771      3770      3772      3770      3820
      3820      3821      3820      3822      3820      3823      3823      3824
      3823      3825      3823      3826      3826      3827      3826      3828
      3826      3829      3829      3830      3829      3831      3829      3832
      3832      3833      3832      3834      3832      3835      3835      3836
      3835      3837      3835      3838      3838      3839      3838      3840
      3838      3841      3841      3842      3841      3843      3841      3844
      3844      3845      3844      3846      3844      3847      3847      3848
      3847      3849      3847      3850      3850      3851      3850      3852
      3850      3853      3853      3854      3853      3855      3853      3856
      3856      3857      3856      3858      3856      3859      3859      3860
      3859      3861      3859      3862      3938      3939      3938      3940
      3938      3941      3938      3935      3935      3936      3935      3937
      3935      3932      3932      3933      3932      3934      3932      3929
      3929      3930      3929      3931      3929      3926      3926      3927
      3926      3928      3926      3923      3923      3924      3923      3925
      3923      3920      3920      3921      3920      3922      3920      3917
      3917      3918      3917      3919      3917      3914      3914      3915
      3914      3916      3914      3911      3911      3912      3911      3913
      3911      3908      3908      3909      3908      3910      3908      3905
      3905      3906      3905      3907      3905      3902      3902      3903
      3902      3904      3902      3900      3900      3901      3898      3899
      3898      3894      3894      3895      3894      3896      3896      3897
      3894      3892      3892      3893      3892      3887      3887      3888
      3887      3889      3887      3885      3885      3882      3886      3882
      3883      3882      3884      3882      3886      3879      3879      3880
      3879      3881      3879      3876      3876      3877      3876      3878
      3876      3863      3863      3872      3863      3868      3863      3864
      3872      3873      3872      3874      3872      3875      3868      3869
      3868      3870      3868      3871      3864      3865      3864      3866
      3864      3867      3892      3890      3890      3891      3890      3942
      3942      3944      3944      3945      3944      3946      3944      3947
      3947      3948      3947      3949      3947      3950      3950      3951
      3950      3952      3950      3953      3953      3954      3953      3955
      3953      3956      3956      3957      3956      3958      3956      3959
      3959      3960      3959      3961      3959      3962      3962      3963
      3962      3964      3962      3965      3965      3966      3965      3967
      3965      3968      3968      3969      3968      3970      3968      3971
      3971      3972      3971      3973      3971      3974      3974      3975
      3974      3976      3974      3977      3977      3978      3977      3979
      3977      3980      3980      3981      3980      3982      3980      3983
      3983      3984      3983      3985      3983      3986      3986      3987
      3986      3988      3986      3989      3898      3900      3942      3943
      3990      3994      3990      3998      3990      4002      3994      3995
      3994      3996      3994      3997      3998      3999      3998      4000
      3998      4001      4002      4003      4002      4004      4002      4005
      3990      3991      3991      3992      3991      3993      3991      4006
      4006      4007      4006      4008      4006      4012      4013      4014
      4012      4009      4009      4013      4009      4010      4009      4011
      4014      4015      4014      4016      4014      4017      4017      4018
      4017      4025      4017      4019      4025      4026      4025      4027
      4025      4028      4019      4020      4020      4022      4020      4021
      4022      4023      4022      4024      4022      4034      4034      4035
      4034      4036      4034      4037      4037      4038      4037      4039
      4037      4040      4040      4041      4040      4042      4040      4043
      4043      4044      4043      4045      4043      4046      4046      4047
      4046      4048      4046      4049      4049      4050      4049      4051
      4049      4052      4052      4053      4052      4054      4054      4055
      4054      4056      4056      4057      4056      4058      4056      4059
      4059      4060      4059      4061      4059      4062      4062      4063
      4062      4064      4062      4065      4065      4066      4065      4067
      4065      4068      4068      4069      4068      4070      4068      4071
      4071      4072      4071      4073      4071      4074      4074      4075
      4074      4076      4074      4077      4077      4078      4077      4079
      4077      4080      4028      4029      4029      4031      4029      4030
      4031      4032      4031      4033      4031      4081      4081      4082
      4081      4083      4081      4084      4084      4085      4084      4086
      4084      4087      4087      4088      4087      4089      4087      4090
      4090      4091      4090      4092      4090      4093      4093      4094
      4093      4095      4093      4096      4096      4097      4096      4098
      4096      4099      4099      4100      4099      4101      4099      4102
      4102      4103      4102      4104      4102      4105      4105      4106
      4105      4107      4105      4108      4108      4109      4108      4110
      4108      4111      4111      4112      4111      4113      4111      4114
      4114      4115      4114      4116      4114      4117      4117      4118
      4117      4119      4117      4120      4120      4121      4120      4122
      4120      4123      4199      4200      4199      4201      4199      4202
      4199      4196      4196      4197      4196      4198      4196      4193
      4193      4194      4193      4195      4193      4190      4190      4191
      4190      4192      4190      4187      4187      4188      4187      4189
      4187      4184      4184      4185      4184      4186      4184      4181
      4181      4182      4181      4183      4181      4178      4178      4179
      4178      4180      4178      4175      4175      4176      4175      4177
      4175      4172      4172      4173      4172      4174      4172      4169
      4169      4170      4169      4171      4169      4166      4166      4167
      4166      4168      4166      4163      4163      4164      4163      4165
      4163      4161      4161      4162      4159      4160      4159      4155
      4155      4156      4155      4157      4157      4158      4155      4153
      4153      4154      4153      4148      4148      4149      4148      4150
      4148      4146      4146      4143      4147      4143      4144      4143
      4145      4143      4147      4140      4140      4141      4140      4142
      4140      4137      4137      4138      4137      4139      4137      4124
      4124      4133      4124      4129      4124      4125      4133      4134
      4133      4135      4133      4136      4129      4130      4129      4131
      4129      4132      4125      4126      4125      4127      4125      4128
      4153      4151      4151      4152      4151      4203      4203      4205
      4205      4206      4205      4207      4205      4208      4208      4209
      4208      4210      4208      4211      4211      4212      4211      4213
      4211      4214      4214      4215      4214      4216      4214      4217
      4217      4218      4217      4219      4217      4220      4220      4221
      4220      4222      4220      4223      4223      4224      4223      4225
      4223      4226      4226      4227      4226      4228      4226      4229
      4229      4230      4229      4231      4229      4232      4232      4233
      4232      4234      4232      4235      4235      4236      4235      4237
      4235      4238      4238      4239      4238      4240      4238      4241
      4241      4242      4241      4243      4241      4244      4244      4245
      4244      4246      4244      4247      4247      4248      4247      4249
      4247      4250      4159      4161      4203      4204      4251      4252
      4251      4253      4251      4254      4251      4255      4255      4256
      4255      4257      4255      4258      4258      4259      4258      4260
      4258      4265      4265      4261      4261      4264      4261      4262
      4261      4263      4266      4267      4266      4268      4266      4269
      4266      4264      4269      4270      4269      4277      4269      4271
      4277      4278      4277      4279      4277      4280      4271      4272
      4272      4274      4272      4273      4274      4275      4274      4276
      4274      4286      4286      4287      4286      4288      4286      4289
      4289      4290      4289      4291      4289      4292      4292      4293
      4292      4294      4292      4295      4295      4296      4295      4297
      4295      4298      4298      4299      4298      4300      4298      4301
      4301      4302      4301      4303      4301      4304      4304      4305
      4304      4306      4306      4307      4306      4308      4308      4309
      4308      4310      4308      4311      4311      4312      4311      4313
      4311      4314      4314      4315      4314      4316      4314      4317
      4317      4318      4317      4319      4317      4320      4320      4321
      4320      4322      4320      4323      4323      4324      4323      4325
      4323      4326      4326      4327      4326      4328      4326      4329
      4329      4330      4329      4331      4329      4332      4280      4281
      4281      4283      4281      4282      4283      4284      4283      4285
      4283      4333      4333      4334      4333      4335      4333      4336
      4336      4337      4336      4338      4336      4339      4339      4340
      4339      4341      4339      4342      4342      4343      4342      4344
      4342      4345      4345      4346      4345      4347      4345      4348
      4348      4349      4348      4350      4348      4351      4351      4352
      4351      4353      4351      4354      4354      4355      4354      4356
      4354      4357      4357      4358      4357      4359      4357      4360
      4360      4361      4360      4362      4360      4363      4363      4364
      4363      4365      4363      4366      4366      4367      4366      4368
      4366      4369      4369      4370      4369      4371      4369      4372
      4372      4373      4372      4374      4372      4375      4376      4380
      4376      4384      4376      4388      4380      4381      4380      4382
      4380      4383      4384      4385      4384      4386      4384      4387
      4388      4389      4388      4390      4388      4391      4376      4377
      4377      4378      4377      4379      4377      4392      4392      4393
      4392      4394      4392      4398      4399      4400      4398      4395
      4395      4399      4395      4396      4395      4397      4400      4401
      4400      4402      4400      4403      4403      4404      4403      4411
      4403      4405      4411      4412      4411      4413      4411      4414
      4405      4406      4406      4408      4406      4407      4408      4409
      4408      4410      4408      4420      4420      4421      4420      4422
      4420      4423      4423      4424      4423      4425      4423      4426
      4426      4427      4426      4428      4426      4429      4429      4430
      4429      4431      4429      4432      4432      4433      4432      4434
      4432      4435      4435      4436      4435      4437      4435      4438
      4438      4439      4438      4440      4440      4441      4440      4442
      4442      4443      4442      4444      4442      4445      4445      4446
      4445      4447      4445      4448      4448      4449      4448      4450
      4448      4451      4451      4452      4451      4453      4451      4454
      4454      4455      4454      4456      4454      4457      4457      4458
      4457      4459      4457      4460      4460      4461      4460      4462
      4460      4463      4463      4464      4463      4465      4463      4466
      4414      4415      4415      4417      4415      4416      4417      4418
      4417      4419      4417      4467      4467      4468      4467      4469
      4467      4470      4470      4471      4470      4472      4470      4473
      4473      4474      4473      4475      4473      4476      4476      4477
      4476      4478      4476      4479      4479      4480      4479      4481
      4479      4482      4482      4483      4482      4484      4482      4485
      4485      4486      4485      4487      4485      4488      4488      4489
      4488      4490      4488      4491      4491      4492      4491      4493
      4491      4494      4494      4495      4494      4496      4494      4497
      4497      4498      4497      4499      4497      4500      4500      4501
      4500      4502      4500      4503      4503      4504      4503      4505
      4503      4506      4506      4507      4506      4508      4506      4509
      4510      4514      4510      4518      4510      4522      4514      4515
      4514      4516      4514      4517      4518      4519      4518      4520
      4518      4521      4522      4523      4522      4524      4522      4525
      4510      4511      4511      4512      4511      4513      4511      4526
      4526      4527      4526      4528      4526      4532      4533      4534
      4532      4529      4529      4533      4529      4530      4529      4531
      4534      4535      4534      4536      4534      4537      4537      4538
      4537      4545      4537      4539      4545      4546      4545      4547
      4545      4548      4539      4540      4540      4542      4540      4541
      4542      4543      4542      4544      4542      4554      4554      4555
      4554      4556      4554      4557      4557      4558      4557      4559
      4557      4560      4560      4561      4560      4562      4560      4563
      4563      4564      4563      4565      4563      4566      4566      4567
      4566      4568      4566      4569      4569      4570      4569      4571
      4569      4572      4572      4573      4572      4574      4574      4575
      4574      4576      4576      4577      4576      4578      4576      4579
      4579      4580      4579      4581      4579      4582      4582      4583
      4582      4584      4582      4585      4585      4586      4585      4587
      4585      4588      4588      4589      4588      4590      4588      4591
      4591      4592      4591      4593      4591      4594      4594      4595
      4594      4596      4594      4597      4597      4598      4597      4599
      4597      4600      4548      4549      4549      4551      4549      4550
      4551      4552      4551      4553      4551      4601      4601      4602
      4601      4603      4601      4604      4604      4605      4604      4606
      4604      4607      4607      4608      4607      4609      4607      4610
      4610      4611      4610      4612      4610      4613      4613      4614
      4613      4615      4613      4616      4616      4617      4616      4618
      4616      4619      4619      4620      4619      4621      4619      4622
      4622      4623      4622      4624      4622      4625      4625      4626
      4625      4627      4625      4628      4628      4629      4628      4630
      4628      4631      4631      4632      4631      4633      4631      4634
      4634      4635      4634      4636      4634      4637      4637      4638
      4637      4639      4637      4640      4640      4641      4640      4642
      4640      4643      4644      4645      4644      4646      4644      4647
      4644      4648      4648      4649      4648      4650      4648      4651
      4651      4652      4651      4653      4651      4658      4658      4654
      4654      4657      4654      4655      4654      4656      4659      4660
      4659      4661      4659      4662      4659      4657      4662      4663
      4662      4670      4662      4664      4670      4671      4670      4672
      4670      4673      4664      4665      4665      4667      4665      4666
      4667      4668      4667      4669      4667      4679      4679      4680
      4679      4681      4679      4682      4682      4683      4682      4684
      4682      4685      4685      4686      4685      4687      4685      4688
      4688      4689      4688      4690      4688      4691      4691      4692
      4691      4693      4691      4694      4694      4695      4694      4696
      4694      4697      4697      4698      4697      4699      4699      4700
      4699      4701      4701      4702      4701      4703      4701      4704
      4704      4705      4704      4706      4704      4707      4707      4708
      4707      4709      4707      4710      4710      4711      4710      4712
      4710      4713      4713      4714      4713      4715      4713      4716
      4716      4717      4716      4718      4716      4719      4719      4720
      4719      4721      4719      4722      4722      4723      4722      4724
      4722      4725      4673      4674      4674      4676      4674      4675
      4676      4677      4676      4678      4676      4726      4726      4727
      4726      4728      4726      4729      4729      4730      4729      4731
      4729      4732      4732      4733      4732      4734      4732      4735
      4735      4736      4735      4737      4735      4738      4738      4739
      4738      4740      4738      4741      4741      4742      4741      4743
      4741      4744      4744      4745      4744      4746      4744      4747
      4747      4748      4747      4749      4747      4750      4750      4751
      4750      4752      4750      4753      4753      4754      4753      4755
      4753      4756      4756      4757      4756      4758      4756      4759
      4759      4760      4759      4761      4759      4762      4762      4763
      4762      4764      4762      4765      4765      4766      4765      4767
      4765      4768      4769      4773      4769      4777      4769      4781
      4773      4774      4773      4775      4773      4776      4777      4778
      4777      4779      4777      4780      4781      4782      4781      4783
      4781      4784      4769      4770      4770      4771      4770      4772
      4770      4785      4785      4786      4785      4787      4785      4791
      4792      4793      4791      4788      4788      4792      4788      4789
      4788      4790      4793      4794      4793      4795      4793      4796
      4796      4797      4796      4804      4796      4798      4804      4805
      4804      4806      4804      4807      4798      4799      4799      4801
      4799      4800      4801      4802      4801      4803      4801      4813
      4813      4814      4813      4815      4813      4816      4816      4817
      4816      4818      4816      4819      4819      4820      4819      4821
      4819      4822      4822      4823      4822      4824      4822      4825
      4825      4826      4825      4827      4825      4828      4828      4829
      4828      4830      4828      4831      4831      4832      4831      4833
      4833      4834      4833      4835      4835      4836      4835      4837
      4835      4838      4838      4839      4838      4840      4838      4841
      4841      4842      4841      4843      4841      4844      4844      4845
      4844      4846      4844      4847      4847      4848      4847      4849
      4847      4850      4850      4851      4850      4852      4850      4853
      4853      4854      4853      4855      4853      4856      4856      4857
      4856      4858      4856      4859      4807      4808      4808      4810
      4808      4809      4810      4811      4810      4812      4810      4860
      4860      4861      4860      4862      4860      4863      4863      4864
      4863      4865      4863      4866      4866      4867      4866      4868
      4866      4869      4869      4870      4869      4871      4869      4872
      4872      4873      4872      4874      4872      4875      4875      4876
      4875      4877      4875      4878      4878      4879      4878      4880
      4878      4881      4881      4882      4881      4883      4881      4884
      4884      4885      4884      4886      4884      4887      4887      4888
      4887      4889      4887      4890      4890      4891      4890      4892
      4890      4893      4893      4894      4893      4895      4893      4896
      4896      4897      4896      4898      4896      4899      4899      4900
      4899      4901      4899      4902      4903      4904      4903      4905
      4903      4906      4903      4907      4907      4908      4907      4909
      4907      4910      4910      4911      4910      4912      4910      4917
      4917      4913      4913      4916      4913      4914      4913      4915
      4918      4919      4918      4920      4918      4921      4918      4916
      4921      4922      4921      4929      4921      4923      4929      4930
      4929      4931      4929      4932      4923      4924      4924      4926
      4924      4925      4926      4927      4926      4928      4926      4938
      4938      4939      4938      4940      4938      4941      4941      4942
      4941      4943      4941      4944      4944      4945      4944      4946
      4944      4947      4947      4948      4947      4949      4947      4950
      4950      4951      4950      4952      4950      4953      4953      4954
      4953      4955      4953      4956      4956      4957      4956      4958
      4958      4959      4958      4960      4960      4961      4960      4962
      4960      4963      4963      4964      4963      4965      4963      4966
      4966      4967      4966      4968      4966      4969      4969      4970
      4969      4971      4969      4972      4972      4973      4972      4974
      4972      4975      4975      4976      4975      4977      4975      4978
      4978      4979      4978      4980      4978      4981      4981      4982
      4981      4983      4981      4984      4932      4933      4933      4935
      4933      4934      4935      4936      4935      4937      4935      4985
      4985      4986      4985      4987      4985      4988      4988      4989
      4988      4990      4988      4991      4991      4992      4991      4993
      4991      4994      4994      4995      4994      4996      4994      4997
      4997      4998      4997      4999      4997      5000      5000      5001
      5000      5002      5000      5003      5003      5004      5003      5005
      5003      5006      5006      5007      5006      5008      5006      5009
      5009      5010      5009      5011      5009      5012      5012      5013
      5012      5014      5012      5015      5015      5016      5015      5017
      5015      5018      5018      5019      5018      5020      5018      5021
      5021      5022      5021      5023      5021      5024      5024      5025
      5024      5026      5024      5027      5028      5029      5028      5030
      5028      5031      5028      5032      5032      5033      5032      5034
      5032      5035      5035      5036      5035      5037      5035      5042
      5042      5038      5038      5041      5038      5039      5038      5040
      5043      5044      5043      5045      5043      5046      5043      5041
      5046      5047      5046      5054      5046      5048      5054      5055
      5054      5056      5054      5057      5048      5049      5049      5051
      5049      5050      5051      5052      5051      5053      5051      5063
      5063      5064      5063      5065      5063      5066      5066      5067
      5066      5068      5066      5069      5069      5070      5069      5071
      5069      5072      5072      5073      5072      5074      5072      5075
      5075      5076      5075      5077      5075      5078      5078      5079
      5078      5080      5078      5081      5081      5082      5081      5083
      5083      5084      5083      5085      5085      5086      5085      5087
      5085      5088      5088      5089      5088      5090      5088      5091
      5091      5092      5091      5093      5091      5094      5094      5095
      5094      5096      5094      5097      5097      5098      5097      5099
      5097      5100      5100      5101      5100      5102      5100      5103
      5103      5104      5103      5105      5103      5106      5106      5107
      5106      5108      5106      5109      5057      5058      5058      5060
      5058      5059      5060      5061      5060      5062      5060      5110
      5110      5111      5110      5112      5110      5113      5113      5114
      5113      5115      5113      5116      5116      5117      5116      5118
      5116      5119      5119      5120      5119      5121      5119      5122
      5122      5123      5122      5124      5122      5125      5125      5126
      5125      5127      5125      5128      5128      5129      5128      5130
      5128      5131      5131      5132      5131      5133      5131      5134
      5134      5135      5134      5136      5134      5137      5137      5138
      5137      5139      5137      5140      5140      5141      5140      5142
      5140      5143      5143      5144      5143      5145      5143      5146
      5146      5147      5146      5148      5146      5149      5149      5150
      5149      5151      5149      5152      5153      5154      5153      5155
      5153      5156      5153      5157      5157      5158      5157      5159
      5157      5160      5160      5161      5160      5162      5160      5167
      5167      5163      5163      5166      5163      5164      5163      5165
      5168      5169      5168      5170      5168      5171      5168      5166
      5171      5172      5171      5179      5171      5173      5179      5180
      5179      5181      5179      5182      5173      5174      5174      5176
      5174      5175      5176      5177      5176      5178      5176      5188
      5188      5189      5188      5190      5188      5191      5191      5192
      5191      5193      5191      5194      5194      5195      5194      5196
      5194      5197      5197      5198      5197      5199      5197      5200
      5200      5201      5200      5202      5200      5203      5203      5204
      5203      5205      5203      5206      5206      5207      5206      5208
      5208      5209      5208      5210      5210      5211      5210      5212
      5210      5213      5213      5214      5213      5215      5213      5216
      5216      5217      5216      5218      5216      5219      5219      5220
      5219      5221      5219      5222      5222      5223      5222      5224
      5222      5225      5225      5226      5225      5227      5225      5228
      5228      5229      5228      5230      5228      5231      5231      5232
      5231      5233      5231      5234      5182      5183      5183      5185
      5183      5184      5185      5186      5185      5187      5185      5235
      5235      5236      5235      5237      5235      5238      5238      5239
      5238      5240      5238      5241      5241      5242      5241      5243
      5241      5244      5244      5245      5244      5246      5244      5247
      5247      5248      5247      5249      5247      5250      5250      5251
      5250      5252      5250      5253      5253      5254      5253      5255
      5253      5256      5256      5257      5256      5258      5256      5259
      5259      5260      5259      5261      5259      5262      5262      5263
      5262      5264      5262      5265      5265      5266      5265      5267
      5265      5268      5268      5269      5268      5270      5268      5271
      5271      5272      5271      5273      5271      5274      5274      5275
      5274      5276      5274      5277      5353      5354      5353      5355
      5353      5356      5353      5350      5350      5351      5350      5352
      5350      5347      5347      5348      5347      5349      5347      5344
      5344      5345      5344      5346      5344      5341      5341      5342
      5341      5343      5341      5338      5338      5339      5338      5340
      5338      5335      5335      5336      5335      5337      5335      5332
      5332      5333      5332      5334      5332      5329      5329      5330
      5329      5331      5329      5326      5326      5327      5326      5328
      5326      5323      5323      5324      5323      5325      5323      5320
      5320      5321      5320      5322      5320      5317      5317      5318
      5317      5319      5317      5315      5315      5316      5313      5314
      5313      5309      5309      5310      5309      5311      5311      5312
      5309      5307      5307      5308      5307      5302      5302      5303
      5302      5304      5302      5300      5300      5297      5301      5297
      5298      5297      5299      5297      5301      5294      5294      5295
      5294      5296      5294      5291      5291      5292      5291      5293
      5291      5278      5278      5287      5278      5283      5278      5279
      5287      5288      5287      5289      5287      5290      5283      5284
      5283      5285      5283      5286      5279      5280      5279      5281
      5279      5282      5307      5305      5305      5306      5305      5357
      5357      5359      5359      5360      5359      5361      5359      5362
      5362      5363      5362      5364      5362      5365      5365      5366
      5365      5367      5365      5368      5368      5369      5368      5370
      5368      5371      5371      5372      5371      5373      5371      5374
      5374      5375      5374      5376      5374      5377      5377      5378
      5377      5379      5377      5380      5380      5381      5380      5382
      5380      5383      5383      5384      5383      5385      5383      5386
      5386      5387      5386      5388      5386      5389      5389      5390
      5389      5391      5389      5392      5392      5393      5392      5394
      5392      5395      5395      5396      5395      5397      5395      5398
      5398      5399      5398      5400      5398      5401      5401      5402
      5401      5403      5401      5404      5313      5315      5357      5358
      5480      5481      5480      5482      5480      5483      5480      5477
      5477      5478      5477      5479      5477      5474      5474      5475
      5474      5476      5474      5471      5471      5472      5471      5473
      5471      5468      5468      5469      5468      5470      5468      5465
      5465      5466      5465      5467      5465      5462      5462      5463
      5462      5464      5462      5459      5459      5460      5459      5461
      5459      5456      5456      5457      5456      5458      5456      5453
      5453      5454      5453      5455      5453      5450      5450      5451
      5450      5452      5450      5447      5447      5448      5447      5449
      5447      5444      5444      5445      5444      5446      5444      5442
      5442      5443      5440      5441      5440      5436      5436      5437
      5436      5438      5438      5439      5436      5434      5434      5435
      5434      5429      5429      5430      5429      5431      5429      5427
      5427      5424      5428      5424      5425      5424      5426      5424
      5428      5421      5421      5422      5421      5423      5421      5418
      5418      5419      5418      5420      5418      5405      5405      5414
      5405      5410      5405      5406      5414      5415      5414      5416
      5414      5417      5410      5411      5410      5412      5410      5413
      5406      5407      5406      5408      5406      5409      5434      5432
      5432      5433      5432      5484      5484      5486      5486      5487
      5486      5488      5486      5489      5489      5490      5489      5491
      5489      5492      5492      5493      5492      5494      5492      5495
      5495      5496      5495      5497      5495      5498      5498      5499
      5498      5500      5498      5501      5501      5502      5501      5503
      5501      5504      5504      5505      5504      5506      5504      5507
      5507      5508      5507      5509      5507      5510      5510      5511
      5510      5512      5510      5513      5513      5514      5513      5515
      5513      5516      5516      5517      5516      5518      5516      5519
      5519      5520      5519      5521      5519      5522      5522      5523
      5522      5524      5522      5525      5525      5526      5525      5527
      5525      5528      5528      5529      5528      5530      5528      5531
      5440      5442      5484      5485      5532      5533      5532      5534
      5532      5535      5532      5536      5536      5537      5536      5538
      5536      5539      5539      5540      5539      5541      5539      5546
      5546      5542      5542      5545      5542      5543      5542      5544
      5547      5548      5547      5549      5547      5550      5547      5545
      5550      5551      5550      5558      5550      5552      5558      5559
      5558      5560      5558      5561      5552      5553      5553      5555
      5553      5554      5555      5556      5555      5557      5555      5567
      5567      5568      5567      5569      5567      5570      5570      5571
      5570      5572      5570      5573      5573      5574      5573      5575
      5573      5576      5576      5577      5576      5578      5576      5579
      5579      5580      5579      5581      5579      5582      5582      5583
      5582      5584      5582      5585      5585      5586      5585      5587
      5587      5588      5587      5589      5589      5590      5589      5591
      5589      5592      5592      5593      5592      5594      5592      5595
      5595      5596      5595      5597      5595      5598      5598      5599
      5598      5600      5598      5601      5601      5602      5601      5603
      5601      5604      5604      5605      5604      5606      5604      5607
      5607      5608      5607      5609      5607      5610      5610      5611
      5610      5612      5610      5613      5561      5562      5562      5564
      5562      5563      5564      5565      5564      5566      5564      5614
      5614      5615      5614      5616      5614      5617      5617      5618
      5617      5619      5617      5620      5620      5621      5620      5622
      5620      5623      5623      5624      5623      5625      5623      5626
      5626      5627      5626      5628      5626      5629      5629      5630
      5629      5631      5629      5632      5632      5633      5632      5634
      5632      5635      5635      5636      5635      5637      5635      5638
      5638      5639      5638      5640      5638      5641      5641      5642
      5641      5643      5641      5644      5644      5645      5644      5646
      5644      5647      5647      5648      5647      5649      5647      5650
      5650      5651      5650      5652      5650      5653      5653      5654
      5653      5655      5653      5656      5657      5658      5657      5659
      5657      5660      5657      5661      5661      5662      5661      5663
      5661      5664      5664      5665      5664      5666      5664      5671
      5671      5667      5667      5670      5667      5668      5667      5669
      5672      5673      5672      5674      5672      5675      5672      5670
      5675      5676      5675      5683      5675      5677      5683      5684
      5683      5685      5683      5686      5677      5678      5678      5680
      5678      5679      5680      5681      5680      5682      5680      5692
      5692      5693      5692      5694      5692      5695      5695      5696
      5695      5697      5695      5698      5698      5699      5698      5700
      5698      5701      5701      5702      5701      5703      5701      5704
      5704      5705      5704      5706      5704      5707      5707      5708
      5707      5709      5707      5710      5710      5711      5710      5712
      5712      5713      5712      5714      5714      5715      5714      5716
      5714      5717      5717      5718      5717      5719      5717      5720
      5720      5721      5720      5722      5720      5723      5723      5724
      5723      5725      5723      5726      5726      5727      5726      5728
      5726      5729      5729      5730      5729      5731      5729      5732
      5732      5733      5732      5734      5732      5735      5735      5736
      5735      5737      5735      5738      5686      5687      5687      5689
      5687      5688      5689      5690      5689      5691      5689      5739
      5739      5740      5739      5741      5739      5742      5742      5743
      5742      5744      5742      5745      5745      5746      5745      5747
      5745      5748      5748      5749      5748      5750      5748      5751
      5751      5752      5751      5753      5751      5754      5754      5755
      5754      5756      5754      5757      5757      5758      5757      5759
      5757      5760      5760      5761      5760      5762      5760      5763
      5763      5764      5763      5765      5763      5766      5766      5767
      5766      5768      5766      5769      5769      5770      5769      5771
      5769      5772      5772      5773      5772      5774      5772      5775
      5775      5776      5775      5777      5775      5778      5778      5779
      5778      5780      5778      5781      5857      5858      5857      5859
      5857      5860      5857      5854      5854      5855      5854      5856
      5854      5851      5851      5852      5851      5853      5851      5848
      5848      5849      5848      5850      5848      5845      5845      5846
      5845      5847      5845      5842      5842      5843      5842      5844
      5842      5839      5839      5840      5839      5841      5839      5836
      5836      5837      5836      5838      5836      5833      5833      5834
      5833      5835      5833      5830      5830      5831      5830      5832
      5830      5827      5827      5828      5827      5829      5827      5824
      5824      5825      5824      5826      5824      5821      5821      5822
      5821      5823      5821      5819      5819      5820      5817      5818
      5817      5813      5813      5814      5813      5815      5815      5816
      5813      5811      5811      5812      5811      5806      5806      5807
      5806      5808      5806      5804      5804      5801      5805      5801
      5802      5801      5803      5801      5805      5798      5798      5799
      5798      5800      5798      5795      5795      5796      5795      5797
      5795      5782      5782      5791      5782      5787      5782      5783
      5791      5792      5791      5793      5791      5794      5787      5788
      5787      5789      5787      5790      5783      5784      5783      5785
      5783      5786      5811      5809      5809      5810      5809      5861
      5861      5863      5863      5864      5863      5865      5863      5866
      5866      5867      5866      5868      5866      5869      5869      5870
      5869      5871      5869      5872      5872      5873      5872      5874
      5872      5875      5875      5876      5875      5877      5875      5878
      5878      5879      5878      5880      5878      5881      5881      5882
      5881      5883      5881      5884      5884      5885      5884      5886
      5884      5887      5887      5888      5887      5889      5887      5890
      5890      5891      5890      5892      5890      5893      5893      5894
      5893      5895      5893      5896      5896      5897      5896      5898
      5896      5899      5899      5900      5899      5901      5899      5902
      5902      5903      5902      5904      5902      5905      5905      5906
      5905      5907      5905      5908      5817      5819      5861      5862
      5909      5910      5909      5911      5909      5912      5909      5913
      5917      5915      5915      5913      5915      5916      5913      5914
      5913      5918      5926      5925      5918      5919      5918      5920
      5918      5924      5924      5921      5921      5925      5921      5922
      5921      5923      5926      5927      5926      5928      5926      5929
      5929      5930      5929      5937      5929      5931      5937      5938
      5937      5939      5937      5940      5931      5932      5932      5934
      5932      5933      5934      5935      5934      5936      5934      5946
      5946      5947      5946      5948      5946      5949      5949      5950
      5949      5951      5949      5952      5952      5953      5952      5954
      5952      5955      5955      5956      5955      5957      5955      5958
      5958      5959      5958      5960      5958      5961      5961      5962
      5961      5963      5961      5964      5964      5965      5964      5966
      5966      5967      5966      5968      5968      5969      5968      5970
      5968      5971      5971      5972      5971      5973      5971      5974
      5974      5975      5974      5976      5974      5977      5977      5978
      5977      5979      5977      5980      5980      5981      5980      5982
      5980      5983      5983      5984      5983      5985      5983      5986
      5986      5987      5986      5988      5986      5989      5989      5990
      5989      5991      5989      5992      5940      5941      5941      5943
      5941      5942      5943      5944      5943      5945      5943      5993
      5993      5994      5993      5995      5993      5996      5996      5997
      5996      5998      5996      5999      5999      6000      5999      6001
      5999      6002      6002      6003      6002      6004      6002      6005
      6005      6006      6005      6007      6005      6008      6008      6009
      6008      6010      6008      6011      6011      6012      6011      6013
      6011      6014      6014      6015      6014      6016      6014      6017
      6017      6018      6017      6019      6017      6020      6020      6021
      6020      6022      6020      6023      6023      6024      6023      6025
      6023      6026      6026      6027      6026      6028      6026      6029
      6029      6030      6029      6031      6029      6032      6032      6033
      6032      6034      6032      6035      6036      6037      6036      6038
      6036      6039      6036      6040      6040      6041      6040      6042
      6040      6043      6043      6044      6043      6045      6043      6050
      6050      6046      6046      6049      6046      6047      6046      6048
      6051      6052      6051      6053      6051      6054      6051      6049
      6054      6055      6054      6062      6054      6056      6062      6063
      6062      6064      6062      6065      6056      6057      6057      6059
      6057      6058      6059      6060      6059      6061      6059      6071
      6071      6072      6071      6073      6071      6074      6074      6075
      6074      6076      6074      6077      6077      6078      6077      6079
      6077      6080      6080      6081      6080      6082      6080      6083
      6083      6084      6083      6085      6083      6086      6086      6087
      6086      6088      6086      6089      6089      6090      6089      6091
      6091      6092      6091      6093      6093      6094      6093      6095
      6093      6096      6096      6097      6096      6098      6096      6099
      6099      6100      6099      6101      6099      6102      6102      6103
      6102      6104      6102      6105      6105      6106      6105      6107
      6105      6108      6108      6109      6108      6110      6108      6111
      6111      6112      6111      6113      6111      6114      6114      6115
      6114      6116      6114      6117      6065      6066      6066      6068
      6066      6067      6068      6069      6068      6070      6068      6118
      6118      6119      6118      6120      6118      6121      6121      6122
      6121      6123      6121      6124      6124      6125      6124      6126
      6124      6127      6127      6128      6127      6129      6127      6130
      6130      6131      6130      6132      6130      6133      6133      6134
      6133      6135      6133      6136      6136      6137      6136      6138
      6136      6139      6139      6140      6139      6141      6139      6142
      6142      6143      6142      6144      6142      6145      6145      6146
      6145      6147      6145      6148      6148      6149      6148      6150
      6148      6151      6151      6152      6151      6153      6151      6154
      6154      6155      6154      6156      6154      6157      6157      6158
      6157      6159      6157      6160      6161      6165      6161      6169
      6161      6173      6165      6166      6165      6167      6165      6168
      6169      6170      6169      6171      6169      6172      6173      6174
      6173      6175      6173      6176      6161      6162      6162      6163
      6162      6164      6162      6177      6177      6178      6177      6179
      6177      6183      6184      6185      6183      6180      6180      6184
      6180      6181      6180      6182      6185      6186      6185      6187
      6185      6188      6188      6189      6188      6196      6188      6190
      6196      6197      6196      6198      6196      6199      6190      6191
      6191      6193      6191      6192      6193      6194      6193      6195
      6193      6205      6205      6206      6205      6207      6205      6208
      6208      6209      6208      6210      6208      6211      6211      6212
      6211      6213      6211      6214      6214      6215      6214      6216
      6214      6217      6217      6218      6217      6219      6217      6220
      6220      6221      6220      6222      6220      6223      6223      6224
      6223      6225      6225      6226      6225      6227      6227      6228
      6227      6229      6227      6230      6230      6231      6230      6232
      6230      6233      6233      6234      6233      6235      6233      6236
      6236      6237      6236      6238      6236      6239      6239      6240
      6239      6241      6239      6242      6242      6243      6242      6244
      6242      6245      6245      6246      6245      6247      6245      6248
      6248      6249      6248      6250      6248      6251      6199      6200
      6200      6202      6200      6201      6202      6203      6202      6204
      6202      6252      6252      6253      6252      6254      6252      6255
      6255      6256      6255      6257      6255      6258      6258      6259
      6258      6260      6258      6261      6261      6262      6261      6263
      6261      6264      6264      6265      6264      6266      6264      6267
      6267      6268      6267      6269      6267      6270      6270      6271
      6270      6272      6270      6273      6273      6274      6273      6275
      6273      6276      6276      6277      6276      6278      6276      6279
      6279      6280      6279      6281      6279      6282      6282      6283
      6282      6284      6282      6285      6285      6286      6285      6287
      6285      6288      6288      6289      6288      6290      6288      6291
      6291      6292      6291      6293      6291      6294      6295      6296
      6295      6297      6295      6298      6295      6299      6299      6300
      6299      6301      6299      6302      6302      6303      6302      6304
      6302      6309      6309      6305      6305      6308      6305      6306
      6305      6307      6310      6311      6310      6312      6310      6313
      6310      6308      6313      6314      6313      6321      6313      6315
      6321      6322      6321      6323      6321      6324      6315      6316
      6316      6318      6316      6317      6318      6319      6318      6320
      6318      6330      6330      6331      6330      6332      6330      6333
      6333      6334      6333      6335      6333      6336      6336      6337
      6336      6338      6336      6339      6339      6340      6339      6341
      6339      6342      6342      6343      6342      6344      6342      6345
      6345      6346      6345      6347      6345      6348      6348      6349
      6348      6350      6350      6351      6350      6352      6352      6353
      6352      6354      6352      6355      6355      6356      6355      6357
      6355      6358      6358      6359      6358      6360      6358      6361
      6361      6362      6361      6363      6361      6364      6364      6365
      6364      6366      6364      6367      6367      6368      6367      6369
      6367      6370      6370      6371      6370      6372      6370      6373
      6373      6374      6373      6375      6373      6376      6324      6325
      6325      6327      6325      6326      6327      6328      6327      6329
      6327      6377      6377      6378      6377      6379      6377      6380
      6380      6381      6380      6382      6380      6383      6383      6384
      6383      6385      6383      6386      6386      6387      6386      6388
      6386      6389      6389      6390      6389      6391      6389      6392
      6392      6393      6392      6394      6392      6395      6395      6396
      6395      6397      6395      6398      6398      6399      6398      6400
      6398      6401      6401      6402      6401      6403      6401      6404
      6404      6405      6404      6406      6404      6407      6407      6408
      6407      6409      6407      6410      6410      6411      6410      6412
      6410      6413      6413      6414      6413      6415      6413      6416
      6416      6417      6416      6418      6416      6419      6420      6424
      6420      6428      6420      6432      6424      6425      6424      6426
      6424      6427      6428      6429      6428      6430      6428      6431
      6432      6433      6432      6434      6432      6435      6420      6421
      6421      6422      6421      6423      6421      6436      6436      6437
      6436      6438      6436      6442      6443      6444      6442      6439
      6439      6443      6439      6440      6439      6441      6444      6445
      6444      6446      6444      6447      6447      6448      6447      6455
      6447      6449      6455      6456      6455      6457      6455      6458
      6449      6450      6450      6452      6450      6451      6452      6453
      6452      6454      6452      6464      6464      6465      6464      6466
      6464      6467      6467      6468      6467      6469      6467      6470
      6470      6471      6470      6472      6470      6473      6473      6474
      6473      6475      6473      6476      6476      6477      6476      6478
      6476      6479      6479      6480      6479      6481      6479      6482
      6482      6483      6482      6484      6484      6485      6484      6486
      6486      6487      6486      6488      6486      6489      6489      6490
      6489      6491      6489      6492      6492      6493      6492      6494
      6492      6495      6495      6496      6495      6497      6495      6498
      6498      6499      6498      6500      6498      6501      6501      6502
      6501      6503      6501      6504      6504      6505      6504      6506
      6504      6507      6507      6508      6507      6509      6507      6510
      6458      6459      6459      6461      6459      6460      6461      6462
      6461      6463      6461      6511      6511      6512      6511      6513
      6511      6514      6514      6515      6514      6516      6514      6517
      6517      6518      6517      6519      6517      6520      6520      6521
      6520      6522      6520      6523      6523      6524      6523      6525
      6523      6526      6526      6527      6526      6528      6526      6529
      6529      6530      6529      6531      6529      6532      6532      6533
      6532      6534      6532      6535      6535      6536      6535      6537
      6535      6538      6538      6539      6538      6540      6538      6541
      6541      6542      6541      6543      6541      6544      6544      6545
      6544      6546      6544      6547      6547      6548      6547      6549
      6547      6550      6550      6551      6550      6552      6550      6553
      6554      6558      6554      6562      6554      6566      6558      6559
      6558      6560      6558      6561      6562      6563      6562      6564
      6562      6565      6566      6567      6566      6568      6566      6569
      6554      6555      6555      6556      6555      6557      6555      6570
      6570      6571      6570      6572      6570      6576      6577      6578
      6576      6573      6573      6577      6573      6574      6573      6575
      6578      6579      6578      6580      6578      6581      6581      6582
      6581      6589      6581      6583      6589      6590      6589      6591
      6589      6592      6583      6584      6584      6586      6584      6585
      6586      6587      6586      6588      6586      6598      6598      6599
      6598      6600      6598      6601      6601      6602      6601      6603
      6601      6604      6604      6605      6604      6606      6604      6607
      6607      6608      6607      6609      6607      6610      6610      6611
      6610      6612      6610      6613      6613      6614      6613      6615
      6613      6616      6616      6617      6616      6618      6618      6619
      6618      6620      6620      6621      6620      6622      6620      6623
      6623      6624      6623      6625      6623      6626      6626      6627
      6626      6628      6626      6629      6629      6630      6629      6631
      6629      6632      6632      6633      6632      6634      6632      6635
      6635      6636      6635      6637      6635      6638      6638      6639
      6638      6640      6638      6641      6641      6642      6641      6643
      6641      6644      6592      6593      6593      6595      6593      6594
      6595      6596      6595      6597      6595      6645      6645      6646
      6645      6647      6645      6648      6648      6649      6648      6650
      6648      6651      6651      6652      6651      6653      6651      6654
      6654      6655      6654      6656      6654      6657      6657      6658
      6657      6659      6657      6660      6660      6661      6660      6662
      6660      6663      6663      6664      6663      6665      6663      6666
      6666      6667      6666      6668      6666      6669      6669      6670
      6669      6671      6669      6672      6672      6673      6672      6674
      6672      6675      6675      6676      6675      6677      6675      6678
      6678      6679      6678      6680      6678      6681      6681      6682
      6681      6683      6681      6684      6684      6685      6684      6686
      6684      6687      6763      6764      6763      6765      6763      6766
      6763      6760      6760      6761      6760      6762      6760      6757
      6757      6758      6757      6759      6757      6754      6754      6755
      6754      6756      6754      6751      6751      6752      6751      6753
      6751      6748      6748      6749      6748      6750      6748      6745
      6745      6746      6745      6747      6745      6742      6742      6743
      6742      6744      6742      6739      6739      6740      6739      6741
      6739      6736      6736      6737      6736      6738      6736      6733
      6733      6734      6733      6735      6733      6730      6730      6731
      6730      6732      6730      6727      6727      6728      6727      6729
      6727      6725      6725      6726      6723      6724      6723      6719
      6719      6720      6719      6721      6721      6722      6719      6717
      6717      6718      6717      6712      6712      6713      6712      6714
      6712      6710      6710      6707      6711      6707      6708      6707
      6709      6707      6711      6704      6704      6705      6704      6706
      6704      6701      6701      6702      6701      6703      6701      6688
      6688      6697      6688      6693      6688      6689      6697      6698
      6697      6699      6697      6700      6693      6694      6693      6695
      6693      6696      6689      6690      6689      6691      6689      6692
      6717      6715      6715      6716      6715      6767      6767      6769
      6769      6770      6769      6771      6769      6772      6772      6773
      6772      6774      6772      6775      6775      6776      6775      6777
      6775      6778      6778      6779      6778      6780      6778      6781
      6781      6782      6781      6783      6781      6784      6784      6785
      6784      6786      6784      6787      6787      6788      6787      6789
      6787      6790      6790      6791      6790      6792      6790      6793
      6793      6794      6793      6795      6793      6796      6796      6797
      6796      6798      6796      6799      6799      6800      6799      6801
      6799      6802      6802      6803      6802      6804      6802      6805
      6805      6806      6805      6807      6805      6808      6808      6809
      6808      6810      6808      6811      6811      6812      6811      6813
      6811      6814      6723      6725      6767      6768      6815      6817
      6815      6816      6817      6818      6815      6861      6861      6862
      6861      6863      6861      6858      6858      6859      6858      6860
      6815      6819      6819      6820      6819      6821      6819      6822
      6822      6853      6853      6858      6853      6854      6854      6855
      6854      6856      6854      6857      6822      6823      6823      6824
      6823      6825      6825      6826      6825      6827      6825      6828
      6828      6829      6828      6851      6851      6852      6851      6853
      6828      6830      6830      6831      6830      6840      6840      6845
      6845      6846      6845      6847      6845      6848      6848      6849
      6848      6850      6848      6851      6840      6841      6841      6842
      6841      6843      6841      6844      6830      6832      6832      6833
      6832      6834      6832      6835      6835      6836      6835      6837
      6835      6838      6838      6839      6838      6840      6838      6864
      6864      6865      6864      6866      6866      6867      6866      6868
      6866      6869      6864      6870      6870      6871      6870      6872
      6870      6873      6873      6874      6873      6875      6873      6876
      6876      6877      6876      6878      6876      6879      6879      6880
      6879      6881      6881      6882      6881      6883      6881      6884
      6879      6885      6885      6886      6885      6887      6885      6888
      6889      6891      6889      6890      6891      6892      6889      6935
      6935      6936      6935      6937      6935      6932      6932      6933
      6932      6934      6889      6893      6893      6894      6893      6895
      6893      6896      6896      6927      6927      6932      6927      6928
      6928      6929      6928      6930      6928      6931      6896      6897
      6897      6898      6897      6899      6899      6900      6899      6901
      6899      6902      6902      6903      6902      6925      6925      6926
      6925      6927      6902      6904      6904      6905      6904      6914
      6914      6919      6919      6920      6919      6921      6919      6922
      6922      6923      6922      6924      6922      6925      6914      6915
      6915      6916      6915      6917      6915      6918      6904      6906
      6906      6907      6906      6908      6906      6909      6909      6910
      6909      6911      6909      6912      6912      6913      6912      6914
      6912      6938      6938      6939      6938      6940      6940      6941
      6940      6942      6940      6943      6938      6944      6944      6945
      6944      6946      6944      6947      6947      6948      6947      6949
      6947      6950      6950      6951      6950      6952      6950      6953
      6953      6954      6953      6955      6955      6956      6955      6957
      6955      6958      6953      6959      6959      6960      6959      6961
      6959      6962      6963      6965      6963      6964      6965      6966
      6963      7009      7009      7010      7009      7011      7009      7006
      7006      7007      7006      7008      6963      6967      6967      6968
      6967      6969      6967      6970      6970      7001      7001      7006
      7001      7002      7002      7003      7002      7004      7002      7005
      6970      6971      6971      6972      6971      6973      6973      6974
      6973      6975      6973      6976      6976      6977      6976      6999
      6999      7000      6999      7001      6976      6978      6978      6979
      6978      6988      6988      6993      6993      6994      6993      6995
      6993      6996      6996      6997      6996      6998      6996      6999
      6988      6989      6989      6990      6989      6991      6989      6992
      6978      6980      6980      6981      6980      6982      6980      6983
      6983      6984      6983      6985      6983      6986      6986      6987
      6986      6988      6986      7012      7012      7013      7012      7014
      7014      7015      7014      7016      7014      7017      7012      7018
      7018      7019      7018      7020      7018      7021      7021      7022
      7021      7023      7021      7024      7024      7025      7024      7026
      7024      7027      7027      7028      7027      7029      7029      7030
      7029      7031      7029      7032      7027      7033      7033      7034
      7033      7035      7033      7036      7037      7039      7037      7038
      7039      7040      7037      7083      7083      7084      7083      7085
      7083      7080      7080      7081      7080      7082      7037      7041
      7041      7042      7041      7043      7041      7044      7044      7075
      7075      7080      7075      7076      7076      7077      7076      7078
      7076      7079      7044      7045      7045      7046      7045      7047
      7047      7048      7047      7049      7047      7050      7050      7051
      7050      7073      7073      7074      7073      7075      7050      7052
      7052      7053      7052      7062      7062      7067      7067      7068
      7067      7069      7067      7070      7070      7071      7070      7072
      7070      7073      7062      7063      7063      7064      7063      7065
      7063      7066      7052      7054      7054      7055      7054      7056
      7054      7057      7057      7058      7057      7059      7057      7060
      7060      7061      7060      7062      7060      7086      7086      7087
      7086      7088      7088      7089      7088      7090      7088      7091
      7086      7092      7092      7093      7092      7094      7092      7095
      7095      7096      7095      7097      7095      7098      7098      7099
      7098      7100      7098      7101      7101      7102      7101      7103
      7103      7104      7103      7105      7103      7106      7101      7107
      7107      7108      7107      7109      7107      7110      7111      7113
      7111      7112      7113      7114      7111      7157      7157      7158
      7157      7159      7157      7154      7154      7155      7154      7156
      7111      7115      7115      7116      7115      7117      7115      7118
      7118      7149      7149      7154      7149      7150      7150      7151
      7150      7152      7150      7153      7118      7119      7119      7120
      7119      7121      7121      7122      7121      7123      7121      7124
      7124      7125      7124      7147      7147      7148      7147      7149
      7124      7126      7126      7127      7126      7136      7136      7141
      7141      7142      7141      7143      7141      7144      7144      7145
      7144      7146      7144      7147      7136      7137      7137      7138
      7137      7139      7137      7140      7126      7128      7128      7129
      7128      7130      7128      7131      7131      7132      7131      7133
      7131      7134      7134      7135      7134      7136      7134      7160
      7160      7161      7160      7162      7162      7163      7162      7164
      7162      7165      7160      7166      7166      7167      7166      7168
      7166      7169      7169      7170      7169      7171      7169      7172
      7172      7173      7172      7174      7172      7175      7175      7176
      7175      7177      7177      7178      7177      7179      7177      7180
      7175      7181      7181      7182      7181      7183      7181      7184
      7185      7187      7185      7186      7187      7188      7185      7231
      7231      7232      7231      7233      7231      7228      7228      7229
      7228      7230      7185      7189      7189      7190      7189      7191
      7189      7192      7192      7223      7223      7228      7223      7224
      7224      7225      7224      7226      7224      7227      7192      7193
      7193      7194      7193      7195      7195      7196      7195      7197
      7195      7198      7198      7199      7198      7221      7221      7222
      7221      7223      7198      7200      7200      7201      7200      7210
      7210      7215      7215      7216      7215      7217      7215      7218
      7218      7219      7218      7220      7218      7221      7210      7211
      7211      7212      7211      7213      7211      7214      7200      7202
      7202      7203      7202      7204      7202      7205      7205      7206
      7205      7207      7205      7208      7208      7209      7208      7210
      7208      7234      7234      7235      7234      7236      7236      7237
      7236      7238      7236      7239      7234      7240      7240      7241
      7240      7242      7240      7243      7243      7244      7243      7245
      7243      7246      7246      7247      7246      7248      7246      7249
      7249      7250      7249      7251      7251      7252      7251      7253
      7251      7254      7249      7255      7255      7256      7255      7257
      7255      7258      7259      7261      7259      7260      7261      7262
      7259      7305      7305      7306      7305      7307      7305      7302
      7302      7303      7302      7304      7259      7263      7263      7264
      7263      7265      7263      7266      7266      7297      7297      7302
      7297      7298      7298      7299      7298      7300      7298      7301
      7266      7267      7267      7268      7267      7269      7269      7270
      7269      7271      7269      7272      7272      7273      7272      7295
      7295      7296      7295      7297      7272      7274      7274      7275
      7274      7284      7284      7289      7289      7290      7289      7291
      7289      7292      7292      7293      7292      7294      7292      7295
      7284      7285      7285      7286      7285      7287      7285      7288
      7274      7276      7276      7277      7276      7278      7276      7279
      7279      7280      7279      7281      7279      7282      7282      7283
      7282      7284      7282      7308      7308      7309      7308      7310
      7310      7311      7310      7312      7310      7313      7308      7314
      7314      7315      7314      7316      7314      7317      7317      7318
      7317      7319      7317      7320      7320      7321      7320      7322
      7320      7323      7323      7324      7323      7325      7325      7326
      7325      7327      7325      7328      7323      7329      7329      7330
      7329      7331      7329      7332      7333      7335      7333      7334
      7335      7336      7333      7379      7379      7380      7379      7381
      7379      7376      7376      7377      7376      7378      7333      7337
      7337      7338      7337      7339      7337      7340      7340      7371
      7371      7376      7371      7372      7372      7373      7372      7374
      7372      7375      7340      7341      7341      7342      7341      7343
      7343      7344      7343      7345      7343      7346      7346      7347
      7346      7369      7369      7370      7369      7371      7346      7348
      7348      7349      7348      7358      7358      7363      7363      7364
      7363      7365      7363      7366      7366      7367      7366      7368
      7366      7369      7358      7359      7359      7360      7359      7361
      7359      7362      7348      7350      7350      7351      7350      7352
      7350      7353      7353      7354      7353      7355      7353      7356
      7356      7357      7356      7358      7356      7382      7382      7383
      7382      7384      7384      7385      7384      7386      7384      7387
      7382      7388      7388      7389      7388      7390      7388      7391
      7391      7392      7391      7393      7391      7394      7394      7395
      7394      7396      7394      7397      7397      7398      7397      7399
      7399      7400      7399      7401      7399      7402      7397      7403
      7403      7404      7403      7405      7403      7406      7407      7409
      7407      7408      7409      7410      7407      7453      7453      7454
      7453      7455      7453      7450      7450      7451      7450      7452
      7407      7411      7411      7412      7411      7413      7411      7414
      7414      7445      7445      7450      7445      7446      7446      7447
      7446      7448      7446      7449      7414      7415      7415      7416
      7415      7417      7417      7418      7417      7419      7417      7420
      7420      7421      7420      7443      7443      7444      7443      7445
      7420      7422      7422      7423      7422      7432      7432      7437
      7437      7438      7437      7439      7437      7440      7440      7441
      7440      7442      7440      7443      7432      7433      7433      7434
      7433      7435      7433      7436      7422      7424      7424      7425
      7424      7426      7424      7427      7427      7428      7427      7429
      7427      7430      7430      7431      7430      7432      7430      7456
      7456      7457      7456      7458      7458      7459      7458      7460
      7458      7461      7456      7462      7462      7463      7462      7464
      7462      7465      7465      7466      7465      7467      7465      7468
      7468      7469      7468      7470      7468      7471      7471      7472
      7471      7473      7473      7474      7473      7475      7473      7476
      7471      7477      7477      7478      7477      7479      7477      7480
      7481      7483      7481      7482      7483      7484      7481      7527
      7527      7528      7527      7529      7527      7524      7524      7525
      7524      7526      7481      7485      7485      7486      7485      7487
      7485      7488      7488      7519      7519      7524      7519      7520
      7520      7521      7520      7522      7520      7523      7488      7489
      7489      7490      7489      7491      7491      7492      7491      7493
      7491      7494      7494      7495      7494      7517      7517      7518
      7517      7519      7494      7496      7496      7497      7496      7506
      7506      7511      7511      7512      7511      7513      7511      7514
      7514      7515      7514      7516      7514      7517      7506      7507
      7507      7508      7507      7509      7507      7510      7496      7498
      7498      7499      7498      7500      7498      7501      7501      7502
      7501      7503      7501      7504      7504      7505      7504      7506
      7504      7530      7530      7531      7530      7532      7532      7533
      7532      7534      7532      7535      7530      7536      7536      7537
      7536      7538      7536      7539      7539      7540      7539      7541
      7539      7542      7542      7543      7542      7544      7542      7545
      7545      7546      7545      7547      7547      7548      7547      7549
      7547      7550      7545      7551      7551      7552      7551      7553
      7551      7554      7555      7557      7555      7556      7557      7558
      7555      7601      7601      7602      7601      7603      7601      7598
      7598      7599      7598      7600      7555      7559      7559      7560
      7559      7561      7559      7562      7562      7593      7593      7598
      7593      7594      7594      7595      7594      7596      7594      7597
      7562      7563      7563      7564      7563      7565      7565      7566
      7565      7567      7565      7568      7568      7569      7568      7591
      7591      7592      7591      7593      7568      7570      7570      7571
      7570      7580      7580      7585      7585      7586      7585      7587
      7585      7588      7588      7589      7588      7590      7588      7591
      7580      7581      7581      7582      7581      7583      7581      7584
      7570      7572      7572      7573      7572      7574      7572      7575
      7575      7576      7575      7577      7575      7578      7578      7579
      7578      7580      7578      7604      7604      7605      7604      7606
      7606      7607      7606      7608      7606      7609      7604      7610
      7610      7611      7610      7612      7610      7613      7613      7614
      7613      7615      7613      7616      7616      7617      7616      7618
      7616      7619      7619      7620      7619      7621      7621      7622
      7621      7623      7621      7624      7619      7625      7625      7626
      7625      7627      7625      7628      7629      7631      7629      7630
      7631      7632      7629      7675      7675      7676      7675      7677
      7675      7672      7672      7673      7672      7674      7629      7633
      7633      7634      7633      7635      7633      7636      7636      7667
      7667      7672      7667      7668      7668      7669      7668      7670
      7668      7671      7636      7637      7637      7638      7637      7639
      7639      7640      7639      7641      7639      7642      7642      7643
      7642      7665      7665      7666      7665      7667      7642      7644
      7644      7645      7644      7654      7654      7659      7659      7660
      7659      7661      7659      7662      7662      7663      7662      7664
      7662      7665      7654      7655      7655      7656      7655      7657
      7655      7658      7644      7646      7646      7647      7646      7648
      7646      7649      7649      7650      7649      7651      7649      7652
      7652      7653      7652      7654      7652      7678      7678      7679
      7678      7680      7680      7681      7680      7682      7680      7683
      7678      7684      7684      7685      7684      7686      7684      7687
      7687      7688      7687      7689      7687      7690      7690      7691
      7690      7692      7690      7693      7693      7694      7693      7695
      7695      7696      7695      7697      7695      7698      7693      7699
      7699      7700      7699      7701      7699      7702      7703      7705
      7703      7704      7705      7706      7703      7749      7749      7750
      7749      7751      7749      7746      7746      7747      7746      7748
      7703      7707      7707      7708      7707      7709      7707      7710
      7710      7741      7741      7746      7741      7742      7742      7743
      7742      7744      7742      7745      7710      7711      7711      7712
      7711      7713      7713      7714      7713      7715      7713      7716
      7716      7717      7716      7739      7739      7740      7739      7741
      7716      7718      7718      7719      7718      7728      7728      7733
      7733      7734      7733      7735      7733      7736      7736      7737
      7736      7738      7736      7739      7728      7729      7729      7730
      7729      7731      7729      7732      7718      7720      7720      7721
      7720      7722      7720      7723      7723      7724      7723      7725
      7723      7726      7726      7727      7726      7728      7726      7752
      7752      7753      7752      7754      7754      7755      7754      7756
      7754      7757      7752      7758      7758      7759      7758      7760
      7758      7761      7761      7762      7761      7763      7761      7764
      7764      7765      7764      7766      7764      7767      7767      7768
      7767      7769      7769      7770      7769      7771      7769      7772
      7767      7773      7773      7774      7773      7775      7773      7776
      7777      7779      7777      7778      7779      7780      7777      7823
      7823      7824      7823      7825      7823      7820      7820      7821
      7820      7822      7777      7781      7781      7782      7781      7783
      7781      7784      7784      7815      7815      7820      7815      7816
      7816      7817      7816      7818      7816      7819      7784      7785
      7785      7786      7785      7787      7787      7788      7787      7789
      7787      7790      7790      7791      7790      7813      7813      7814
      7813      7815      7790      7792      7792      7793      7792      7802
      7802      7807      7807      7808      7807      7809      7807      7810
      7810      7811      7810      7812      7810      7813      7802      7803
      7803      7804      7803      7805      7803      7806      7792      7794
      7794      7795      7794      7796      7794      7797      7797      7798
      7797      7799      7797      7800      7800      7801      7800      7802
      7800      7826      7826      7827      7826      7828      7828      7829
      7828      7830      7828      7831      7826      7832      7832      7833
      7832      7834      7832      7835      7835      7836      7835      7837
      7835      7838      7838      7839      7838      7840      7838      7841
      7841      7842      7841      7843      7843      7844      7843      7845
      7843      7846      7841      7847      7847      7848      7847      7849
      7847      7850      7851      7853      7851      7852      7853      7854
      7851      7897      7897      7898      7897      7899      7897      7894
      7894      7895      7894      7896      7851      7855      7855      7856
      7855      7857      7855      7858      7858      7889      7889      7894
      7889      7890      7890      7891      7890      7892      7890      7893
      7858      7859      7859      7860      7859      7861      7861      7862
      7861      7863      7861      7864      7864      7865      7864      7887
      7887      7888      7887      7889      7864      7866      7866      7867
      7866      7876      7876      7881      7881      7882      7881      7883
      7881      7884      7884      7885      7884      7886      7884      7887
      7876      7877      7877      7878      7877      7879      7877      7880
      7866      7868      7868      7869      7868      7870      7868      7871
      7871      7872      7871      7873      7871      7874      7874      7875
      7874      7876      7874      7900      7900      7901      7900      7902
      7902      7903      7902      7904      7902      7905      7900      7906
      7906      7907      7906      7908      7906      7909      7909      7910
      7909      7911      7909      7912      7912      7913      7912      7914
      7912      7915      7915      7916      7915      7917      7917      7918
      7917      7919      7917      7920      7915      7921      7921      7922
      7921      7923      7921      7924      7925      7927      7925      7926
      7927      7928      7925      7971      7971      7972      7971      7973
      7971      7968      7968      7969      7968      7970      7925      7929
      7929      7930      7929      7931      7929      7932      7932      7963
      7963      7968      7963      7964      7964      7965      7964      7966
      7964      7967      7932      7933      7933      7934      7933      7935
      7935      7936      7935      7937      7935      7938      7938      7939
      7938      7961      7961      7962      7961      7963      7938      7940
      7940      7941      7940      7950      7950      7955      7955      7956
      7955      7957      7955      7958      7958      7959      7958      7960
      7958      7961      7950      7951      7951      7952      7951      7953
      7951      7954      7940      7942      7942      7943      7942      7944
      7942      7945      7945      7946      7945      7947      7945      7948
      7948      7949      7948      7950      7948      7974      7974      7975
      7974      7976      7976      7977      7976      7978      7976      7979
      7974      7980      7980      7981      7980      7982      7980      7983
      7983      7984      7983      7985      7983      7986      7986      7987
      7986      7988      7986      7989      7989      7990      7989      7991
      7991      7992      7991      7993      7991      7994      7989      7995
      7995      7996      7995      7997      7995      7998      7999      8001
      7999      8000      8001      8002      7999      8045      8045      8046
      8045      8047      8045      8042      8042      8043      8042      8044
      7999      8003      8003      8004      8003      8005      8003      8006
      8006      8037      8037      8042      8037      8038      8038      8039
      8038      8040      8038      8041      8006      8007      8007      8008
      8007      8009      8009      8010      8009      8011      8009      8012
      8012      8013      8012      8035      8035      8036      8035      8037
      8012      8014      8014      8015      8014      8024      8024      8029
      8029      8030      8029      8031      8029      8032      8032      8033
      8032      8034      8032      8035      8024      8025      8025      8026
      8025      8027      8025      8028      8014      8016      8016      8017
      8016      8018      8016      8019      8019      8020      8019      8021
      8019      8022      8022      8023      8022      8024      8022      8048
      8048      8049      8048      8050      8050      8051      8050      8052
      8050      8053      8048      8054      8054      8055      8054      8056
      8054      8057      8057      8058      8057      8059      8057      8060
      8060      8061      8060      8062      8060      8063      8063      8064
      8063      8065      8065      8066      8065      8067      8065      8068
      8063      8069      8069      8070      8069      8071      8069      8072
      8073      8075      8073      8074      8075      8076      8073      8119
      8119      8120      8119      8121      8119      8116      8116      8117
      8116      8118      8073      8077      8077      8078      8077      8079
      8077      8080      8080      8111      8111      8116      8111      8112
      8112      8113      8112      8114      8112      8115      8080      8081
      8081      8082      8081      8083      8083      8084      8083      8085
      8083      8086      8086      8087      8086      8109      8109      8110
      8109      8111      8086      8088      8088      8089      8088      8098
      8098      8103      8103      8104      8103      8105      8103      8106
      8106      8107      8106      8108      8106      8109      8098      8099
      8099      8100      8099      8101      8099      8102      8088      8090
      8090      8091      8090      8092      8090      8093      8093      8094
      8093      8095      8093      8096      8096      8097      8096      8098
      8096      8122      8122      8123      8122      8124      8124      8125
      8124      8126      8124      8127      8122      8128      8128      8129
      8128      8130      8128      8131      8131      8132      8131      8133
      8131      8134      8134      8135      8134      8136      8134      8137
      8137      8138      8137      8139      8139      8140      8139      8141
      8139      8142      8137      8143      8143      8144      8143      8145
      8143      8146      8147      8149      8147      8148      8149      8150
      8147      8193      8193      8194      8193      8195      8193      8190
      8190      8191      8190      8192      8147      8151      8151      8152
      8151      8153      8151      8154      8154      8185      8185      8190
      8185      8186      8186      8187      8186      8188      8186      8189
      8154      8155      8155      8156      8155      8157      8157      8158
      8157      8159      8157      8160      8160      8161      8160      8183
      8183      8184      8183      8185      8160      8162      8162      8163
      8162      8172      8172      8177      8177      8178      8177      8179
      8177      8180      8180      8181      8180      8182      8180      8183
      8172      8173      8173      8174      8173      8175      8173      8176
      8162      8164      8164      8165      8164      8166      8164      8167
      8167      8168      8167      8169      8167      8170      8170      8171
      8170      8172      8170      8196      8196      8197      8196      8198
      8198      8199      8198      8200      8198      8201      8196      8202
      8202      8203      8202      8204      8202      8205      8205      8206
      8205      8207      8205      8208      8208      8209      8208      8210
      8208      8211      8211      8212      8211      8213      8213      8214
      8213      8215      8213      8216      8211      8217      8217      8218
      8217      8219      8217      8220      8221      8223      8221      8222
      8223      8224      8221      8267      8267      8268      8267      8269
      8267      8264      8264      8265      8264      8266      8221      8225
      8225      8226      8225      8227      8225      8228      8228      8259
      8259      8264      8259      8260      8260      8261      8260      8262
      8260      8263      8228      8229      8229      8230      8229      8231
      8231      8232      8231      8233      8231      8234      8234      8235
      8234      8257      8257      8258      8257      8259      8234      8236
      8236      8237      8236      8246      8246      8251      8251      8252
      8251      8253      8251      8254      8254      8255      8254      8256
      8254      8257      8246      8247      8247      8248      8247      8249
      8247      8250      8236      8238      8238      8239      8238      8240
      8238      8241      8241      8242      8241      8243      8241      8244
      8244      8245      8244      8246      8244      8270      8270      8271
      8270      8272      8272      8273      8272      8274      8272      8275
      8270      8276      8276      8277      8276      8278      8276      8279
      8279      8280      8279      8281      8279      8282      8282      8283
      8282      8284      8282      8285      8285      8286      8285      8287
      8287      8288      8287      8289      8287      8290      8285      8291
      8291      8292      8291      8293      8291      8294      8295      8297
      8295      8296      8297      8298      8295      8341      8341      8342
      8341      8343      8341      8338      8338      8339      8338      8340
      8295      8299      8299      8300      8299      8301      8299      8302
      8302      8333      8333      8338      8333      8334      8334      8335
      8334      8336      8334      8337      8302      8303      8303      8304
      8303      8305      8305      8306      8305      8307      8305      8308
      8308      8309      8308      8331      8331      8332      8331      8333
      8308      8310      8310      8311      8310      8320      8320      8325
      8325      8326      8325      8327      8325      8328      8328      8329
      8328      8330      8328      8331      8320      8321      8321      8322
      8321      8323      8321      8324      8310      8312      8312      8313
      8312      8314      8312      8315      8315      8316      8315      8317
      8315      8318      8318      8319      8318      8320      8318      8344
      8344      8345      8344      8346      8346      8347      8346      8348
      8346      8349      8344      8350      8350      8351      8350      8352
      8350      8353      8353      8354      8353      8355      8353      8356
      8356      8357      8356      8358      8356      8359      8359      8360
      8359      8361      8361      8362      8361      8363      8361      8364
      8359      8365      8365      8366      8365      8367      8365      8368
      8369      8370      8369      8371      8369      8372      8369      8373
      8377      8375      8375      8373      8375      8376      8373      8374
      8373      8378      8386      8385      8378      8379      8378      8380
      8378      8384      8384      8381      8381      8385      8381      8382
      8381      8383      8386      8387      8386      8388      8386      8389
      8389      8390      8389      8397      8389      8391      8397      8398
      8397      8399      8397      8400      8391      8392      8392      8394
      8392      8393      8394      8395      8394      8396      8394      8406
      8406      8407      8406      8408      8406      8409      8409      8410
      8409      8411      8409      8412      8412      8413      8412      8414
      8412      8415      8415      8416      8415      8417      8415      8418
      8418      8419      8418      8420      8418      8421      8421      8422
      8421      8423      8421      8424      8424      8425      8424      8426
      8426      8427      8426      8428      8428      8429      8428      8430
      8428      8431      8431      8432      8431      8433      8431      8434
      8434      8435      8434      8436      8434      8437      8437      8438
      8437      8439      8437      8440      8440      8441      8440      8442
      8440      8443      8443      8444      8443      8445      8443      8446
      8446      8447      8446      8448      8446      8449      8449      8450
      8449      8451      8449      8452      8400      8401      8401      8403
      8401      8402      8403      8404      8403      8405      8403      8453
      8453      8454      8453      8455      8453      8456      8456      8457
      8456      8458      8456      8459      8459      8460      8459      8461
      8459      8462      8462      8463      8462      8464      8462      8465
      8465      8466      8465      8467      8465      8468      8468      8469
      8468      8470      8468      8471      8471      8472      8471      8473
      8471      8474      8474      8475      8474      8476      8474      8477
      8477      8478      8477      8479      8477      8480      8480      8481
      8480      8482      8480      8483      8483      8484      8483      8485
      8483      8486      8486      8487      8486      8488      8486      8489
      8489      8490      8489      8491      8489      8492      8492      8493
      8492      8494      8492      8495      8571      8572      8571      8573
      8571      8574      8571      8568      8568      8569      8568      8570
      8568      8565      8565      8566      8565      8567      8565      8562
      8562      8563      8562      8564      8562      8559      8559      8560
      8559      8561      8559      8556      8556      8557      8556      8558
      8556      8553      8553      8554      8553      8555      8553      8550
      8550      8551      8550      8552      8550      8547      8547      8548
      8547      8549      8547      8544      8544      8545      8544      8546
      8544      8541      8541      8542      8541      8543      8541      8538
      8538      8539      8538      8540      8538      8535      8535      8536
      8535      8537      8535      8533      8533      8534      8531      8532
      8531      8527      8527      8528      8527      8529      8529      8530
      8527      8525      8525      8526      8525      8520      8520      8521
      8520      8522      8520      8518      8518      8515      8519      8515
      8516      8515      8517      8515      8519      8512      8512      8513
      8512      8514      8512      8509      8509      8510      8509      8511
      8509      8496      8496      8505      8496      8501      8496      8497
      8505      8506      8505      8507      8505      8508      8501      8502
      8501      8503      8501      8504      8497      8498      8497      8499
      8497      8500      8525      8523      8523      8524      8523      8575
      8575      8577      8577      8578      8577      8579      8577      8580
      8580      8581      8580      8582      8580      8583      8583      8584
      8583      8585      8583      8586      8586      8587      8586      8588
      8586      8589      8589      8590      8589      8591      8589      8592
      8592      8593      8592      8594      8592      8595      8595      8596
      8595      8597      8595      8598      8598      8599      8598      8600
      8598      8601      8601      8602      8601      8603      8601      8604
      8604      8605      8604      8606      8604      8607      8607      8608
      8607      8609      8607      8610      8610      8611      8610      8612
      8610      8613      8613      8614      8613      8615      8613      8616
      8616      8617      8616      8618      8616      8619      8619      8620
      8619      8621      8619      8622      8531      8533      8575      8576
      8623      8624      8623      8625      8623      8626      8623      8627
      8631      8629      8629      8627      8629      8630      8627      8628
      8627      8632      8640      8639      8632      8633      8632      8634
      8632      8638      8638      8635      8635      8639      8635      8636
      8635      8637      8640      8641      8640      8642      8640      8643
      8643      8644      8643      8651      8643      8645      8651      8652
      8651      8653      8651      8654      8645      8646      8646      8648
      8646      8647      8648      8649      8648      8650      8648      8660
      8660      8661      8660      8662      8660      8663      8663      8664
      8663      8665      8663      8666      8666      8667      8666      8668
      8666      8669      8669      8670      8669      8671      8669      8672
      8672      8673      8672      8674      8672      8675      8675      8676
      8675      8677      8675      8678      8678      8679      8678      8680
      8680      8681      8680      8682      8682      8683      8682      8684
      8682      8685      8685      8686      8685      8687      8685      8688
      8688      8689      8688      8690      8688      8691      8691      8692
      8691      8693      8691      8694      8694      8695      8694      8696
      8694      8697      8697      8698      8697      8699      8697      8700
      8700      8701      8700      8702      8700      8703      8703      8704
      8703      8705      8703      8706      8654      8655      8655      8657
      8655      8656      8657      8658      8657      8659      8657      8707
      8707      8708      8707      8709      8707      8710      8710      8711
      8710      8712      8710      8713      8713      8714      8713      8715
      8713      8716      8716      8717      8716      8718      8716      8719
      8719      8720      8719      8721      8719      8722      8722      8723
      8722      8724      8722      8725      8725      8726      8725      8727
      8725      8728      8728      8729      8728      8730      8728      8731
      8731      8732      8731      8733      8731      8734      8734      8735
      8734      8736      8734      8737      8737      8738      8737      8739
      8737      8740      8740      8741      8740      8742      8740      8743
      8743      8744      8743      8745      8743      8746      8746      8747
      8746      8748      8746      8749      8750      8751      8750      8752
      8750      8753      8750      8754      8758      8756      8756      8754
      8756      8757      8754      8755      8754      8759      8767      8766
      8759      8760      8759      8761      8759      8765      8765      8762
      8762      8766      8762      8763      8762      8764      8767      8768
      8767      8769      8767      8770      8770      8771      8770      8778
      8770      8772      8778      8779      8778      8780      8778      8781
      8772      8773      8773      8775      8773      8774      8775      8776
      8775      8777      8775      8787      8787      8788      8787      8789
      8787      8790      8790      8791      8790      8792      8790      8793
      8793      8794      8793      8795      8793      8796      8796      8797
      8796      8798      8796      8799      8799      8800      8799      8801
      8799      8802      8802      8803      8802      8804      8802      8805
      8805      8806      8805      8807      8807      8808      8807      8809
      8809      8810      8809      8811      8809      8812      8812      8813
      8812      8814      8812      8815      8815      8816      8815      8817
      8815      8818      8818      8819      8818      8820      8818      8821
      8821      8822      8821      8823      8821      8824      8824      8825
      8824      8826      8824      8827      8827      8828      8827      8829
      8827      8830      8830      8831      8830      8832      8830      8833
      8781      8782      8782      8784      8782      8783      8784      8785
      8784      8786      8784      8834      8834      8835      8834      8836
      8834      8837      8837      8838      8837      8839      8837      8840
      8840      8841      8840      8842      8840      8843      8843      8844
      8843      8845      8843      8846      8846      8847      8846      8848
      8846      8849      8849      8850      8849      8851      8849      8852
      8852      8853      8852      8854      8852      8855      8855      8856
      8855      8857      8855      8858      8858      8859      8858      8860
      8858      8861      8861      8862      8861      8863      8861      8864
      8864      8865      8864      8866      8864      8867      8867      8868
      8867      8869      8867      8870      8870      8871      8870      8872
      8870      8873      8873      8874      8873      8875      8873      8876
      8877      8881      8877      8885      8877      8889      8881      8882
      8881      8883      8881      8884      8885      8886      8885      8887
      8885      8888      8889      8890      8889      8891      8889      8892
      8877      8878      8878      8879      8878      8880      8878      8893
      8893      8894      8893      8895      8893      8899      8900      8901
      8899      8896      8896      8900      8896      8897      8896      8898
      8901      8902      8901      8903      8901      8904      8904      8905
      8904      8912      8904      8906      8912      8913      8912      8914
      8912      8915      8906      8907      8907      8909      8907      8908
      8909      8910      8909      8911      8909      8921      8921      8922
      8921      8923      8921      8924      8924      8925      8924      8926
      8924      8927      8927      8928      8927      8929      8927      8930
      8930      8931      8930      8932      8930      8933      8933      8934
      8933      8935      8933      8936      8936      8937      8936      8938
      8936      8939      8939      8940      8939      8941      8941      8942
      8941      8943      8943      8944      8943      8945      8943      8946
      8946      8947      8946      8948      8946      8949      8949      8950
      8949      8951      8949      8952      8952      8953      8952      8954
      8952      8955      8955      8956      8955      8957      8955      8958
      8958      8959      8958      8960      8958      8961      8961      8962
      8961      8963      8961      8964      8964      8965      8964      8966
      8964      8967      8915      8916      8916      8918      8916      8917
      8918      8919      8918      8920      8918      8968      8968      8969
      8968      8970      8968      8971      8971      8972      8971      8973
      8971      8974      8974      8975      8974      8976      8974      8977
      8977      8978      8977      8979      8977      8980      8980      8981
      8980      8982      8980      8983      8983      8984      8983      8985
      8983      8986      8986      8987      8986      8988      8986      8989
      8989      8990      8989      8991      8989      8992      8992      8993
      8992      8994      8992      8995      8995      8996      8995      8997
      8995      8998      8998      8999      8998      9000      8998      9001
      9001      9002      9001      9003      9001      9004      9004      9005
      9004      9006      9004      9007      9007      9008      9007      9009
      9007      9010      9086      9087      9086      9088      9086      9089
      9086      9083      9083      9084      9083      9085      9083      9080
      9080      9081      9080      9082      9080      9077      9077      9078
      9077      9079      9077      9074      9074      9075      9074      9076
      9074      9071      9071      9072      9071      9073      9071      9068
      9068      9069      9068      9070      9068      9065      9065      9066
      9065      9067      9065      9062      9062      9063      9062      9064
      9062      9059      9059      9060      9059      9061      9059      9056
      9056      9057      9056      9058      9056      9053      9053      9054
      9053      9055      9053      9050      9050      9051      9050      9052
      9050      9048      9048      9049      9046      9047      9046      9042
      9042      9043      9042      9044      9044      9045      9042      9040
      9040      9041      9040      9035      9035      9036      9035      9037
      9035      9033      9033      9030      9034      9030      9031      9030
      9032      9030      9034      9027      9027      9028      9027      9029
      9027      9024      9024      9025      9024      9026      9024      9011
      9011      9020      9011      9016      9011      9012      9020      9021
      9020      9022      9020      9023      9016      9017      9016      9018
      9016      9019      9012      9013      9012      9014      9012      9015
      9040      9038      9038      9039      9038      9090      9090      9092
      9092      9093      9092      9094      9092      9095      9095      9096
      9095      9097      9095      9098      9098      9099      9098      9100
      9098      9101      9101      9102      9101      9103      9101      9104
      9104      9105      9104      9106      9104      9107      9107      9108
      9107      9109      9107      9110      9110      9111      9110      9112
      9110      9113      9113      9114      9113      9115      9113      9116
      9116      9117      9116      9118      9116      9119      9119      9120
      9119      9121      9119      9122      9122      9123      9122      9124
      9122      9125      9125      9126      9125      9127      9125      9128
      9128      9129      9128      9130      9128      9131      9131      9132
      9131      9133      9131      9134      9134      9135      9134      9136
      9134      9137      9046      9048      9090      9091      9138      9142
      9138      9146      9138      9150      9142      9143      9142      9144
      9142      9145      9146      9147      9146      9148      9146      9149
      9150      9151      9150      9152      9150      9153      9138      9139
      9139      9140      9139      9141      9139      9154      9154      9155
      9154      9156      9154      9160      9161      9162      9160      9157
      9157      9161      9157      9158      9157      9159      9162      9163
      9162      9164      9162      9165      9165      9166      9165      9173
      9165      9167      9173      9174      9173      9175      9173      9176
      9167      9168      9168      9170      9168      9169      9170      9171
      9170      9172      9170      9182      9182      9183      9182      9184
      9182      9185      9185      9186      9185      9187      9185      9188
      9188      9189      9188      9190      9188      9191      9191      9192
      9191      9193      9191      9194      9194      9195      9194      9196
      9194      9197      9197      9198      9197      9199      9197      9200
      9200      9201      9200      9202      9202      9203      9202      9204
      9204      9205      9204      9206      9204      9207      9207      9208
      9207      9209      9207      9210      9210      9211      9210      9212
      9210      9213      9213      9214      9213      9215      9213      9216
      9216      9217      9216      9218      9216      9219      9219      9220
      9219      9221      9219      9222      9222      9223      9222      9224
      9222      9225      9225      9226      9225      9227      9225      9228
      9176      9177      9177      9179      9177      9178      9179      9180
      9179      9181      9179      9229      9229      9230      9229      9231
      9229      9232      9232      9233      9232      9234      9232      9235
      9235      9236      9235      9237      9235      9238      9238      9239
      9238      9240      9238      9241      9241      9242      9241      9243
      9241      9244      9244      9245      9244      9246      9244      9247
      9247      9248      9247      9249      9247      9250      9250      9251
      9250      9252      9250      9253      9253      9254      9253      9255
      9253      9256      9256      9257      9256      9258      9256      9259
      9259      9260      9259      9261      9259      9262      9262      9263
      9262      9264      9262      9265      9265      9266      9265      9267
      9265      9268      9268      9269      9268      9270      9268      9271
      9347      9348      9347      9349      9347      9350      9347      9344
      9344      9345      9344      9346      9344      9341      9341      9342
      9341      9343      9341      9338      9338      9339      9338      9340
      9338      9335      9335      9336      9335      9337      9335      9332
      9332      9333      9332      9334      9332      9329      9329      9330
      9329      9331      9329      9326      9326      9327      9326      9328
      9326      9323      9323      9324      9323      9325      9323      9320
      9320      9321      9320      9322      9320      9317      9317      9318
      9317      9319      9317      9314      9314      9315      9314      9316
      9314      9311      9311      9312      9311      9313      9311      9309
      9309      9310      9307      9308      9307      9303      9303      9304
      9303      9305      9305      9306      9303      9301      9301      9302
      9301      9296      9296      9297      9296      9298      9296      9294
      9294      9291      9295      9291      9292      9291      9293      9291
      9295      9288      9288      9289      9288      9290      9288      9285
      9285      9286      9285      9287      9285      9272      9272      9281
      9272      9277      9272      9273      9281      9282      9281      9283
      9281      9284      9277      9278      9277      9279      9277      9280
      9273      9274      9273      9275      9273      9276      9301      9299
      9299      9300      9299      9351      9351      9353      9353      9354
      9353      9355      9353      9356      9356      9357      9356      9358
      9356      9359      9359      9360      9359      9361      9359      9362
      9362      9363      9362      9364      9362      9365      9365      9366
      9365      9367      9365      9368      9368      9369      9368      9370
      9368      9371      9371      9372      9371      9373      9371      9374
      9374      9375      9374      9376      9374      9377      9377      9378
      9377      9379      9377      9380      9380      9381      9380      9382
      9380      9383      9383      9384      9383      9385      9383      9386
      9386      9387      9386      9388      9386      9389      9389      9390
      9389      9391      9389      9392      9392      9393      9392      9394
      9392      9395      9395      9396      9395      9397      9395      9398
      9307      9309      9351      9352      9399      9400      9399      9401
      9399      9402      9399      9403      9403      9404      9403      9405
      9403      9406      9406      9407      9406      9408      9406      9413
      9413      9409      9409      9412      9409      9410      9409      9411
      9414      9415      9414      9416      9414      9417      9414      9412
      9417      9418      9417      9425      9417      9419      9425      9426
      9425      9427      9425      9428      9419      9420      9420      9422
      9420      9421      9422      9423      9422      9424      9422      9434
      9434      9435      9434      9436      9434      9437      9437      9438
      9437      9439      9437      9440      9440      9441      9440      9442
      9440      9443      9443      9444      9443      9445      9443      9446
      9446      9447      9446      9448      9446      9449      9449      9450
      9449      9451      9449      9452      9452      9453      9452      9454
      9454      9455      9454      9456      9456      9457      9456      9458
      9456      9459      9459      9460      9459      9461      9459      9462
      9462      9463      9462      9464      9462      9465      9465      9466
      9465      9467      9465      9468      9468      9469      9468      9470
      9468      9471      9471      9472      9471      9473      9471      9474
      9474      9475      9474      9476      9474      9477      9477      9478
      9477      9479      9477      9480      9428      9429      9429      9431
      9429      9430      9431      9432      9431      9433      9431      9481
      9481      9482      9481      9483      9481      9484      9484      9485
      9484      9486      9484      9487      9487      9488      9487      9489
      9487      9490      9490      9491      9490      9492      9490      9493
      9493      9494      9493      9495      9493      9496      9496      9497
      9496      9498      9496      9499      9499      9500      9499      9501
      9499      9502      9502      9503      9502      9504      9502      9505
      9505      9506      9505      9507      9505      9508      9508      9509
      9508      9510      9508      9511      9511      9512      9511      9513
      9511      9514      9514      9515      9514      9516      9514      9517
      9517      9518      9517      9519      9517      9520      9520      9521
      9520      9522      9520      9523      9524      9525      9524      9526
      9524      9527      9524      9528      9532      9530      9530      9528
      9530      9531      9528      9529      9528      9533      9541      9540
      9533      9534      9533      9535      9533      9539      9539      9536
      9536      9540      9536      9537      9536      9538      9541      9542
      9541      9543      9541      9544      9544      9545      9544      9552
      9544      9546      9552      9553      9552      9554      9552      9555
      9546      9547      9547      9549      9547      9548      9549      9550
      9549      9551      9549      9561      9561      9562      9561      9563
      9561      9564      9564      9565      9564      9566      9564      9567
      9567      9568      9567      9569      9567      9570      9570      9571
      9570      9572      9570      9573      9573      9574      9573      9575
      9573      9576      9576      9577      9576      9578      9576      9579
      9579      9580      9579      9581      9581      9582      9581      9583
      9583      9584      9583      9585      9583      9586      9586      9587
      9586      9588      9586      9589      9589      9590      9589      9591
      9589      9592      9592      9593      9592      9594      9592      9595
      9595      9596      9595      9597      9595      9598      9598      9599
      9598      9600      9598      9601      9601      9602      9601      9603
      9601      9604      9604      9605      9604      9606      9604      9607
      9555      9556      9556      9558      9556      9557      9558      9559
      9558      9560      9558      9608      9608      9609      9608      9610
      9608      9611      9611      9612      9611      9613      9611      9614
      9614      9615      9614      9616      9614      9617      9617      9618
      9617      9619      9617      9620      9620      9621      9620      9622
      9620      9623      9623      9624      9623      9625      9623      9626
      9626      9627      9626      9628      9626      9629      9629      9630
      9629      9631      9629      9632      9632      9633      9632      9634
      9632      9635      9635      9636      9635      9637      9635      9638
      9638      9639      9638      9640      9638      9641      9641      9642
      9641      9643      9641      9644      9644      9645      9644      9646
      9644      9647      9647      9648      9647      9649      9647      9650
      9651      9655      9651      9659      9651      9663      9655      9656
      9655      9657      9655      9658      9659      9660      9659      9661
      9659      9662      9663      9664      9663      9665      9663      9666
      9651      9652      9652      9653      9652      9654      9652      9667
      9667      9668      9667      9669      9667      9673      9674      9675
      9673      9670      9670      9674      9670      9671      9670      9672
      9675      9676      9675      9677      9675      9678      9678      9679
      9678      9686      9678      9680      9686      9687      9686      9688
      9686      9689      9680      9681      9681      9683      9681      9682
      9683      9684      9683      9685      9683      9695      9695      9696
      9695      9697      9695      9698      9698      9699      9698      9700
      9698      9701      9701      9702      9701      9703      9701      9704
      9704      9705      9704      9706      9704      9707      9707      9708
      9707      9709      9707      9710      9710      9711      9710      9712
      9710      9713      9713      9714      9713      9715      9715      9716
      9715      9717      9717      9718      9717      9719      9717      9720
      9720      9721      9720      9722      9720      9723      9723      9724
      9723      9725      9723      9726      9726      9727      9726      9728
      9726      9729      9729      9730      9729      9731      9729      9732
      9732      9733      9732      9734      9732      9735      9735      9736
      9735      9737      9735      9738      9738      9739      9738      9740
      9738      9741      9689      9690      9690      9692      9690      9691
      9692      9693      9692      9694      9692      9742      9742      9743
      9742      9744      9742      9745      9745      9746      9745      9747
      9745      9748      9748      9749      9748      9750      9748      9751
      9751      9752      9751      9753      9751      9754      9754      9755
      9754      9756      9754      9757      9757      9758      9757      9759
      9757      9760      9760      9761      9760      9762      9760      9763
      9763      9764      9763      9765      9763      9766      9766      9767
      9766      9768      9766      9769      9769      9770      9769      9771
      9769      9772      9772      9773      9772      9774      9772      9775
      9775      9776      9775      9777      9775      9778      9778      9779
      9778      9780      9778      9781      9781      9782      9781      9783
      9781      9784      9785      9786      9785      9787      9785      9788
      9785      9789      9789      9790      9789      9791      9789      9792
      9792      9793      9792      9794      9792      9799      9799      9795
      9795      9798      9795      9796      9795      9797      9800      9801
      9800      9802      9800      9803      9800      9798      9803      9804
      9803      9811      9803      9805      9811      9812      9811      9813
      9811      9814      9805      9806      9806      9808      9806      9807
      9808      9809      9808      9810      9808      9820      9820      9821
      9820      9822      9820      9823      9823      9824      9823      9825
      9823      9826      9826      9827      9826      9828      9826      9829
      9829      9830      9829      9831      9829      9832      9832      9833
      9832      9834      9832      9835      9835      9836      9835      9837
      9835      9838      9838      9839      9838      9840      9840      9841
      9840      9842      9842      9843      9842      9844      9842      9845
      9845      9846      9845      9847      9845      9848      9848      9849
      9848      9850      9848      9851      9851      9852      9851      9853
      9851      9854      9854      9855      9854      9856      9854      9857
      9857      9858      9857      9859      9857      9860      9860      9861
      9860      9862      9860      9863      9863      9864      9863      9865
      9863      9866      9814      9815      9815      9817      9815      9816
      9817      9818      9817      9819      9817      9867      9867      9868
      9867      9869      9867      9870      9870      9871      9870      9872
      9870      9873      9873      9874      9873      9875      9873      9876
      9876      9877      9876      9878      9876      9879      9879      9880
      9879      9881      9879      9882      9882      9883      9882      9884
      9882      9885      9885      9886      9885      9887      9885      9888
      9888      9889      9888      9890      9888      9891      9891      9892
      9891      9893      9891      9894      9894      9895      9894      9896
      9894      9897      9897      9898      9897      9899      9897      9900
      9900      9901      9900      9902      9900      9903      9903      9904
      9903      9905      9903      9906      9906      9907      9906      9908
      9906      9909      9910      9914      9910      9918      9910      9922
      9914      9915      9914      9916      9914      9917      9918      9919
      9918      9920      9918      9921      9922      9923      9922      9924
      9922      9925      9910      9911      9911      9912      9911      9913
      9911      9926      9926      9927      9926      9928      9926      9932
      9933      9934      9932      9929      9929      9933      9929      9930
      9929      9931      9934      9935      9934      9936      9934      9937
      9937      9938      9937      9945      9937      9939      9945      9946
      9945      9947      9945      9948      9939      9940      9940      9942
      9940      9941      9942      9943      9942      9944      9942      9954
      9954      9955      9954      9956      9954      9957      9957      9958
      9957      9959      9957      9960      9960      9961      9960      9962
      9960      9963      9963      9964      9963      9965      9963      9966
      9966      9967      9966      9968      9966      9969      9969      9970
      9969      9971      9969      9972      9972      9973      9972      9974
      9974      9975      9974      9976      9976      9977      9976      9978
      9976      9979      9979      9980      9979      9981      9979      9982
      9982      9983      9982      9984      9982      9985      9985      9986
      9985      9987      9985      9988      9988      9989      9988      9990
      9988      9991      9991      9992      9991      9993      9991      9994
      9994      9995      9994      9996      9994      9997      9997      9998
      9997      9999      9997     10000      9948      9949      9949      9951
      9949      9950      9951      9952      9951      9953      9951     10001
     10001     10002     10001     10003     10001     10004     10004     10005
     10004     10006     10004     10007     10007     10008     10007     10009
     10007     10010     10010     10011     10010     10012     10010     10013
     10013     10014     10013     10015     10013     10016     10016     10017
     10016     10018     10016     10019     10019     10020     10019     10021
     10019     10022     10022     10023     10022     10024     10022     10025
     10025     10026     10025     10027     10025     10028     10028     10029
     10028     10030     10028     10031     10031     10032     10031     10033
     10031     10034     10034     10035     10034     10036     10034     10037
     10037     10038     10037     10039     10037     10040     10040     10041
     10040     10042     10040     10043     10119     10120     10119     10121
     10119     10122     10119     10116     10116     10117     10116     10118
     10116     10113     10113     10114     10113     10115     10113     10110
     10110     10111     10110     10112     10110     10107     10107     10108
     10107     10109     10107     10104     10104     10105     10104     10106
     10104     10101     10101     10102     10101     10103     10101     10098
     10098     10099     10098     10100     10098     10095     10095     10096
     10095     10097     10095     10092     10092     10093     10092     10094
     10092     10089     10089     10090     10089     10091     10089     10086
     10086     10087     10086     10088     10086     10083     10083     10084
     10083     10085     10083     10081     10081     10082     10079     10080
     10079     10075     10075     10076     10075     10077     10077     10078
     10075     10073     10073     10074     10073     10068     10068     10069
     10068     10070     10068     10066     10066     10063     10067     10063
     10064     10063     10065     10063     10067     10060     10060     10061
     10060     10062     10060     10057     10057     10058     10057     10059
     10057     10044     10044     10053     10044     10049     10044     10045
     10053     10054     10053     10055     10053     10056     10049     10050
     10049     10051     10049     10052     10045     10046     10045     10047
     10045     10048     10073     10071     10071     10072     10071     10123
     10123     10125     10125     10126     10125     10127     10125     10128
     10128     10129     10128     10130     10128     10131     10131     10132
     10131     10133     10131     10134     10134     10135     10134     10136
     10134     10137     10137     10138     10137     10139     10137     10140
     10140     10141     10140     10142     10140     10143     10143     10144
     10143     10145     10143     10146     10146     10147     10146     10148
     10146     10149     10149     10150     10149     10151     10149     10152
     10152     10153     10152     10154     10152     10155     10155     10156
     10155     10157     10155     10158     10158     10159     10158     10160
     10158     10161     10161     10162     10161     10163     10161     10164
     10164     10165     10164     10166     10164     10167     10167     10168
     10167     10169     10167     10170     10079     10081     10123     10124
     10171     10175     10171     10179     10171     10183     10175     10176
     10175     10177     10175     10178     10179     10180     10179     10181
     10179     10182     10183     10184     10183     10185     10183     10186
     10171     10172     10172     10173     10172     10174     10172     10187
     10187     10188     10187     10189     10187     10193     10194     10195
     10193     10190     10190     10194     10190     10191     10190     10192
     10195     10196     10195     10197     10195     10198     10198     10199
     10198     10206     10198     10200     10206     10207     10206     10208
     10206     10209     10200     10201     10201     10203     10201     10202
     10203     10204     10203     10205     10203     10215     10215     10216
     10215     10217     10215     10218     10218     10219     10218     10220
     10218     10221     10221     10222     10221     10223     10221     10224
     10224     10225     10224     10226     10224     10227     10227     10228
     10227     10229     10227     10230     10230     10231     10230     10232
     10230     10233     10233     10234     10233     10235     10235     10236
     10235     10237     10237     10238     10237     10239     10237     10240
     10240     10241     10240     10242     10240     10243     10243     10244
     10243     10245     10243     10246     10246     10247     10246     10248
     10246     10249     10249     10250     10249     10251     10249     10252
     10252     10253     10252     10254     10252     10255     10255     10256
     10255     10257     10255     10258     10258     10259     10258     10260
     10258     10261     10209     10210     10210     10212     10210     10211
     10212     10213     10212     10214     10212     10262     10262     10263
     10262     10264     10262     10265     10265     10266     10265     10267
     10265     10268     10268     10269     10268     10270     10268     10271
     10271     10272     10271     10273     10271     10274     10274     10275
     10274     10276     10274     10277     10277     10278     10277     10279
     10277     10280     10280     10281     10280     10282     10280     10283
     10283     10284     10283     10285     10283     10286     10286     10287
     10286     10288     10286     10289     10289     10290     10289     10291
     10289     10292     10292     10293     10292     10294     10292     10295
     10295     10296     10295     10297     10295     10298     10298     10299
     10298     10300     10298     10301     10301     10302     10301     10303
     10301     10304     10305     10306     10305     10307     10305     10308
     10305     10309     10309     10310     10309     10311     10309     10312
     10312     10313     10312     10314     10312     10319     10319     10315
     10315     10318     10315     10316     10315     10317     10320     10321
     10320     10322     10320     10323     10320     10318     10323     10324
     10323     10331     10323     10325     10331     10332     10331     10333
     10331     10334     10325     10326     10326     10328     10326     10327
     10328     10329     10328     10330     10328     10340     10340     10341
     10340     10342     10340     10343     10343     10344     10343     10345
     10343     10346     10346     10347     10346     10348     10346     10349
     10349     10350     10349     10351     10349     10352     10352     10353
     10352     10354     10352     10355     10355     10356     10355     10357
     10355     10358     10358     10359     10358     10360     10360     10361
     10360     10362     10362     10363     10362     10364     10362     10365
     10365     10366     10365     10367     10365     10368     10368     10369
     10368     10370     10368     10371     10371     10372     10371     10373
     10371     10374     10374     10375     10374     10376     10374     10377
     10377     10378     10377     10379     10377     10380     10380     10381
     10380     10382     10380     10383     10383     10384     10383     10385
     10383     10386     10334     10335     10335     10337     10335     10336
     10337     10338     10337     10339     10337     10387     10387     10388
     10387     10389     10387     10390     10390     10391     10390     10392
     10390     10393     10393     10394     10393     10395     10393     10396
     10396     10397     10396     10398     10396     10399     10399     10400
     10399     10401     10399     10402     10402     10403     10402     10404
     10402     10405     10405     10406     10405     10407     10405     10408
     10408     10409     10408     10410     10408     10411     10411     10412
     10411     10413     10411     10414     10414     10415     10414     10416
     10414     10417     10417     10418     10417     10419     10417     10420
     10420     10421     10420     10422     10420     10423     10423     10424
     10423     10425     10423     10426     10426     10427     10426     10428
     10426     10429     10430     10431     10430     10432     10430     10433
     10430     10434     10434     10435     10434     10436     10434     10437
     10437     10438     10437     10439     10437     10444     10444     10440
     10440     10443     10440     10441     10440     10442     10445     10446
     10445     10447     10445     10448     10445     10443     10448     10449
     10448     10456     10448     10450     10456     10457     10456     10458
     10456     10459     10450     10451     10451     10453     10451     10452
     10453     10454     10453     10455     10453     10465     10465     10466
     10465     10467     10465     10468     10468     10469     10468     10470
     10468     10471     10471     10472     10471     10473     10471     10474
     10474     10475     10474     10476     10474     10477     10477     10478
     10477     10479     10477     10480     10480     10481     10480     10482
     10480     10483     10483     10484     10483     10485     10485     10486
     10485     10487     10487     10488     10487     10489     10487     10490
     10490     10491     10490     10492     10490     10493     10493     10494
     10493     10495     10493     10496     10496     10497     10496     10498
     10496     10499     10499     10500     10499     10501     10499     10502
     10502     10503     10502     10504     10502     10505     10505     10506
     10505     10507     10505     10508     10508     10509     10508     10510
     10508     10511     10459     10460     10460     10462     10460     10461
     10462     10463     10462     10464     10462     10512     10512     10513
     10512     10514     10512     10515     10515     10516     10515     10517
     10515     10518     10518     10519     10518     10520     10518     10521
     10521     10522     10521     10523     10521     10524     10524     10525
     10524     10526     10524     10527     10527     10528     10527     10529
     10527     10530     10530     10531     10530     10532     10530     10533
     10533     10534     10533     10535     10533     10536     10536     10537
     10536     10538     10536     10539     10539     10540     10539     10541
     10539     10542     10542     10543     10542     10544     10542     10545
     10545     10546     10545     10547     10545     10548     10548     10549
     10548     10550     10548     10551     10551     10552     10551     10553
     10551     10554     10555     10556     10555     10557     10555     10558
     10555     10559     10559     10560     10559     10561     10559     10562
     10562     10563     10562     10564     10562     10569     10569     10565
     10565     10568     10565     10566     10565     10567     10570     10571
     10570     10572     10570     10573     10570     10568     10573     10574
     10573     10581     10573     10575     10581     10582     10581     10583
     10581     10584     10575     10576     10576     10578     10576     10577
     10578     10579     10578     10580     10578     10590     10590     10591
     10590     10592     10590     10593     10593     10594     10593     10595
     10593     10596     10596     10597     10596     10598     10596     10599
     10599     10600     10599     10601     10599     10602     10602     10603
     10602     10604     10602     10605     10605     10606     10605     10607
     10605     10608     10608     10609     10608     10610     10610     10611
     10610     10612     10612     10613     10612     10614     10612     10615
     10615     10616     10615     10617     10615     10618     10618     10619
     10618     10620     10618     10621     10621     10622     10621     10623
     10621     10624     10624     10625     10624     10626     10624     10627
     10627     10628     10627     10629     10627     10630     10630     10631
     10630     10632     10630     10633     10633     10634     10633     10635
     10633     10636     10584     10585     10585     10587     10585     10586
     10587     10588     10587     10589     10587     10637     10637     10638
     10637     10639     10637     10640     10640     10641     10640     10642
     10640     10643     10643     10644     10643     10645     10643     10646
     10646     10647     10646     10648     10646     10649     10649     10650
     10649     10651     10649     10652     10652     10653     10652     10654
     10652     10655     10655     10656     10655     10657     10655     10658
     10658     10659     10658     10660     10658     10661     10661     10662
     10661     10663     10661     10664     10664     10665     10664     10666
     10664     10667     10667     10668     10667     10669     10667     10670
     10670     10671     10670     10672     10670     10673     10673     10674
     10673     10675     10673     10676     10676     10677     10676     10678
     10676     10679     10680     10681     10680     10682     10680     10683
     10680     10684     10684     10685     10684     10686     10684     10687
     10687     10688     10687     10689     10687     10694     10694     10690
     10690     10693     10690     10691     10690     10692     10695     10696
     10695     10697     10695     10698     10695     10693     10698     10699
     10698     10706     10698     10700     10706     10707     10706     10708
     10706     10709     10700     10701     10701     10703     10701     10702
     10703     10704     10703     10705     10703     10715     10715     10716
     10715     10717     10715     10718     10718     10719     10718     10720
     10718     10721     10721     10722     10721     10723     10721     10724
     10724     10725     10724     10726     10724     10727     10727     10728
     10727     10729     10727     10730     10730     10731     10730     10732
     10730     10733     10733     10734     10733     10735     10735     10736
     10735     10737     10737     10738     10737     10739     10737     10740
     10740     10741     10740     10742     10740     10743     10743     10744
     10743     10745     10743     10746     10746     10747     10746     10748
     10746     10749     10749     10750     10749     10751     10749     10752
     10752     10753     10752     10754     10752     10755     10755     10756
     10755     10757     10755     10758     10758     10759     10758     10760
     10758     10761     10709     10710     10710     10712     10710     10711
     10712     10713     10712     10714     10712     10762     10762     10763
     10762     10764     10762     10765     10765     10766     10765     10767
     10765     10768     10768     10769     10768     10770     10768     10771
     10771     10772     10771     10773     10771     10774     10774     10775
     10774     10776     10774     10777     10777     10778     10777     10779
     10777     10780     10780     10781     10780     10782     10780     10783
     10783     10784     10783     10785     10783     10786     10786     10787
     10786     10788     10786     10789     10789     10790     10789     10791
     10789     10792     10792     10793     10792     10794     10792     10795
     10795     10796     10795     10797     10795     10798     10798     10799
     10798     10800     10798     10801     10801     10802     10801     10803
     10801     10804     10880     10881     10880     10882     10880     10883
     10880     10877     10877     10878     10877     10879     10877     10874
     10874     10875     10874     10876     10874     10871     10871     10872
     10871     10873     10871     10868     10868     10869     10868     10870
     10868     10865     10865     10866     10865     10867     10865     10862
     10862     10863     10862     10864     10862     10859     10859     10860
     10859     10861     10859     10856     10856     10857     10856     10858
     10856     10853     10853     10854     10853     10855     10853     10850
     10850     10851     10850     10852     10850     10847     10847     10848
     10847     10849     10847     10844     10844     10845     10844     10846
     10844     10842     10842     10843     10840     10841     10840     10836
     10836     10837     10836     10838     10838     10839     10836     10834
     10834     10835     10834     10829     10829     10830     10829     10831
     10829     10827     10827     10824     10828     10824     10825     10824
     10826     10824     10828     10821     10821     10822     10821     10823
     10821     10818     10818     10819     10818     10820     10818     10805
     10805     10814     10805     10810     10805     10806     10814     10815
     10814     10816     10814     10817     10810     10811     10810     10812
     10810     10813     10806     10807     10806     10808     10806     10809
     10834     10832     10832     10833     10832     10884     10884     10886
     10886     10887     10886     10888     10886     10889     10889     10890
     10889     10891     10889     10892     10892     10893     10892     10894
     10892     10895     10895     10896     10895     10897     10895     10898
     10898     10899     10898     10900     10898     10901     10901     10902
     10901     10903     10901     10904     10904     10905     10904     10906
     10904     10907     10907     10908     10907     10909     10907     10910
     10910     10911     10910     10912     10910     10913     10913     10914
     10913     10915     10913     10916     10916     10917     10916     10918
     10916     10919     10919     10920     10919     10921     10919     10922
     10922     10923     10922     10924     10922     10925     10925     10926
     10925     10927     10925     10928     10928     10929     10928     10930
     10928     10931     10840     10842     10884     10885     10932     10936
     10932     10940     10932     10944     10936     10937     10936     10938
     10936     10939     10940     10941     10940     10942     10940     10943
     10944     10945     10944     10946     10944     10947     10932     10933
     10933     10934     10933     10935     10933     10948     10948     10949
     10948     10950     10948     10954     10955     10956     10954     10951
     10951     10955     10951     10952     10951     10953     10956     10957
     10956     10958     10956     10959     10959     10960     10959     10967
     10959     10961     10967     10968     10967     10969     10967     10970
     10961     10962     10962     10964     10962     10963     10964     10965
     10964     10966     10964     10976     10976     10977     10976     10978
     10976     10979     10979     10980     10979     10981     10979     10982
     10982     10983     10982     10984     10982     10985     10985     10986
     10985     10987     10985     10988     10988     10989     10988     10990
     10988     10991     10991     10992     10991     10993     10991     10994
     10994     10995     10994     10996     10996     10997     10996     10998
     10998     10999     10998     11000     10998     11001     11001     11002
     11001     11003     11001     11004     11004     11005     11004     11006
     11004     11007     11007     11008     11007     11009     11007     11010
     11010     11011     11010     11012     11010     11013     11013     11014
     11013     11015     11013     11016     11016     11017     11016     11018
     11016     11019     11019     11020     11019     11021     11019     11022
     10970     10971     10971     10973     10971     10972     10973     10974
     10973     10975     10973     11023     11023     11024     11023     11025
     11023     11026     11026     11027     11026     11028     11026     11029
     11029     11030     11029     11031     11029     11032     11032     11033
     11032     11034     11032     11035     11035     11036     11035     11037
     11035     11038     11038     11039     11038     11040     11038     11041
     11041     11042     11041     11043     11041     11044     11044     11045
     11044     11046     11044     11047     11047     11048     11047     11049
     11047     11050     11050     11051     11050     11052     11050     11053
     11053     11054     11053     11055     11053     11056     11056     11057
     11056     11058     11056     11059     11059     11060     11059     11061
     11059     11062     11062     11063     11062     11064     11062     11065
     11066     11067     11066     11068     11066     11069     11066     11070
     11070     11071     11070     11072     11070     11073     11073     11074
     11073     11075     11073     11080     11080     11076     11076     11079
     11076     11077     11076     11078     11081     11082     11081     11083
     11081     11084     11081     11079     11084     11085     11084     11092
     11084     11086     11092     11093     11092     11094     11092     11095
     11086     11087     11087     11089     11087     11088     11089     11090
     11089     11091     11089     11101     11101     11102     11101     11103
     11101     11104     11104     11105     11104     11106     11104     11107
     11107     11108     11107     11109     11107     11110     11110     11111
     11110     11112     11110     11113     11113     11114     11113     11115
     11113     11116     11116     11117     11116     11118     11116     11119
     11119     11120     11119     11121     11121     11122     11121     11123
     11123     11124     11123     11125     11123     11126     11126     11127
     11126     11128     11126     11129     11129     11130     11129     11131
     11129     11132     11132     11133     11132     11134     11132     11135
     11135     11136     11135     11137     11135     11138     11138     11139
     11138     11140     11138     11141     11141     11142     11141     11143
     11141     11144     11144     11145     11144     11146     11144     11147
     11095     11096     11096     11098     11096     11097     11098     11099
     11098     11100     11098     11148     11148     11149     11148     11150
     11148     11151     11151     11152     11151     11153     11151     11154
     11154     11155     11154     11156     11154     11157     11157     11158
     11157     11159     11157     11160     11160     11161     11160     11162
     11160     11163     11163     11164     11163     11165     11163     11166
     11166     11167     11166     11168     11166     11169     11169     11170
     11169     11171     11169     11172     11172     11173     11172     11174
     11172     11175     11175     11176     11175     11177     11175     11178
     11178     11179     11178     11180     11178     11181     11181     11182
     11181     11183     11181     11184     11184     11185     11184     11186
     11184     11187     11187     11188     11187     11189     11187     11190
     11191     11195     11191     11199     11191     11203     11195     11196
     11195     11197     11195     11198     11199     11200     11199     11201
     11199     11202     11203     11204     11203     11205     11203     11206
     11191     11192     11192     11193     11192     11194     11192     11207
     11207     11208     11207     11209     11207     11213     11214     11215
     11213     11210     11210     11214     11210     11211     11210     11212
     11215     11216     11215     11217     11215     11218     11218     11219
     11218     11226     11218     11220     11226     11227     11226     11228
     11226     11229     11220     11221     11221     11223     11221     11222
     11223     11224     11223     11225     11223     11235     11235     11236
     11235     11237     11235     11238     11238     11239     11238     11240
     11238     11241     11241     11242     11241     11243     11241     11244
     11244     11245     11244     11246     11244     11247     11247     11248
     11247     11249     11247     11250     11250     11251     11250     11252
     11250     11253     11253     11254     11253     11255     11255     11256
     11255     11257     11257     11258     11257     11259     11257     11260
     11260     11261     11260     11262     11260     11263     11263     11264
     11263     11265     11263     11266     11266     11267     11266     11268
     11266     11269     11269     11270     11269     11271     11269     11272
     11272     11273     11272     11274     11272     11275     11275     11276
     11275     11277     11275     11278     11278     11279     11278     11280
     11278     11281     11229     11230     11230     11232     11230     11231
     11232     11233     11232     11234     11232     11282     11282     11283
     11282     11284     11282     11285     11285     11286     11285     11287
     11285     11288     11288     11289     11288     11290     11288     11291
     11291     11292     11291     11293     11291     11294     11294     11295
     11294     11296     11294     11297     11297     11298     11297     11299
     11297     11300     11300     11301     11300     11302     11300     11303
     11303     11304     11303     11305     11303     11306     11306     11307
     11306     11308     11306     11309     11309     11310     11309     11311
     11309     11312     11312     11313     11312     11314     11312     11315
     11315     11316     11315     11317     11315     11318     11318     11319
     11318     11320     11318     11321     11321     11322     11321     11323
     11321     11324     11325     11326     11325     11327     11325     11328
     11325     11329     11329     11330     11329     11331     11329     11332
     11332     11333     11332     11334     11332     11339     11339     11335
     11335     11338     11335     11336     11335     11337     11340     11341
     11340     11342     11340     11343     11340     11338     11343     11344
     11343     11351     11343     11345     11351     11352     11351     11353
     11351     11354     11345     11346     11346     11348     11346     11347
     11348     11349     11348     11350     11348     11360     11360     11361
     11360     11362     11360     11363     11363     11364     11363     11365
     11363     11366     11366     11367     11366     11368     11366     11369
     11369     11370     11369     11371     11369     11372     11372     11373
     11372     11374     11372     11375     11375     11376     11375     11377
     11375     11378     11378     11379     11378     11380     11380     11381
     11380     11382     11382     11383     11382     11384     11382     11385
     11385     11386     11385     11387     11385     11388     11388     11389
     11388     11390     11388     11391     11391     11392     11391     11393
     11391     11394     11394     11395     11394     11396     11394     11397
     11397     11398     11397     11399     11397     11400     11400     11401
     11400     11402     11400     11403     11403     11404     11403     11405
     11403     11406     11354     11355     11355     11357     11355     11356
     11357     11358     11357     11359     11357     11407     11407     11408
     11407     11409     11407     11410     11410     11411     11410     11412
     11410     11413     11413     11414     11413     11415     11413     11416
     11416     11417     11416     11418     11416     11419     11419     11420
     11419     11421     11419     11422     11422     11423     11422     11424
     11422     11425     11425     11426     11425     11427     11425     11428
     11428     11429     11428     11430     11428     11431     11431     11432
     11431     11433     11431     11434     11434     11435     11434     11436
     11434     11437     11437     11438     11437     11439     11437     11440
     11440     11441     11440     11442     11440     11443     11443     11444
     11443     11445     11443     11446     11446     11447     11446     11448
     11446     11449     11450     11451     11450     11452     11450     11453
     11450     11454     11454     11455     11454     11456     11454     11457
     11457     11458     11457     11459     11457     11464     11464     11460
     11460     11463     11460     11461     11460     11462     11465     11466
     11465     11467     11465     11468     11465     11463     11468     11469
     11468     11476     11468     11470     11476     11477     11476     11478
     11476     11479     11470     11471     11471     11473     11471     11472
     11473     11474     11473     11475     11473     11485     11485     11486
     11485     11487     11485     11488     11488     11489     11488     11490
     11488     11491     11491     11492     11491     11493     11491     11494
     11494     11495     11494     11496     11494     11497     11497     11498
     11497     11499     11497     11500     11500     11501     11500     11502
     11500     11503     11503     11504     11503     11505     11505     11506
     11505     11507     11507     11508     11507     11509     11507     11510
     11510     11511     11510     11512     11510     11513     11513     11514
     11513     11515     11513     11516     11516     11517     11516     11518
     11516     11519     11519     11520     11519     11521     11519     11522
     11522     11523     11522     11524     11522     11525     11525     11526
     11525     11527     11525     11528     11528     11529     11528     11530
     11528     11531     11479     11480     11480     11482     11480     11481
     11482     11483     11482     11484     11482     11532     11532     11533
     11532     11534     11532     11535     11535     11536     11535     11537
     11535     11538     11538     11539     11538     11540     11538     11541
     11541     11542     11541     11543     11541     11544     11544     11545
     11544     11546     11544     11547     11547     11548     11547     11549
     11547     11550     11550     11551     11550     11552     11550     11553
     11553     11554     11553     11555     11553     11556     11556     11557
     11556     11558     11556     11559     11559     11560     11559     11561
     11559     11562     11562     11563     11562     11564     11562     11565
     11565     11566     11565     11567     11565     11568     11568     11569
     11568     11570     11568     11571     11571     11572     11571     11573
     11571     11574     11650     11651     11650     11652     11650     11653
     11650     11647     11647     11648     11647     11649     11647     11644
     11644     11645     11644     11646     11644     11641     11641     11642
     11641     11643     11641     11638     11638     11639     11638     11640
     11638     11635     11635     11636     11635     11637     11635     11632
     11632     11633     11632     11634     11632     11629     11629     11630
     11629     11631     11629     11626     11626     11627     11626     11628
     11626     11623     11623     11624     11623     11625     11623     11620
     11620     11621     11620     11622     11620     11617     11617     11618
     11617     11619     11617     11614     11614     11615     11614     11616
     11614     11612     11612     11613     11610     11611     11610     11606
     11606     11607     11606     11608     11608     11609     11606     11604
     11604     11605     11604     11599     11599     11600     11599     11601
     11599     11597     11597     11594     11598     11594     11595     11594
     11596     11594     11598     11591     11591     11592     11591     11593
     11591     11588     11588     11589     11588     11590     11588     11575
     11575     11584     11575     11580     11575     11576     11584     11585
     11584     11586     11584     11587     11580     11581     11580     11582
     11580     11583     11576     11577     11576     11578     11576     11579
     11604     11602     11602     11603     11602     11654     11654     11656
     11656     11657     11656     11658     11656     11659     11659     11660
     11659     11661     11659     11662     11662     11663     11662     11664
     11662     11665     11665     11666     11665     11667     11665     11668
     11668     11669     11668     11670     11668     11671     11671     11672
     11671     11673     11671     11674     11674     11675     11674     11676
     11674     11677     11677     11678     11677     11679     11677     11680
     11680     11681     11680     11682     11680     11683     11683     11684
     11683     11685     11683     11686     11686     11687     11686     11688
     11686     11689     11689     11690     11689     11691     11689     11692
     11692     11693     11692     11694     11692     11695     11695     11696
     11695     11697     11695     11698     11698     11699     11698     11700
     11698     11701     11610     11612     11654     11655     11702     11706
     11702     11710     11702     11714     11706     11707     11706     11708
     11706     11709     11710     11711     11710     11712     11710     11713
     11714     11715     11714     11716     11714     11717     11702     11703
     11703     11704     11703     11705     11703     11718     11718     11719
     11718     11720     11718     11724     11725     11726     11724     11721
     11721     11725     11721     11722     11721     11723     11726     11727
     11726     11728     11726     11729     11729     11730     11729     11737
     11729     11731     11737     11738     11737     11739     11737     11740
     11731     11732     11732     11734     11732     11733     11734     11735
     11734     11736     11734     11746     11746     11747     11746     11748
     11746     11749     11749     11750     11749     11751     11749     11752
     11752     11753     11752     11754     11752     11755     11755     11756
     11755     11757     11755     11758     11758     11759     11758     11760
     11758     11761     11761     11762     11761     11763     11761     11764
     11764     11765     11764     11766     11766     11767     11766     11768
     11768     11769     11768     11770     11768     11771     11771     11772
     11771     11773     11771     11774     11774     11775     11774     11776
     11774     11777     11777     11778     11777     11779     11777     11780
     11780     11781     11780     11782     11780     11783     11783     11784
     11783     11785     11783     11786     11786     11787     11786     11788
     11786     11789     11789     11790     11789     11791     11789     11792
     11740     11741     11741     11743     11741     11742     11743     11744
     11743     11745     11743     11793     11793     11794     11793     11795
     11793     11796     11796     11797     11796     11798     11796     11799
     11799     11800     11799     11801     11799     11802     11802     11803
     11802     11804     11802     11805     11805     11806     11805     11807
     11805     11808     11808     11809     11808     11810     11808     11811
     11811     11812     11811     11813     11811     11814     11814     11815
     11814     11816     11814     11817     11817     11818     11817     11819
     11817     11820     11820     11821     11820     11822     11820     11823
     11823     11824     11823     11825     11823     11826     11826     11827
     11826     11828     11826     11829     11829     11830     11829     11831
     11829     11832     11832     11833     11832     11834     11832     11835
     11836     11837     11836     11838     11836     11839     11836     11840
     11840     11841     11840     11842     11840     11843     11843     11844
     11843     11845     11843     11850     11850     11846     11846     11849
     11846     11847     11846     11848     11851     11852     11851     11853
     11851     11854     11851     11849     11854     11855     11854     11862
     11854     11856     11862     11863     11862     11864     11862     11865
     11856     11857     11857     11859     11857     11858     11859     11860
     11859     11861     11859     11871     11871     11872     11871     11873
     11871     11874     11874     11875     11874     11876     11874     11877
     11877     11878     11877     11879     11877     11880     11880     11881
     11880     11882     11880     11883     11883     11884     11883     11885
     11883     11886     11886     11887     11886     11888     11886     11889
     11889     11890     11889     11891     11891     11892     11891     11893
     11893     11894     11893     11895     11893     11896     11896     11897
     11896     11898     11896     11899     11899     11900     11899     11901
     11899     11902     11902     11903     11902     11904     11902     11905
     11905     11906     11905     11907     11905     11908     11908     11909
     11908     11910     11908     11911     11911     11912     11911     11913
     11911     11914     11914     11915     11914     11916     11914     11917
     11865     11866     11866     11868     11866     11867     11868     11869
     11868     11870     11868     11918     11918     11919     11918     11920
     11918     11921     11921     11922     11921     11923     11921     11924
     11924     11925     11924     11926     11924     11927     11927     11928
     11927     11929     11927     11930     11930     11931     11930     11932
     11930     11933     11933     11934     11933     11935     11933     11936
     11936     11937     11936     11938     11936     11939     11939     11940
     11939     11941     11939     11942     11942     11943     11942     11944
     11942     11945     11945     11946     11945     11947     11945     11948
     11948     11949     11948     11950     11948     11951     11951     11952
     11951     11953     11951     11954     11954     11955     11954     11956
     11954     11957     11957     11958     11957     11959     11957     11960
     11961     11965     11961     11969     11961     11973     11965     11966
     11965     11967     11965     11968     11969     11970     11969     11971
     11969     11972     11973     11974     11973     11975     11973     11976
     11961     11962     11962     11963     11962     11964     11962     11977
     11977     11978     11977     11979     11977     11983     11984     11985
     11983     11980     11980     11984     11980     11981     11980     11982
     11985     11986     11985     11987     11985     11988     11988     11989
     11988     11996     11988     11990     11996     11997     11996     11998
     11996     11999     11990     11991     11991     11993     11991     11992
     11993     11994     11993     11995     11993     12005     12005     12006
     12005     12007     12005     12008     12008     12009     12008     12010
     12008     12011     12011     12012     12011     12013     12011     12014
     12014     12015     12014     12016     12014     12017     12017     12018
     12017     12019     12017     12020     12020     12021     12020     12022
     12020     12023     12023     12024     12023     12025     12025     12026
     12025     12027     12027     12028     12027     12029     12027     12030
     12030     12031     12030     12032     12030     12033     12033     12034
     12033     12035     12033     12036     12036     12037     12036     12038
     12036     12039     12039     12040     12039     12041     12039     12042
     12042     12043     12042     12044     12042     12045     12045     12046
     12045     12047     12045     12048     12048     12049     12048     12050
     12048     12051     11999     12000     12000     12002     12000     12001
     12002     12003     12002     12004     12002     12052     12052     12053
     12052     12054     12052     12055     12055     12056     12055     12057
     12055     12058     12058     12059     12058     12060     12058     12061
     12061     12062     12061     12063     12061     12064     12064     12065
     12064     12066     12064     12067     12067     12068     12067     12069
     12067     12070     12070     12071     12070     12072     12070     12073
     12073     12074     12073     12075     12073     12076     12076     12077
     12076     12078     12076     12079     12079     12080     12079     12081
     12079     12082     12082     12083     12082     12084     12082     12085
     12085     12086     12085     12087     12085     12088     12088     12089
     12088     12090     12088     12091     12091     12092     12091     12093
     12091     12094     12170     12171     12170     12172     12170     12173
     12170     12167     12167     12168     12167     12169     12167     12164
     12164     12165     12164     12166     12164     12161     12161     12162
     12161     12163     12161     12158     12158     12159     12158     12160
     12158     12155     12155     12156     12155     12157     12155     12152
     12152     12153     12152     12154     12152     12149     12149     12150
     12149     12151     12149     12146     12146     12147     12146     12148
     12146     12143     12143     12144     12143     12145     12143     12140
     12140     12141     12140     12142     12140     12137     12137     12138
     12137     12139     12137     12134     12134     12135     12134     12136
     12134     12132     12132     12133     12130     12131     12130     12126
     12126     12127     12126     12128     12128     12129     12126     12124
     12124     12125     12124     12119     12119     12120     12119     12121
     12119     12117     12117     12114     12118     12114     12115     12114
     12116     12114     12118     12111     12111     12112     12111     12113
     12111     12108     12108     12109     12108     12110     12108     12095
     12095     12104     12095     12100     12095     12096     12104     12105
     12104     12106     12104     12107     12100     12101     12100     12102
     12100     12103     12096     12097     12096     12098     12096     12099
     12124     12122     12122     12123     12122     12174     12174     12176
     12176     12177     12176     12178     12176     12179     12179     12180
     12179     12181     12179     12182     12182     12183     12182     12184
     12182     12185     12185     12186     12185     12187     12185     12188
     12188     12189     12188     12190     12188     12191     12191     12192
     12191     12193     12191     12194     12194     12195     12194     12196
     12194     12197     12197     12198     12197     12199     12197     12200
     12200     12201     12200     12202     12200     12203     12203     12204
     12203     12205     12203     12206     12206     12207     12206     12208
     12206     12209     12209     12210     12209     12211     12209     12212
     12212     12213     12212     12214     12212     12215     12215     12216
     12215     12217     12215     12218     12218     12219     12218     12220
     12218     12221     12130     12132     12174     12175     12222     12226
     12222     12230     12222     12234     12226     12227     12226     12228
     12226     12229     12230     12231     12230     12232     12230     12233
     12234     12235     12234     12236     12234     12237     12222     12223
     12223     12224     12223     12225     12223     12238     12238     12239
     12238     12240     12238     12244     12245     12246     12244     12241
     12241     12245     12241     12242     12241     12243     12246     12247
     12246     12248     12246     12249     12249     12250     12249     12257
     12249     12251     12257     12258     12257     12259     12257     12260
     12251     12252     12252     12254     12252     12253     12254     12255
     12254     12256     12254     12266     12266     12267     12266     12268
     12266     12269     12269     12270     12269     12271     12269     12272
     12272     12273     12272     12274     12272     12275     12275     12276
     12275     12277     12275     12278     12278     12279     12278     12280
     12278     12281     12281     12282     12281     12283     12281     12284
     12284     12285     12284     12286     12286     12287     12286     12288
     12288     12289     12288     12290     12288     12291     12291     12292
     12291     12293     12291     12294     12294     12295     12294     12296
     12294     12297     12297     12298     12297     12299     12297     12300
     12300     12301     12300     12302     12300     12303     12303     12304
     12303     12305     12303     12306     12306     12307     12306     12308
     12306     12309     12309     12310     12309     12311     12309     12312
     12260     12261     12261     12263     12261     12262     12263     12264
     12263     12265     12263     12313     12313     12314     12313     12315
     12313     12316     12316     12317     12316     12318     12316     12319
     12319     12320     12319     12321     12319     12322     12322     12323
     12322     12324     12322     12325     12325     12326     12325     12327
     12325     12328     12328     12329     12328     12330     12328     12331
     12331     12332     12331     12333     12331     12334     12334     12335
     12334     12336     12334     12337     12337     12338     12337     12339
     12337     12340     12340     12341     12340     12342     12340     12343
     12343     12344     12343     12345     12343     12346     12346     12347
     12346     12348     12346     12349     12349     12350     12349     12351
     12349     12352     12352     12353     12352     12354     12352     12355
     12356     12357     12356     12358     12356     12359     12356     12360
     12364     12362     12362     12360     12362     12363     12360     12361
     12360     12365     12373     12372     12365     12366     12365     12367
     12365     12371     12371     12368     12368     12372     12368     12369
     12368     12370     12373     12374     12373     12375     12373     12376
     12376     12377     12376     12384     12376     12378     12384     12385
     12384     12386     12384     12387     12378     12379     12379     12381
     12379     12380     12381     12382     12381     12383     12381     12393
     12393     12394     12393     12395     12393     12396     12396     12397
     12396     12398     12396     12399     12399     12400     12399     12401
     12399     12402     12402     12403     12402     12404     12402     12405
     12405     12406     12405     12407     12405     12408     12408     12409
     12408     12410     12408     12411     12411     12412     12411     12413
     12413     12414     12413     12415     12415     12416     12415     12417
     12415     12418     12418     12419     12418     12420     12418     12421
     12421     12422     12421     12423     12421     12424     12424     12425
     12424     12426     12424     12427     12427     12428     12427     12429
     12427     12430     12430     12431     12430     12432     12430     12433
     12433     12434     12433     12435     12433     12436     12436     12437
     12436     12438     12436     12439     12387     12388     12388     12390
     12388     12389     12390     12391     12390     12392     12390     12440
     12440     12441     12440     12442     12440     12443     12443     12444
     12443     12445     12443     12446     12446     12447     12446     12448
     12446     12449     12449     12450     12449     12451     12449     12452
     12452     12453     12452     12454     12452     12455     12455     12456
     12455     12457     12455     12458     12458     12459     12458     12460
     12458     12461     12461     12462     12461     12463     12461     12464
     12464     12465     12464     12466     12464     12467     12467     12468
     12467     12469     12467     12470     12470     12471     12470     12472
     12470     12473     12473     12474     12473     12475     12473     12476
     12476     12477     12476     12478     12476     12479     12479     12480
     12479     12481     12479     12482     12483     12484     12483     12485
     12484     12485     12486     12487     12486     12488     12487     12488
     12489     12490     12489     12491     12490     12491     12492     12493
     12492     12494     12493     12494     12495     12496     12495     12497
     12496     12497     12498     12499     12498     12500     12499     12500
     12501     12502     12501     12503     12502     12503     12504     12505
     12504     12506     12505     12506     12507     12508     12507     12509
     12508     12509     12510     12511     12510     12512     12511     12512
     12513     12514     12513     12515     12514     12515     12516     12517
     12516     12518     12517     12518     12519     12520     12519     12521
     12520     12521     12522     12523     12522     12524     12523     12524
     12525     12526     12525     12527     12526     12527     12528     12529
     12528     12530     12529     12530     12531     12532     12531     12533
     12532     12533     12534     12535     12534     12536     12535     12536
     12537     12538     12537     12539     12538     12539     12540     12541
     12540     12542     12541     12542     12543     12544     12543     12545
     12544     12545     12546     12547     12546     12548     12547     12548
     12549     12550     12549     12551     12550     12551     12552     12553
     12552     12554     12553     12554     12555     12556     12555     12557
     12556     12557     12558     12559     12558     12560     12559     12560
     12561     12562     12561     12563     12562     12563     12564     12565
     12564     12566     12565     12566     12567     12568     12567     12569
     12568     12569     12570     12571     12570     12572     12571     12572
     12573     12574     12573     12575     12574     12575     12576     12577
     12576     12578     12577     12578     12579     12580     12579     12581
     12580     12581     12582     12583     12582     12584     12583     12584
     12585     12586     12585     12587     12586     12587     12588     12589
     12588     12590     12589     12590     12591     12592     12591     12593
     12592     12593     12594     12595     12594     12596     12595     12596
     12597     12598     12597     12599     12598     12599     12600     12601
     12600     12602     12601     12602     12603     12604     12603     12605
     12604     12605     12606     12607     12606     12608     12607     12608
     12609     12610     12609     12611     12610     12611     12612     12613
     12612     12614     12613     12614     12615     12616     12615     12617
     12616     12617     12618     12619     12618     12620     12619     12620
     12621     12622     12621     12623     12622     12623     12624     12625
     12624     12626     12625     12626     12627     12628     12627     12629
     12628     12629     12630     12631     12630     12632     12631     12632
     12633     12634     12633     12635     12634     12635     12636     12637
     12636     12638     12637     12638     12639     12640     12639     12641
     12640     12641     12642     12643     12642     12644     12643     12644
     12645     12646     12645     12647     12646     12647     12648     12649
     12648     12650     12649     12650     12651     12652     12651     12653
     12652     12653     12654     12655     12654     12656     12655     12656
     12657     12658     12657     12659     12658     12659     12660     12661
     12660     12662     12661     12662     12663     12664     12663     12665
     12664     12665     12666     12667     12666     12668     12667     12668
     12669     12670     12669     12671     12670     12671     12672     12673
     12672     12674     12673     12674     12675     12676     12675     12677
     12676     12677     12678     12679     12678     12680     12679     12680
     12681     12682     12681     12683     12682     12683     12684     12685
     12684     12686     12685     12686     12687     12688     12687     12689
     12688     12689     12690     12691     12690     12692     12691     12692
     12693     12694     12693     12695     12694     12695     12696     12697
     12696     12698     12697     12698     12699     12700     12699     12701
     12700     12701     12702     12703     12702     12704     12703     12704
     12705     12706     12705     12707     12706     12707     12708     12709
     12708     12710     12709     12710     12711     12712     12711     12713
     12712     12713     12714     12715     12714     12716     12715     12716
     12717     12718     12717     12719     12718     12719     12720     12721
     12720     12722     12721     12722     12723     12724     12723     12725
     12724     12725     12726     12727     12726     12728     12727     12728
     12729     12730     12729     12731     12730     12731     12732     12733
     12732     12734     12733     12734     12735     12736     12735     12737
     12736     12737     12738     12739     12738     12740     12739     12740
     12741     12742     12741     12743     12742     12743     12744     12745
     12744     12746     12745     12746     12747     12748     12747     12749
     12748     12749     12750     12751     12750     12752     12751     12752
     12753     12754     12753     12755     12754     12755     12756     12757
     12756     12758     12757     12758     12759     12760     12759     12761
     12760     12761     12762     12763     12762     12764     12763     12764
     12765     12766     12765     12767     12766     12767     12768     12769
     12768     12770     12769     12770     12771     12772     12771     12773
     12772     12773     12774     12775     12774     12776     12775     12776
     12777     12778     12777     12779     12778     12779     12780     12781
     12780     12782     12781     12782     12783     12784     12783     12785
     12784     12785     12786     12787     12786     12788     12787     12788
     12789     12790     12789     12791     12790     12791     12792     12793
     12792     12794     12793     12794     12795     12796     12795     12797
     12796     12797     12798     12799     12798     12800     12799     12800
     12801     12802     12801     12803     12802     12803     12804     12805
     12804     12806     12805     12806     12807     12808     12807     12809
     12808     12809     12810     12811     12810     12812     12811     12812
     12813     12814     12813     12815     12814     12815     12816     12817
     12816     12818     12817     12818     12819     12820     12819     12821
     12820     12821     12822     12823     12822     12824     12823     12824
     12825     12826     12825     12827     12826     12827     12828     12829
     12828     12830     12829     12830     12831     12832     12831     12833
     12832     12833     12834     12835     12834     12836     12835     12836
     12837     12838     12837     12839     12838     12839     12840     12841
     12840     12842     12841     12842     12843     12844     12843     12845
     12844     12845     12846     12847     12846     12848     12847     12848
     12849     12850     12849     12851     12850     12851     12852     12853
     12852     12854     12853     12854     12855     12856     12855     12857
     12856     12857     12858     12859     12858     12860     12859     12860
     12861     12862     12861     12863     12862     12863     12864     12865
     12864     12866     12865     12866     12867     12868     12867     12869
     12868     12869     12870     12871     12870     12872     12871     12872
     12873     12874     12873     12875     12874     12875     12876     12877
     12876     12878     12877     12878     12879     12880     12879     12881
     12880     12881     12882     12883     12882     12884     12883     12884
     12885     12886     12885     12887     12886     12887     12888     12889
     12888     12890     12889     12890     12891     12892     12891     12893
     12892     12893     12894     12895     12894     12896     12895     12896
     12897     12898     12897     12899     12898     12899     12900     12901
     12900     12902     12901     12902     12903     12904     12903     12905
     12904     12905     12906     12907     12906     12908     12907     12908
     12909     12910     12909     12911     12910     12911     12912     12913
     12912     12914     12913     12914     12915     12916     12915     12917
     12916     12917     12918     12919     12918     12920     12919     12920
     12921     12922     12921     12923     12922     12923     12924     12925
     12924     12926     12925     12926     12927     12928     12927     12929
     12928     12929     12930     12931     12930     12932     12931     12932
     12933     12934     12933     12935     12934     12935     12936     12937
     12936     12938     12937     12938     12939     12940     12939     12941
     12940     12941     12942     12943     12942     12944     12943     12944
     12945     12946     12945     12947     12946     12947     12948     12949
     12948     12950     12949     12950     12951     12952     12951     12953
     12952     12953     12954     12955     12954     12956     12955     12956
     12957     12958     12957     12959     12958     12959     12960     12961
     12960     12962     12961     12962     12963     12964     12963     12965
     12964     12965     12966     12967     12966     12968     12967     12968
     12969     12970     12969     12971     12970     12971     12972     12973
     12972     12974     12973     12974     12975     12976     12975     12977
     12976     12977     12978     12979     12978     12980     12979     12980
     12981     12982     12981     12983     12982     12983     12984     12985
     12984     12986     12985     12986     12987     12988     12987     12989
     12988     12989     12990     12991     12990     12992     12991     12992
     12993     12994     12993     12995     12994     12995     12996     12997
     12996     12998     12997     12998     12999     13000     12999     13001
     13000     13001     13002     13003     13002     13004     13003     13004
     13005     13006     13005     13007     13006     13007     13008     13009
     13008     13010     13009     13010     13011     13012     13011     13013
     13012     13013     13014     13015     13014     13016     13015     13016
     13017     13018     13017     13019     13018     13019     13020     13021
     13020     13022     13021     13022     13023     13024     13023     13025
     13024     13025     13026     13027     13026     13028     13027     13028
     13029     13030     13029     13031     13030     13031     13032     13033
     13032     13034     13033     13034     13035     13036     13035     13037
     13036     13037     13038     13039     13038     13040     13039     13040
     13041     13042     13041     13043     13042     13043     13044     13045
     13044     13046     13045     13046     13047     13048     13047     13049
     13048     13049     13050     13051     13050     13052     13051     13052
     13053     13054     13053     13055     13054     13055     13056     13057
     13056     13058     13057     13058     13059     13060     13059     13061
     13060     13061     13062     13063     13062     13064     13063     13064
     13065     13066     13065     13067     13066     13067     13068     13069
     13068     13070     13069     13070     13071     13072     13071     13073
     13072     13073     13074     13075     13074     13076     13075     13076
     13077     13078     13077     13079     13078     13079     13080     13081
     13080     13082     13081     13082     13083     13084     13083     13085
     13084     13085     13086     13087     13086     13088     13087     13088
     13089     13090     13089     13091     13090     13091     13092     13093
     13092     13094     13093     13094     13095     13096     13095     13097
     13096     13097     13098     13099     13098     13100     13099     13100
     13101     13102     13101     13103     13102     13103     13104     13105
     13104     13106     13105     13106     13107     13108     13107     13109
     13108     13109     13110     13111     13110     13112     13111     13112
     13113     13114     13113     13115     13114     13115     13116     13117
     13116     13118     13117     13118     13119     13120     13119     13121
     13120     13121     13122     13123     13122     13124     13123     13124
     13125     13126     13125     13127     13126     13127     13128     13129
     13128     13130     13129     13130     13131     13132     13131     13133
     13132     13133     13134     13135     13134     13136     13135     13136
     13137     13138     13137     13139     13138     13139     13140     13141
     13140     13142     13141     13142     13143     13144     13143     13145
     13144     13145     13146     13147     13146     13148     13147     13148
     13149     13150     13149     13151     13150     13151     13152     13153
     13152     13154     13153     13154     13155     13156     13155     13157
     13156     13157     13158     13159     13158     13160     13159     13160
     13161     13162     13161     13163     13162     13163     13164     13165
     13164     13166     13165     13166     13167     13168     13167     13169
     13168     13169     13170     13171     13170     13172     13171     13172
     13173     13174     13173     13175     13174     13175     13176     13177
     13176     13178     13177     13178     13179     13180     13179     13181
     13180     13181     13182     13183     13182     13184     13183     13184
     13185     13186     13185     13187     13186     13187     13188     13189
     13188     13190     13189     13190     13191     13192     13191     13193
     13192     13193     13194     13195     13194     13196     13195     13196
     13197     13198     13197     13199     13198     13199     13200     13201
     13200     13202     13201     13202     13203     13204     13203     13205
     13204     13205     13206     13207     13206     13208     13207     13208
     13209     13210     13209     13211     13210     13211     13212     13213
     13212     13214     13213     13214     13215     13216     13215     13217
     13216     13217     13218     13219     13218     13220     13219     13220
     13221     13222     13221     13223     13222     13223     13224     13225
     13224     13226     13225     13226     13227     13228     13227     13229
     13228     13229     13230     13231     13230     13232     13231     13232
     13233     13234     13233     13235     13234     13235     13236     13237
     13236     13238     13237     13238     13239     13240     13239     13241
     13240     13241     13242     13243     13242     13244     13243     13244
     13245     13246     13245     13247     13246     13247     13248     13249
     13248     13250     13249     13250     13251     13252     13251     13253
     13252     13253     13254     13255     13254     13256     13255     13256
     13257     13258     13257     13259     13258     13259     13260     13261
     13260     13262     13261     13262     13263     13264     13263     13265
     13264     13265     13266     13267     13266     13268     13267     13268
     13269     13270     13269     13271     13270     13271     13272     13273
     13272     13274     13273     13274     13275     13276     13275     13277
     13276     13277     13278     13279     13278     13280     13279     13280
     13281     13282     13281     13283     13282     13283     13284     13285
     13284     13286     13285     13286     13287     13288     13287     13289
     13288     13289     13290     13291     13290     13292     13291     13292
     13293     13294     13293     13295     13294     13295     13296     13297
     13296     13298     13297     13298     13299     13300     13299     13301
     13300     13301     13302     13303     13302     13304     13303     13304
     13305     13306     13305     13307     13306     13307     13308     13309
     13308     13310     13309     13310     13311     13312     13311     13313
     13312     13313     13314     13315     13314     13316     13315     13316
     13317     13318     13317     13319     13318     13319     13320     13321
     13320     13322     13321     13322     13323     13324     13323     13325
     13324     13325     13326     13327     13326     13328     13327     13328
     13329     13330     13329     13331     13330     13331     13332     13333
     13332     13334     13333     13334     13335     13336     13335     13337
     13336     13337     13338     13339     13338     13340     13339     13340
     13341     13342     13341     13343     13342     13343     13344     13345
     13344     13346     13345     13346     13347     13348     13347     13349
     13348     13349     13350     13351     13350     13352     13351     13352
     13353     13354     13353     13355     13354     13355     13356     13357
     13356     13358     13357     13358     13359     13360     13359     13361
     13360     13361     13362     13363     13362     13364     13363     13364
     13365     13366     13365     13367     13366     13367     13368     13369
     13368     13370     13369     13370     13371     13372     13371     13373
     13372     13373     13374     13375     13374     13376     13375     13376
     13377     13378     13377     13379     13378     13379     13380     13381
     13380     13382     13381     13382     13383     13384     13383     13385
     13384     13385     13386     13387     13386     13388     13387     13388
     13389     13390     13389     13391     13390     13391     13392     13393
     13392     13394     13393     13394     13395     13396     13395     13397
     13396     13397     13398     13399     13398     13400     13399     13400
     13401     13402     13401     13403     13402     13403     13404     13405
     13404     13406     13405     13406     13407     13408     13407     13409
     13408     13409     13410     13411     13410     13412     13411     13412
     13413     13414     13413     13415     13414     13415     13416     13417
     13416     13418     13417     13418     13419     13420     13419     13421
     13420     13421     13422     13423     13422     13424     13423     13424
     13425     13426     13425     13427     13426     13427     13428     13429
     13428     13430     13429     13430     13431     13432     13431     13433
     13432     13433     13434     13435     13434     13436     13435     13436
     13437     13438     13437     13439     13438     13439     13440     13441
     13440     13442     13441     13442     13443     13444     13443     13445
     13444     13445     13446     13447     13446     13448     13447     13448
     13449     13450     13449     13451     13450     13451     13452     13453
     13452     13454     13453     13454     13455     13456     13455     13457
     13456     13457     13458     13459     13458     13460     13459     13460
     13461     13462     13461     13463     13462     13463     13464     13465
     13464     13466     13465     13466     13467     13468     13467     13469
     13468     13469     13470     13471     13470     13472     13471     13472
     13473     13474     13473     13475     13474     13475     13476     13477
     13476     13478     13477     13478     13479     13480     13479     13481
     13480     13481     13482     13483     13482     13484     13483     13484
     13485     13486     13485     13487     13486     13487     13488     13489
     13488     13490     13489     13490     13491     13492     13491     13493
     13492     13493     13494     13495     13494     13496     13495     13496
     13497     13498     13497     13499     13498     13499     13500     13501
     13500     13502     13501     13502     13503     13504     13503     13505
     13504     13505     13506     13507     13506     13508     13507     13508
     13509     13510     13509     13511     13510     13511     13512     13513
     13512     13514     13513     13514     13515     13516     13515     13517
     13516     13517     13518     13519     13518     13520     13519     13520
     13521     13522     13521     13523     13522     13523     13524     13525
     13524     13526     13525     13526     13527     13528     13527     13529
     13528     13529     13530     13531     13530     13532     13531     13532
     13533     13534     13533     13535     13534     13535     13536     13537
     13536     13538     13537     13538     13539     13540     13539     13541
     13540     13541     13542     13543     13542     13544     13543     13544
     13545     13546     13545     13547     13546     13547     13548     13549
     13548     13550     13549     13550     13551     13552     13551     13553
     13552     13553     13554     13555     13554     13556     13555     13556
     13557     13558     13557     13559     13558     13559     13560     13561
     13560     13562     13561     13562     13563     13564     13563     13565
     13564     13565     13566     13567     13566     13568     13567     13568
     13569     13570     13569     13571     13570     13571     13572     13573
     13572     13574     13573     13574     13575     13576     13575     13577
     13576     13577     13578     13579     13578     13580     13579     13580
     13581     13582     13581     13583     13582     13583     13584     13585
     13584     13586     13585     13586     13587     13588     13587     13589
     13588     13589     13590     13591     13590     13592     13591     13592
     13593     13594     13593     13595     13594     13595     13596     13597
     13596     13598     13597     13598     13599     13600     13599     13601
     13600     13601     13602     13603     13602     13604     13603     13604
     13605     13606     13605     13607     13606     13607     13608     13609
     13608     13610     13609     13610     13611     13612     13611     13613
     13612     13613     13614     13615     13614     13616     13615     13616
     13617     13618     13617     13619     13618     13619     13620     13621
     13620     13622     13621     13622     13623     13624     13623     13625
     13624     13625     13626     13627     13626     13628     13627     13628
     13629     13630     13629     13631     13630     13631     13632     13633
     13632     13634     13633     13634     13635     13636     13635     13637
     13636     13637     13638     13639     13638     13640     13639     13640
     13641     13642     13641     13643     13642     13643     13644     13645
     13644     13646     13645     13646     13647     13648     13647     13649
     13648     13649     13650     13651     13650     13652     13651     13652
     13653     13654     13653     13655     13654     13655     13656     13657
     13656     13658     13657     13658     13659     13660     13659     13661
     13660     13661     13662     13663     13662     13664     13663     13664
     13665     13666     13665     13667     13666     13667     13668     13669
     13668     13670     13669     13670     13671     13672     13671     13673
     13672     13673     13674     13675     13674     13676     13675     13676
     13677     13678     13677     13679     13678     13679     13680     13681
     13680     13682     13681     13682     13683     13684     13683     13685
     13684     13685     13686     13687     13686     13688     13687     13688
     13689     13690     13689     13691     13690     13691     13692     13693
     13692     13694     13693     13694     13695     13696     13695     13697
     13696     13697     13698     13699     13698     13700     13699     13700
     13701     13702     13701     13703     13702     13703     13704     13705
     13704     13706     13705     13706     13707     13708     13707     13709
     13708     13709     13710     13711     13710     13712     13711     13712
     13713     13714     13713     13715     13714     13715     13716     13717
     13716     13718     13717     13718     13719     13720     13719     13721
     13720     13721     13722     13723     13722     13724     13723     13724
     13725     13726     13725     13727     13726     13727     13728     13729
     13728     13730     13729     13730     13731     13732     13731     13733
     13732     13733     13734     13735     13734     13736     13735     13736
     13737     13738     13737     13739     13738     13739     13740     13741
     13740     13742     13741     13742     13743     13744     13743     13745
     13744     13745     13746     13747     13746     13748     13747     13748
     13749     13750     13749     13751     13750     13751     13752     13753
     13752     13754     13753     13754     13755     13756     13755     13757
     13756     13757     13758     13759     13758     13760     13759     13760
     13761     13762     13761     13763     13762     13763     13764     13765
     13764     13766     13765     13766     13767     13768     13767     13769
     13768     13769     13770     13771     13770     13772     13771     13772
     13773     13774     13773     13775     13774     13775     13776     13777
     13776     13778     13777     13778     13779     13780     13779     13781
     13780     13781     13782     13783     13782     13784     13783     13784
     13785     13786     13785     13787     13786     13787     13788     13789
     13788     13790     13789     13790     13791     13792     13791     13793
     13792     13793     13794     13795     13794     13796     13795     13796
     13797     13798     13797     13799     13798     13799     13800     13801
     13800     13802     13801     13802     13803     13804     13803     13805
     13804     13805     13806     13807     13806     13808     13807     13808
     13809     13810     13809     13811     13810     13811     13812     13813
     13812     13814     13813     13814     13815     13816     13815     13817
     13816     13817     13818     13819     13818     13820     13819     13820
     13821     13822     13821     13823     13822     13823     13824     13825
     13824     13826     13825     13826     13827     13828     13827     13829
     13828     13829     13830     13831     13830     13832     13831     13832
     13833     13834     13833     13835     13834     13835     13836     13837
     13836     13838     13837     13838     13839     13840     13839     13841
     13840     13841     13842     13843     13842     13844     13843     13844
     13845     13846     13845     13847     13846     13847     13848     13849
     13848     13850     13849     13850     13851     13852     13851     13853
     13852     13853     13854     13855     13854     13856     13855     13856
     13857     13858     13857     13859     13858     13859     13860     13861
     13860     13862     13861     13862     13863     13864     13863     13865
     13864     13865     13866     13867     13866     13868     13867     13868
     13869     13870     13869     13871     13870     13871     13872     13873
     13872     13874     13873     13874     13875     13876     13875     13877
     13876     13877     13878     13879     13878     13880     13879     13880
     13881     13882     13881     13883     13882     13883     13884     13885
     13884     13886     13885     13886     13887     13888     13887     13889
     13888     13889     13890     13891     13890     13892     13891     13892
     13893     13894     13893     13895     13894     13895     13896     13897
     13896     13898     13897     13898     13899     13900     13899     13901
     13900     13901     13902     13903     13902     13904     13903     13904
     13905     13906     13905     13907     13906     13907     13908     13909
     13908     13910     13909     13910     13911     13912     13911     13913
     13912     13913     13914     13915     13914     13916     13915     13916
     13917     13918     13917     13919     13918     13919     13920     13921
     13920     13922     13921     13922     13923     13924     13923     13925
     13924     13925     13926     13927     13926     13928     13927     13928
     13929     13930     13929     13931     13930     13931     13932     13933
     13932     13934     13933     13934     13935     13936     13935     13937
     13936     13937     13938     13939     13938     13940     13939     13940
     13941     13942     13941     13943     13942     13943     13944     13945
     13944     13946     13945     13946     13947     13948     13947     13949
     13948     13949     13950     13951     13950     13952     13951     13952
     13953     13954     13953     13955     13954     13955     13956     13957
     13956     13958     13957     13958     13959     13960     13959     13961
     13960     13961     13962     13963     13962     13964     13963     13964
     13965     13966     13965     13967     13966     13967     13968     13969
     13968     13970     13969     13970     13971     13972     13971     13973
     13972     13973     13974     13975     13974     13976     13975     13976
     13977     13978     13977     13979     13978     13979     13980     13981
     13980     13982     13981     13982     13983     13984     13983     13985
     13984     13985     13986     13987     13986     13988     13987     13988
     13989     13990     13989     13991     13990     13991     13992     13993
     13992     13994     13993     13994     13995     13996     13995     13997
     13996     13997     13998     13999     13998     14000     13999     14000
     14001     14002     14001     14003     14002     14003     14004     14005
     14004     14006     14005     14006     14007     14008     14007     14009
     14008     14009     14010     14011     14010     14012     14011     14012
     14013     14014     14013     14015     14014     14015     14016     14017
     14016     14018     14017     14018     14019     14020     14019     14021
     14020     14021     14022     14023     14022     14024     14023     14024
     14025     14026     14025     14027     14026     14027     14028     14029
     14028     14030     14029     14030     14031     14032     14031     14033
     14032     14033     14034     14035     14034     14036     14035     14036
     14037     14038     14037     14039     14038     14039     14040     14041
     14040     14042     14041     14042     14043     14044     14043     14045
     14044     14045     14046     14047     14046     14048     14047     14048
     14049     14050     14049     14051     14050     14051     14052     14053
     14052     14054     14053     14054     14055     14056     14055     14057
     14056     14057     14058     14059     14058     14060     14059     14060
     14061     14062     14061     14063     14062     14063     14064     14065
     14064     14066     14065     14066     14067     14068     14067     14069
     14068     14069     14070     14071     14070     14072     14071     14072
     14073     14074     14073     14075     14074     14075     14076     14077
     14076     14078     14077     14078     14079     14080     14079     14081
     14080     14081     14082     14083     14082     14084     14083     14084
     14085     14086     14085     14087     14086     14087     14088     14089
     14088     14090     14089     14090     14091     14092     14091     14093
     14092     14093     14094     14095     14094     14096     14095     14096
     14097     14098     14097     14099     14098     14099     14100     14101
     14100     14102     14101     14102     14103     14104     14103     14105
     14104     14105     14106     14107     14106     14108     14107     14108
     14109     14110     14109     14111     14110     14111     14112     14113
     14112     14114     14113     14114     14115     14116     14115     14117
     14116     14117     14118     14119     14118     14120     14119     14120
     14121     14122     14121     14123     14122     14123     14124     14125
     14124     14126     14125     14126     14127     14128     14127     14129
     14128     14129     14130     14131     14130     14132     14131     14132
     14133     14134     14133     14135     14134     14135     14136     14137
     14136     14138     14137     14138     14139     14140     14139     14141
     14140     14141     14142     14143     14142     14144     14143     14144
     14145     14146     14145     14147     14146     14147     14148     14149
     14148     14150     14149     14150     14151     14152     14151     14153
     14152     14153     14154     14155     14154     14156     14155     14156
     14157     14158     14157     14159     14158     14159     14160     14161
     14160     14162     14161     14162     14163     14164     14163     14165
     14164     14165     14166     14167     14166     14168     14167     14168
     14169     14170     14169     14171     14170     14171     14172     14173
     14172     14174     14173     14174     14175     14176     14175     14177
     14176     14177     14178     14179     14178     14180     14179     14180
     14181     14182     14181     14183     14182     14183     14184     14185
     14184     14186     14185     14186     14187     14188     14187     14189
     14188     14189     14190     14191     14190     14192     14191     14192
     14193     14194     14193     14195     14194     14195     14196     14197
     14196     14198     14197     14198     14199     14200     14199     14201
     14200     14201     14202     14203     14202     14204     14203     14204
     14205     14206     14205     14207     14206     14207     14208     14209
     14208     14210     14209     14210     14211     14212     14211     14213
     14212     14213     14214     14215     14214     14216     14215     14216
     14217     14218     14217     14219     14218     14219     14220     14221
     14220     14222     14221     14222     14223     14224     14223     14225
     14224     14225     14226     14227     14226     14228     14227     14228
     14229     14230     14229     14231     14230     14231     14232     14233
     14232     14234     14233     14234     14235     14236     14235     14237
     14236     14237     14238     14239     14238     14240     14239     14240
     14241     14242     14241     14243     14242     14243     14244     14245
     14244     14246     14245     14246     14247     14248     14247     14249
     14248     14249     14250     14251     14250     14252     14251     14252
     14253     14254     14253     14255     14254     14255     14256     14257
     14256     14258     14257     14258     14259     14260     14259     14261
     14260     14261     14262     14263     14262     14264     14263     14264
     14265     14266     14265     14267     14266     14267     14268     14269
     14268     14270     14269     14270     14271     14272     14271     14273
     14272     14273     14274     14275     14274     14276     14275     14276
     14277     14278     14277     14279     14278     14279     14280     14281
     14280     14282     14281     14282     14283     14284     14283     14285
     14284     14285     14286     14287     14286     14288     14287     14288
     14289     14290     14289     14291     14290     14291     14292     14293
     14292     14294     14293     14294     14295     14296     14295     14297
     14296     14297     14298     14299     14298     14300     14299     14300
     14301     14302     14301     14303     14302     14303     14304     14305
     14304     14306     14305     14306     14307     14308     14307     14309
     14308     14309     14310     14311     14310     14312     14311     14312
     14313     14314     14313     14315     14314     14315     14316     14317
     14316     14318     14317     14318     14319     14320     14319     14321
     14320     14321     14322     14323     14322     14324     14323     14324
     14325     14326     14325     14327     14326     14327     14328     14329
     14328     14330     14329     14330     14331     14332     14331     14333
     14332     14333     14334     14335     14334     14336     14335     14336
     14337     14338     14337     14339     14338     14339     14340     14341
     14340     14342     14341     14342     14343     14344     14343     14345
     14344     14345     14346     14347     14346     14348     14347     14348
     14349     14350     14349     14351     14350     14351     14352     14353
     14352     14354     14353     14354     14355     14356     14355     14357
     14356     14357     14358     14359     14358     14360     14359     14360
     14361     14362     14361     14363     14362     14363     14364     14365
     14364     14366     14365     14366     14367     14368     14367     14369
     14368     14369     14370     14371     14370     14372     14371     14372
     14373     14374     14373     14375     14374     14375     14376     14377
     14376     14378     14377     14378     14379     14380     14379     14381
     14380     14381     14382     14383     14382     14384     14383     14384
     14385     14386     14385     14387     14386     14387     14388     14389
     14388     14390     14389     14390     14391     14392     14391     14393
     14392     14393     14394     14395     14394     14396     14395     14396
     14397     14398     14397     14399     14398     14399     14400     14401
     14400     14402     14401     14402     14403     14404     14403     14405
     14404     14405     14406     14407     14406     14408     14407     14408
     14409     14410     14409     14411     14410     14411     14412     14413
     14412     14414     14413     14414     14415     14416     14415     14417
     14416     14417     14418     14419     14418     14420     14419     14420
     14421     14422     14421     14423     14422     14423     14424     14425
     14424     14426     14425     14426     14427     14428     14427     14429
     14428     14429     14430     14431     14430     14432     14431     14432
     14433     14434     14433     14435     14434     14435     14436     14437
     14436     14438     14437     14438     14439     14440     14439     14441
     14440     14441     14442     14443     14442     14444     14443     14444
     14445     14446     14445     14447     14446     14447     14448     14449
     14448     14450     14449     14450     14451     14452     14451     14453
     14452     14453     14454     14455     14454     14456     14455     14456
     14457     14458     14457     14459     14458     14459     14460     14461
     14460     14462     14461     14462     14463     14464     14463     14465
     14464     14465     14466     14467     14466     14468     14467     14468
     14469     14470     14469     14471     14470     14471     14472     14473
     14472     14474     14473     14474     14475     14476     14475     14477
     14476     14477     14478     14479     14478     14480     14479     14480
     14481     14482     14481     14483     14482     14483     14484     14485
     14484     14486     14485     14486     14487     14488     14487     14489
     14488     14489     14490     14491     14490     14492     14491     14492
     14493     14494     14493     14495     14494     14495     14496     14497
     14496     14498     14497     14498     14499     14500     14499     14501
     14500     14501     14502     14503     14502     14504     14503     14504
     14505     14506     14505     14507     14506     14507     14508     14509
     14508     14510     14509     14510     14511     14512     14511     14513
     14512     14513     14514     14515     14514     14516     14515     14516
     14517     14518     14517     14519     14518     14519     14520     14521
     14520     14522     14521     14522     14523     14524     14523     14525
     14524     14525     14526     14527     14526     14528     14527     14528
     14529     14530     14529     14531     14530     14531     14532     14533
     14532     14534     14533     14534     14535     14536     14535     14537
     14536     14537     14538     14539     14538     14540     14539     14540
     14541     14542     14541     14543     14542     14543     14544     14545
     14544     14546     14545     14546     14547     14548     14547     14549
     14548     14549     14550     14551     14550     14552     14551     14552
     14553     14554     14553     14555     14554     14555     14556     14557
     14556     14558     14557     14558     14559     14560     14559     14561
     14560     14561     14562     14563     14562     14564     14563     14564
     14565     14566     14565     14567     14566     14567     14568     14569
     14568     14570     14569     14570     14571     14572     14571     14573
     14572     14573     14574     14575     14574     14576     14575     14576
     14577     14578     14577     14579     14578     14579     14580     14581
     14580     14582     14581     14582     14583     14584     14583     14585
     14584     14585     14586     14587     14586     14588     14587     14588
     14589     14590     14589     14591     14590     14591     14592     14593
     14592     14594     14593     14594     14595     14596     14595     14597
     14596     14597     14598     14599     14598     14600     14599     14600
     14601     14602     14601     14603     14602     14603     14604     14605
     14604     14606     14605     14606     14607     14608     14607     14609
     14608     14609     14610     14611     14610     14612     14611     14612
     14613     14614     14613     14615     14614     14615     14616     14617
     14616     14618     14617     14618     14619     14620     14619     14621
     14620     14621     14622     14623     14622     14624     14623     14624
     14625     14626     14625     14627     14626     14627     14628     14629
     14628     14630     14629     14630     14631     14632     14631     14633
     14632     14633     14634     14635     14634     14636     14635     14636
     14637     14638     14637     14639     14638     14639     14640     14641
     14640     14642     14641     14642     14643     14644     14643     14645
     14644     14645     14646     14647     14646     14648     14647     14648
     14649     14650     14649     14651     14650     14651     14652     14653
     14652     14654     14653     14654     14655     14656     14655     14657
     14656     14657     14658     14659     14658     14660     14659     14660
     14661     14662     14661     14663     14662     14663     14664     14665
     14664     14666     14665     14666     14667     14668     14667     14669
     14668     14669     14670     14671     14670     14672     14671     14672
     14673     14674     14673     14675     14674     14675     14676     14677
     14676     14678     14677     14678     14679     14680     14679     14681
     14680     14681     14682     14683     14682     14684     14683     14684
     14685     14686     14685     14687     14686     14687     14688     14689
     14688     14690     14689     14690     14691     14692     14691     14693
     14692     14693     14694     14695     14694     14696     14695     14696
     14697     14698     14697     14699     14698     14699     14700     14701
     14700     14702     14701     14702     14703     14704     14703     14705
     14704     14705     14706     14707     14706     14708     14707     14708
     14709     14710     14709     14711     14710     14711     14712     14713
     14712     14714     14713     14714     14715     14716     14715     14717
     14716     14717     14718     14719     14718     14720     14719     14720
     14721     14722     14721     14723     14722     14723     14724     14725
     14724     14726     14725     14726     14727     14728     14727     14729
     14728     14729     14730     14731     14730     14732     14731     14732
     14733     14734     14733     14735     14734     14735     14736     14737
     14736     14738     14737     14738     14739     14740     14739     14741
     14740     14741     14742     14743     14742     14744     14743     14744
     14745     14746     14745     14747     14746     14747     14748     14749
     14748     14750     14749     14750     14751     14752     14751     14753
     14752     14753     14754     14755     14754     14756     14755     14756
     14757     14758     14757     14759     14758     14759     14760     14761
     14760     14762     14761     14762     14763     14764     14763     14765
     14764     14765     14766     14767     14766     14768     14767     14768
     14769     14770     14769     14771     14770     14771     14772     14773
     14772     14774     14773     14774     14775     14776     14775     14777
     14776     14777     14778     14779     14778     14780     14779     14780
     14781     14782     14781     14783     14782     14783     14784     14785
     14784     14786     14785     14786     14787     14788     14787     14789
     14788     14789     14790     14791     14790     14792     14791     14792
     14793     14794     14793     14795     14794     14795     14796     14797
     14796     14798     14797     14798     14799     14800     14799     14801
     14800     14801     14802     14803     14802     14804     14803     14804
     14805     14806     14805     14807     14806     14807     14808     14809
     14808     14810     14809     14810     14811     14812     14811     14813
     14812     14813     14814     14815     14814     14816     14815     14816
     14817     14818     14817     14819     14818     14819     14820     14821
     14820     14822     14821     14822     14823     14824     14823     14825
     14824     14825     14826     14827     14826     14828     14827     14828
     14829     14830     14829     14831     14830     14831     14832     14833
     14832     14834     14833     14834     14835     14836     14835     14837
     14836     14837     14838     14839     14838     14840     14839     14840
     14841     14842     14841     14843     14842     14843     14844     14845
     14844     14846     14845     14846     14847     14848     14847     14849
     14848     14849     14850     14851     14850     14852     14851     14852
     14853     14854     14853     14855     14854     14855     14856     14857
     14856     14858     14857     14858     14859     14860     14859     14861
     14860     14861     14862     14863     14862     14864     14863     14864
     14865     14866     14865     14867     14866     14867     14868     14869
     14868     14870     14869     14870     14871     14872     14871     14873
     14872     14873     14874     14875     14874     14876     14875     14876
     14877     14878     14877     14879     14878     14879     14880     14881
     14880     14882     14881     14882     14883     14884     14883     14885
     14884     14885     14886     14887     14886     14888     14887     14888
     14889     14890     14889     14891     14890     14891     14892     14893
     14892     14894     14893     14894     14895     14896     14895     14897
     14896     14897     14898     14899     14898     14900     14899     14900
     14901     14902     14901     14903     14902     14903     14904     14905
     14904     14906     14905     14906     14907     14908     14907     14909
     14908     14909     14910     14911     14910     14912     14911     14912
     14913     14914     14913     14915     14914     14915     14916     14917
     14916     14918     14917     14918     14919     14920     14919     14921
     14920     14921     14922     14923     14922     14924     14923     14924
     14925     14926     14925     14927     14926     14927     14928     14929
     14928     14930     14929     14930     14931     14932     14931     14933
     14932     14933     14934     14935     14934     14936     14935     14936
     14937     14938     14937     14939     14938     14939     14940     14941
     14940     14942     14941     14942     14943     14944     14943     14945
     14944     14945     14946     14947     14946     14948     14947     14948
     14949     14950     14949     14951     14950     14951     14952     14953
     14952     14954     14953     14954     14955     14956     14955     14957
     14956     14957     14958     14959     14958     14960     14959     14960
     14961     14962     14961     14963     14962     14963     14964     14965
     14964     14966     14965     14966     14967     14968     14967     14969
     14968     14969     14970     14971     14970     14972     14971     14972
     14973     14974     14973     14975     14974     14975     14976     14977
     14976     14978     14977     14978     14979     14980     14979     14981
     14980     14981     14982     14983     14982     14984     14983     14984
     14985     14986     14985     14987     14986     14987     14988     14989
     14988     14990     14989     14990     14991     14992     14991     14993
     14992     14993     14994     14995     14994     14996     14995     14996
     14997     14998     14997     14999     14998     14999     15000     15001
     15000     15002     15001     15002     15003     15004     15003     15005
     15004     15005     15006     15007     15006     15008     15007     15008
     15009     15010     15009     15011     15010     15011     15012     15013
     15012     15014     15013     15014     15015     15016     15015     15017
     15016     15017     15018     15019     15018     15020     15019     15020
     15021     15022     15021     15023     15022     15023     15024     15025
     15024     15026     15025     15026     15027     15028     15027     15029
     15028     15029     15030     15031     15030     15032     15031     15032
     15033     15034     15033     15035     15034     15035     15036     15037
     15036     15038     15037     15038     15039     15040     15039     15041
     15040     15041     15042     15043     15042     15044     15043     15044
     15045     15046     15045     15047     15046     15047     15048     15049
     15048     15050     15049     15050     15051     15052     15051     15053
     15052     15053     15054     15055     15054     15056     15055     15056
     15057     15058     15057     15059     15058     15059     15060     15061
     15060     15062     15061     15062     15063     15064     15063     15065
     15064     15065     15066     15067     15066     15068     15067     15068
     15069     15070     15069     15071     15070     15071     15072     15073
     15072     15074     15073     15074     15075     15076     15075     15077
     15076     15077     15078     15079     15078     15080     15079     15080
     15081     15082     15081     15083     15082     15083     15084     15085
     15084     15086     15085     15086     15087     15088     15087     15089
     15088     15089     15090     15091     15090     15092     15091     15092
     15093     15094     15093     15095     15094     15095     15096     15097
     15096     15098     15097     15098     15099     15100     15099     15101
     15100     15101     15102     15103     15102     15104     15103     15104
     15105     15106     15105     15107     15106     15107     15108     15109
     15108     15110     15109     15110     15111     15112     15111     15113
     15112     15113     15114     15115     15114     15116     15115     15116
     15117     15118     15117     15119     15118     15119     15120     15121
     15120     15122     15121     15122     15123     15124     15123     15125
     15124     15125     15126     15127     15126     15128     15127     15128
     15129     15130     15129     15131     15130     15131     15132     15133
     15132     15134     15133     15134     15135     15136     15135     15137
     15136     15137     15138     15139     15138     15140     15139     15140
     15141     15142     15141     15143     15142     15143     15144     15145
     15144     15146     15145     15146     15147     15148     15147     15149
     15148     15149     15150     15151     15150     15152     15151     15152
     15153     15154     15153     15155     15154     15155     15156     15157
     15156     15158     15157     15158     15159     15160     15159     15161
     15160     15161     15162     15163     15162     15164     15163     15164
     15165     15166     15165     15167     15166     15167     15168     15169
     15168     15170     15169     15170     15171     15172     15171     15173
     15172     15173     15174     15175     15174     15176     15175     15176
     15177     15178     15177     15179     15178     15179     15180     15181
     15180     15182     15181     15182     15183     15184     15183     15185
     15184     15185     15186     15187     15186     15188     15187     15188
     15189     15190     15189     15191     15190     15191     15192     15193
     15192     15194     15193     15194     15195     15196     15195     15197
     15196     15197     15198     15199     15198     15200     15199     15200
     15201     15202     15201     15203     15202     15203     15204     15205
     15204     15206     15205     15206     15207     15208     15207     15209
     15208     15209     15210     15211     15210     15212     15211     15212
     15213     15214     15213     15215     15214     15215     15216     15217
     15216     15218     15217     15218     15219     15220     15219     15221
     15220     15221     15222     15223     15222     15224     15223     15224
     15225     15226     15225     15227     15226     15227     15228     15229
     15228     15230     15229     15230     15231     15232     15231     15233
     15232     15233     15234     15235     15234     15236     15235     15236
     15237     15238     15237     15239     15238     15239     15240     15241
     15240     15242     15241     15242     15243     15244     15243     15245
     15244     15245     15246     15247     15246     15248     15247     15248
     15249     15250     15249     15251     15250     15251     15252     15253
     15252     15254     15253     15254     15255     15256     15255     15257
     15256     15257     15258     15259     15258     15260     15259     15260
     15261     15262     15261     15263     15262     15263     15264     15265
     15264     15266     15265     15266     15267     15268     15267     15269
     15268     15269     15270     15271     15270     15272     15271     15272
     15273     15274     15273     15275     15274     15275     15276     15277
     15276     15278     15277     15278     15279     15280     15279     15281
     15280     15281     15282     15283     15282     15284     15283     15284
     15285     15286     15285     15287     15286     15287     15288     15289
     15288     15290     15289     15290     15291     15292     15291     15293
     15292     15293     15294     15295     15294     15296     15295     15296
     15297     15298     15297     15299     15298     15299     15300     15301
     15300     15302     15301     15302     15303     15304     15303     15305
     15304     15305     15306     15307     15306     15308     15307     15308
     15309     15310     15309     15311     15310     15311     15312     15313
     15312     15314     15313     15314     15315     15316     15315     15317
     15316     15317     15318     15319     15318     15320     15319     15320
     15321     15322     15321     15323     15322     15323     15324     15325
     15324     15326     15325     15326     15327     15328     15327     15329
     15328     15329     15330     15331     15330     15332     15331     15332
     15333     15334     15333     15335     15334     15335     15336     15337
     15336     15338     15337     15338     15339     15340     15339     15341
     15340     15341     15342     15343     15342     15344     15343     15344
     15345     15346     15345     15347     15346     15347     15348     15349
     15348     15350     15349     15350     15351     15352     15351     15353
     15352     15353     15354     15355     15354     15356     15355     15356
     15357     15358     15357     15359     15358     15359     15360     15361
     15360     15362     15361     15362     15363     15364     15363     15365
     15364     15365     15366     15367     15366     15368     15367     15368
     15369     15370     15369     15371     15370     15371     15372     15373
     15372     15374     15373     15374     15375     15376     15375     15377
     15376     15377     15378     15379     15378     15380     15379     15380
     15381     15382     15381     15383     15382     15383     15384     15385
     15384     15386     15385     15386     15387     15388     15387     15389
     15388     15389     15390     15391     15390     15392     15391     15392
     15393     15394     15393     15395     15394     15395     15396     15397
     15396     15398     15397     15398     15399     15400     15399     15401
     15400     15401     15402     15403     15402     15404     15403     15404
     15405     15406     15405     15407     15406     15407     15408     15409
     15408     15410     15409     15410     15411     15412     15411     15413
     15412     15413     15414     15415     15414     15416     15415     15416
     15417     15418     15417     15419     15418     15419     15420     15421
     15420     15422     15421     15422     15423     15424     15423     15425
     15424     15425     15426     15427     15426     15428     15427     15428
     15429     15430     15429     15431     15430     15431     15432     15433
     15432     15434     15433     15434     15435     15436     15435     15437
     15436     15437     15438     15439     15438     15440     15439     15440
     15441     15442     15441     15443     15442     15443     15444     15445
     15444     15446     15445     15446     15447     15448     15447     15449
     15448     15449     15450     15451     15450     15452     15451     15452
     15453     15454     15453     15455     15454     15455     15456     15457
     15456     15458     15457     15458     15459     15460     15459     15461
     15460     15461     15462     15463     15462     15464     15463     15464
     15465     15466     15465     15467     15466     15467     15468     15469
     15468     15470     15469     15470     15471     15472     15471     15473
     15472     15473     15474     15475     15474     15476     15475     15476
     15477     15478     15477     15479     15478     15479     15480     15481
     15480     15482     15481     15482     15483     15484     15483     15485
     15484     15485     15486     15487     15486     15488     15487     15488
     15489     15490     15489     15491     15490     15491     15492     15493
     15492     15494     15493     15494     15495     15496     15495     15497
     15496     15497     15498     15499     15498     15500     15499     15500
     15501     15502     15501     15503     15502     15503     15504     15505
     15504     15506     15505     15506     15507     15508     15507     15509
     15508     15509     15510     15511     15510     15512     15511     15512
     15513     15514     15513     15515     15514     15515     15516     15517
     15516     15518     15517     15518     15519     15520     15519     15521
     15520     15521     15522     15523     15522     15524     15523     15524
     15525     15526     15525     15527     15526     15527     15528     15529
     15528     15530     15529     15530     15531     15532     15531     15533
     15532     15533     15534     15535     15534     15536     15535     15536
     15537     15538     15537     15539     15538     15539     15540     15541
     15540     15542     15541     15542     15543     15544     15543     15545
     15544     15545     15546     15547     15546     15548     15547     15548
     15549     15550     15549     15551     15550     15551     15552     15553
     15552     15554     15553     15554     15555     15556     15555     15557
     15556     15557     15558     15559     15558     15560     15559     15560
     15561     15562     15561     15563     15562     15563     15564     15565
     15564     15566     15565     15566     15567     15568     15567     15569
     15568     15569     15570     15571     15570     15572     15571     15572
     15573     15574     15573     15575     15574     15575     15576     15577
     15576     15578     15577     15578     15579     15580     15579     15581
     15580     15581     15582     15583     15582     15584     15583     15584
     15585     15586     15585     15587     15586     15587     15588     15589
     15588     15590     15589     15590     15591     15592     15591     15593
     15592     15593     15594     15595     15594     15596     15595     15596
     15597     15598     15597     15599     15598     15599     15600     15601
     15600     15602     15601     15602     15603     15604     15603     15605
     15604     15605     15606     15607     15606     15608     15607     15608
     15609     15610     15609     15611     15610     15611     15612     15613
     15612     15614     15613     15614     15615     15616     15615     15617
     15616     15617     15618     15619     15618     15620     15619     15620
     15621     15622     15621     15623     15622     15623     15624     15625
     15624     15626     15625     15626     15627     15628     15627     15629
     15628     15629     15630     15631     15630     15632     15631     15632
     15633     15634     15633     15635     15634     15635     15636     15637
     15636     15638     15637     15638     15639     15640     15639     15641
     15640     15641     15642     15643     15642     15644     15643     15644
     15645     15646     15645     15647     15646     15647     15648     15649
     15648     15650     15649     15650     15651     15652     15651     15653
     15652     15653     15654     15655     15654     15656     15655     15656
     15657     15658     15657     15659     15658     15659     15660     15661
     15660     15662     15661     15662     15663     15664     15663     15665
     15664     15665     15666     15667     15666     15668     15667     15668
     15669     15670     15669     15671     15670     15671     15672     15673
     15672     15674     15673     15674     15675     15676     15675     15677
     15676     15677     15678     15679     15678     15680     15679     15680
     15681     15682     15681     15683     15682     15683     15684     15685
     15684     15686     15685     15686     15687     15688     15687     15689
     15688     15689     15690     15691     15690     15692     15691     15692
     15693     15694     15693     15695     15694     15695     15696     15697
     15696     15698     15697     15698     15699     15700     15699     15701
     15700     15701     15702     15703     15702     15704     15703     15704
     15705     15706     15705     15707     15706     15707     15708     15709
     15708     15710     15709     15710     15711     15712     15711     15713
     15712     15713     15714     15715     15714     15716     15715     15716
     15717     15718     15717     15719     15718     15719     15720     15721
     15720     15722     15721     15722     15723     15724     15723     15725
     15724     15725     15726     15727     15726     15728     15727     15728
     15729     15730     15729     15731     15730     15731     15732     15733
     15732     15734     15733     15734     15735     15736     15735     15737
     15736     15737     15738     15739     15738     15740     15739     15740
     15741     15742     15741     15743     15742     15743     15744     15745
     15744     15746     15745     15746     15747     15748     15747     15749
     15748     15749     15750     15751     15750     15752     15751     15752
     15753     15754     15753     15755     15754     15755     15756     15757
     15756     15758     15757     15758     15759     15760     15759     15761
     15760     15761     15762     15763     15762     15764     15763     15764
     15765     15766     15765     15767     15766     15767     15768     15769
     15768     15770     15769     15770     15771     15772     15771     15773
     15772     15773     15774     15775     15774     15776     15775     15776
     15777     15778     15777     15779     15778     15779     15780     15781
     15780     15782     15781     15782     15783     15784     15783     15785
     15784     15785     15786     15787     15786     15788     15787     15788
     15789     15790     15789     15791     15790     15791     15792     15793
     15792     15794     15793     15794     15795     15796     15795     15797
     15796     15797     15798     15799     15798     15800     15799     15800
     15801     15802     15801     15803     15802     15803     15804     15805
     15804     15806     15805     15806     15807     15808     15807     15809
     15808     15809     15810     15811     15810     15812     15811     15812
     15813     15814     15813     15815     15814     15815     15816     15817
     15816     15818     15817     15818     15819     15820     15819     15821
     15820     15821     15822     15823     15822     15824     15823     15824
     15825     15826     15825     15827     15826     15827     15828     15829
     15828     15830     15829     15830     15831     15832     15831     15833
     15832     15833     15834     15835     15834     15836     15835     15836
     15837     15838     15837     15839     15838     15839     15840     15841
     15840     15842     15841     15842     15843     15844     15843     15845
     15844     15845     15846     15847     15846     15848     15847     15848
     15849     15850     15849     15851     15850     15851     15852     15853
     15852     15854     15853     15854     15855     15856     15855     15857
     15856     15857     15858     15859     15858     15860     15859     15860
     15861     15862     15861     15863     15862     15863     15864     15865
     15864     15866     15865     15866     15867     15868     15867     15869
     15868     15869     15870     15871     15870     15872     15871     15872
     15873     15874     15873     15875     15874     15875     15876     15877
     15876     15878     15877     15878     15879     15880     15879     15881
     15880     15881     15882     15883     15882     15884     15883     15884
     15885     15886     15885     15887     15886     15887     15888     15889
     15888     15890     15889     15890     15891     15892     15891     15893
     15892     15893     15894     15895     15894     15896     15895     15896
     15897     15898     15897     15899     15898     15899     15900     15901
     15900     15902     15901     15902     15903     15904     15903     15905
     15904     15905     15906     15907     15906     15908     15907     15908
     15909     15910     15909     15911     15910     15911     15912     15913
     15912     15914     15913     15914     15915     15916     15915     15917
     15916     15917     15918     15919     15918     15920     15919     15920
     15921     15922     15921     15923     15922     15923     15924     15925
     15924     15926     15925     15926     15927     15928     15927     15929
     15928     15929     15930     15931     15930     15932     15931     15932
     15933     15934     15933     15935     15934     15935     15936     15937
     15936     15938     15937     15938     15939     15940     15939     15941
     15940     15941     15942     15943     15942     15944     15943     15944
     15945     15946     15945     15947     15946     15947     15948     15949
     15948     15950     15949     15950     15951     15952     15951     15953
     15952     15953     15954     15955     15954     15956     15955     15956
     15957     15958     15957     15959     15958     15959     15960     15961
     15960     15962     15961     15962     15963     15964     15963     15965
     15964     15965     15966     15967     15966     15968     15967     15968
     15969     15970     15969     15971     15970     15971     15972     15973
     15972     15974     15973     15974     15975     15976     15975     15977
     15976     15977     15978     15979     15978     15980     15979     15980
     15981     15982     15981     15983     15982     15983     15984     15985
     15984     15986     15985     15986     15987     15988     15987     15989
     15988     15989     15990     15991     15990     15992     15991     15992
     15993     15994     15993     15995     15994     15995     15996     15997
     15996     15998     15997     15998     15999     16000     15999     16001
     16000     16001     16002     16003     16002     16004     16003     16004
     16005     16006     16005     16007     16006     16007     16008     16009
     16008     16010     16009     16010     16011     16012     16011     16013
     16012     16013     16014     16015     16014     16016     16015     16016
     16017     16018     16017     16019     16018     16019     16020     16021
     16020     16022     16021     16022     16023     16024     16023     16025
     16024     16025     16026     16027     16026     16028     16027     16028
     16029     16030     16029     16031     16030     16031     16032     16033
     16032     16034     16033     16034     16035     16036     16035     16037
     16036     16037     16038     16039     16038     16040     16039     16040
     16041     16042     16041     16043     16042     16043     16044     16045
     16044     16046     16045     16046     16047     16048     16047     16049
     16048     16049     16050     16051     16050     16052     16051     16052
     16053     16054     16053     16055     16054     16055     16056     16057
     16056     16058     16057     16058     16059     16060     16059     16061
     16060     16061     16062     16063     16062     16064     16063     16064
     16065     16066     16065     16067     16066     16067     16068     16069
     16068     16070     16069     16070     16071     16072     16071     16073
     16072     16073     16074     16075     16074     16076     16075     16076
     16077     16078     16077     16079     16078     16079     16080     16081
     16080     16082     16081     16082     16083     16084     16083     16085
     16084     16085     16086     16087     16086     16088     16087     16088
     16089     16090     16089     16091     16090     16091     16092     16093
     16092     16094     16093     16094     16095     16096     16095     16097
     16096     16097     16098     16099     16098     16100     16099     16100
     16101     16102     16101     16103     16102     16103     16104     16105
     16104     16106     16105     16106     16107     16108     16107     16109
     16108     16109     16110     16111     16110     16112     16111     16112
     16113     16114     16113     16115     16114     16115     16116     16117
     16116     16118     16117     16118     16119     16120     16119     16121
     16120     16121     16122     16123     16122     16124     16123     16124
     16125     16126     16125     16127     16126     16127     16128     16129
     16128     16130     16129     16130     16131     16132     16131     16133
     16132     16133     16134     16135     16134     16136     16135     16136
     16137     16138     16137     16139     16138     16139     16140     16141
     16140     16142     16141     16142     16143     16144     16143     16145
     16144     16145     16146     16147     16146     16148     16147     16148
     16149     16150     16149     16151     16150     16151     16152     16153
     16152     16154     16153     16154     16155     16156     16155     16157
     16156     16157     16158     16159     16158     16160     16159     16160
     16161     16162     16161     16163     16162     16163     16164     16165
     16164     16166     16165     16166     16167     16168     16167     16169
     16168     16169     16170     16171     16170     16172     16171     16172
     16173     16174     16173     16175     16174     16175     16176     16177
     16176     16178     16177     16178     16179     16180     16179     16181
     16180     16181     16182     16183     16182     16184     16183     16184
     16185     16186     16185     16187     16186     16187     16188     16189
     16188     16190     16189     16190     16191     16192     16191     16193
     16192     16193     16194     16195     16194     16196     16195     16196
     16197     16198     16197     16199     16198     16199     16200     16201
     16200     16202     16201     16202     16203     16204     16203     16205
     16204     16205     16206     16207     16206     16208     16207     16208
     16209     16210     16209     16211     16210     16211     16212     16213
     16212     16214     16213     16214     16215     16216     16215     16217
     16216     16217     16218     16219     16218     16220     16219     16220
     16221     16222     16221     16223     16222     16223     16224     16225
     16224     16226     16225     16226     16227     16228     16227     16229
     16228     16229     16230     16231     16230     16232     16231     16232
     16233     16234     16233     16235     16234     16235     16236     16237
     16236     16238     16237     16238     16239     16240     16239     16241
     16240     16241     16242     16243     16242     16244     16243     16244
     16245     16246     16245     16247     16246     16247     16248     16249
     16248     16250     16249     16250     16251     16252     16251     16253
     16252     16253     16254     16255     16254     16256     16255     16256
     16257     16258     16257     16259     16258     16259     16260     16261
     16260     16262     16261     16262     16263     16264     16263     16265
     16264     16265     16266     16267     16266     16268     16267     16268
     16269     16270     16269     16271     16270     16271     16272     16273
     16272     16274     16273     16274     16275     16276     16275     16277
     16276     16277     16278     16279     16278     16280     16279     16280
     16281     16282     16281     16283     16282     16283     16284     16285
     16284     16286     16285     16286     16287     16288     16287     16289
     16288     16289     16290     16291     16290     16292     16291     16292
     16293     16294     16293     16295     16294     16295     16296     16297
     16296     16298     16297     16298     16299     16300     16299     16301
     16300     16301     16302     16303     16302     16304     16303     16304
     16305     16306     16305     16307     16306     16307     16308     16309
     16308     16310     16309     16310     16311     16312     16311     16313
     16312     16313     16314     16315     16314     16316     16315     16316
     16317     16318     16317     16319     16318     16319     16320     16321
     16320     16322     16321     16322     16323     16324     16323     16325
     16324     16325     16326     16327     16326     16328     16327     16328
     16329     16330     16329     16331     16330     16331     16332     16333
     16332     16334     16333     16334     16335     16336     16335     16337
     16336     16337     16338     16339     16338     16340     16339     16340
     16341     16342     16341     16343     16342     16343     16344     16345
     16344     16346     16345     16346     16347     16348     16347     16349
     16348     16349     16350     16351     16350     16352     16351     16352
     16353     16354     16353     16355     16354     16355     16356     16357
     16356     16358     16357     16358     16359     16360     16359     16361
     16360     16361     16362     16363     16362     16364     16363     16364
     16365     16366     16365     16367     16366     16367     16368     16369
     16368     16370     16369     16370     16371     16372     16371     16373
     16372     16373     16374     16375     16374     16376     16375     16376
     16377     16378     16377     16379     16378     16379     16380     16381
     16380     16382     16381     16382     16383     16384     16383     16385
     16384     16385     16386     16387     16386     16388     16387     16388
     16389     16390     16389     16391     16390     16391     16392     16393
     16392     16394     16393     16394     16395     16396     16395     16397
     16396     16397     16398     16399     16398     16400     16399     16400
     16401     16402     16401     16403     16402     16403     16404     16405
     16404     16406     16405     16406     16407     16408     16407     16409
     16408     16409     16410     16411     16410     16412     16411     16412
     16413     16414     16413     16415     16414     16415     16416     16417
     16416     16418     16417     16418     16419     16420     16419     16421
     16420     16421     16422     16423     16422     16424     16423     16424
     16425     16426     16425     16427     16426     16427     16428     16429
     16428     16430     16429     16430     16431     16432     16431     16433
     16432     16433     16434     16435     16434     16436     16435     16436
     16437     16438     16437     16439     16438     16439     16440     16441
     16440     16442     16441     16442     16443     16444     16443     16445
     16444     16445     16446     16447     16446     16448     16447     16448
     16449     16450     16449     16451     16450     16451     16452     16453
     16452     16454     16453     16454     16455     16456     16455     16457
     16456     16457     16458     16459     16458     16460     16459     16460
     16461     16462     16461     16463     16462     16463     16464     16465
     16464     16466     16465     16466     16467     16468     16467     16469
     16468     16469     16470     16471     16470     16472     16471     16472
     16473     16474     16473     16475     16474     16475     16476     16477
     16476     16478     16477     16478     16479     16480     16479     16481
     16480     16481     16482     16483     16482     16484     16483     16484
     16485     16486     16485     16487     16486     16487     16488     16489
     16488     16490     16489     16490     16491     16492     16491     16493
     16492     16493     16494     16495     16494     16496     16495     16496
     16497     16498     16497     16499     16498     16499     16500     16501
     16500     16502     16501     16502     16503     16504     16503     16505
     16504     16505     16506     16507     16506     16508     16507     16508
     16509     16510     16509     16511     16510     16511     16512     16513
     16512     16514     16513     16514     16515     16516     16515     16517
     16516     16517     16518     16519     16518     16520     16519     16520
     16521     16522     16521     16523     16522     16523     16524     16525
     16524     16526     16525     16526     16527     16528     16527     16529
     16528     16529     16530     16531     16530     16532     16531     16532
     16533     16534     16533     16535     16534     16535     16536     16537
     16536     16538     16537     16538     16539     16540     16539     16541
     16540     16541     16542     16543     16542     16544     16543     16544
     16545     16546     16545     16547     16546     16547     16548     16549
     16548     16550     16549     16550     16551     16552     16551     16553
     16552     16553     16554     16555     16554     16556     16555     16556
     16557     16558     16557     16559     16558     16559     16560     16561
     16560     16562     16561     16562     16563     16564     16563     16565
     16564     16565     16566     16567     16566     16568     16567     16568
     16569     16570     16569     16571     16570     16571     16572     16573
     16572     16574     16573     16574     16575     16576     16575     16577
     16576     16577     16578     16579     16578     16580     16579     16580
     16581     16582     16581     16583     16582     16583     16584     16585
     16584     16586     16585     16586     16587     16588     16587     16589
     16588     16589     16590     16591     16590     16592     16591     16592
     16593     16594     16593     16595     16594     16595     16596     16597
     16596     16598     16597     16598     16599     16600     16599     16601
     16600     16601     16602     16603     16602     16604     16603     16604
     16605     16606     16605     16607     16606     16607     16608     16609
     16608     16610     16609     16610     16611     16612     16611     16613
     16612     16613     16614     16615     16614     16616     16615     16616
     16617     16618     16617     16619     16618     16619     16620     16621
     16620     16622     16621     16622     16623     16624     16623     16625
     16624     16625     16626     16627     16626     16628     16627     16628
     16629     16630     16629     16631     16630     16631     16632     16633
     16632     16634     16633     16634     16635     16636     16635     16637
     16636     16637     16638     16639     16638     16640     16639     16640
     16641     16642     16641     16643     16642     16643     16644     16645
     16644     16646     16645     16646     16647     16648     16647     16649
     16648     16649     16650     16651     16650     16652     16651     16652
     16653     16654     16653     16655     16654     16655     16656     16657
     16656     16658     16657     16658     16659     16660     16659     16661
     16660     16661     16662     16663     16662     16664     16663     16664
     16665     16666     16665     16667     16666     16667     16668     16669
     16668     16670     16669     16670     16671     16672     16671     16673
     16672     16673     16674     16675     16674     16676     16675     16676
     16677     16678     16677     16679     16678     16679     16680     16681
     16680     16682     16681     16682     16683     16684     16683     16685
     16684     16685     16686     16687     16686     16688     16687     16688
     16689     16690     16689     16691     16690     16691     16692     16693
     16692     16694     16693     16694     16695     16696     16695     16697
     16696     16697     16698     16699     16698     16700     16699     16700
     16701     16702     16701     16703     16702     16703     16704     16705
     16704     16706     16705     16706     16707     16708     16707     16709
     16708     16709     16710     16711     16710     16712     16711     16712
     16713     16714     16713     16715     16714     16715     16716     16717
     16716     16718     16717     16718     16719     16720     16719     16721
     16720     16721     16722     16723     16722     16724     16723     16724
     16725     16726     16725     16727     16726     16727     16728     16729
     16728     16730     16729     16730     16731     16732     16731     16733
     16732     16733     16734     16735     16734     16736     16735     16736
     16737     16738     16737     16739     16738     16739     16740     16741
     16740     16742     16741     16742     16743     16744     16743     16745
     16744     16745     16746     16747     16746     16748     16747     16748
     16749     16750     16749     16751     16750     16751     16752     16753
     16752     16754     16753     16754     16755     16756     16755     16757
     16756     16757     16758     16759     16758     16760     16759     16760
     16761     16762     16761     16763     16762     16763     16764     16765
     16764     16766     16765     16766     16767     16768     16767     16769
     16768     16769     16770     16771     16770     16772     16771     16772
     16773     16774     16773     16775     16774     16775     16776     16777
     16776     16778     16777     16778     16779     16780     16779     16781
     16780     16781     16782     16783     16782     16784     16783     16784
     16785     16786     16785     16787     16786     16787     16788     16789
     16788     16790     16789     16790     16791     16792     16791     16793
     16792     16793     16794     16795     16794     16796     16795     16796
     16797     16798     16797     16799     16798     16799     16800     16801
     16800     16802     16801     16802     16803     16804     16803     16805
     16804     16805     16806     16807     16806     16808     16807     16808
     16809     16810     16809     16811     16810     16811     16812     16813
     16812     16814     16813     16814     16815     16816     16815     16817
     16816     16817     16818     16819     16818     16820     16819     16820
     16821     16822     16821     16823     16822     16823     16824     16825
     16824     16826     16825     16826     16827     16828     16827     16829
     16828     16829     16830     16831     16830     16832     16831     16832
     16833     16834     16833     16835     16834     16835     16836     16837
     16836     16838     16837     16838     16839     16840     16839     16841
     16840     16841     16842     16843     16842     16844     16843     16844
     16845     16846     16845     16847     16846     16847     16848     16849
     16848     16850     16849     16850     16851     16852     16851     16853
     16852     16853     16854     16855     16854     16856     16855     16856
     16857     16858     16857     16859     16858     16859     16860     16861
     16860     16862     16861     16862     16863     16864     16863     16865
     16864     16865     16866     16867     16866     16868     16867     16868
     16869     16870     16869     16871     16870     16871     16872     16873
     16872     16874     16873     16874     16875     16876     16875     16877
     16876     16877     16878     16879     16878     16880     16879     16880
     16881     16882     16881     16883     16882     16883     16884     16885
     16884     16886     16885     16886     16887     16888     16887     16889
     16888     16889     16890     16891     16890     16892     16891     16892
     16893     16894     16893     16895     16894     16895     16896     16897
     16896     16898     16897     16898     16899     16900     16899     16901
     16900     16901     16902     16903     16902     16904     16903     16904
     16905     16906     16905     16907     16906     16907     16908     16909
     16908     16910     16909     16910     16911     16912     16911     16913
     16912     16913     16914     16915     16914     16916     16915     16916
     16917     16918     16917     16919     16918     16919     16920     16921
     16920     16922     16921     16922     16923     16924     16923     16925
     16924     16925     16926     16927     16926     16928     16927     16928
     16929     16930     16929     16931     16930     16931     16932     16933
     16932     16934     16933     16934     16935     16936     16935     16937
     16936     16937     16938     16939     16938     16940     16939     16940
     16941     16942     16941     16943     16942     16943     16944     16945
     16944     16946     16945     16946     16947     16948     16947     16949
     16948     16949     16950     16951     16950     16952     16951     16952
     16953     16954     16953     16955     16954     16955     16956     16957
     16956     16958     16957     16958     16959     16960     16959     16961
     16960     16961     16962     16963     16962     16964     16963     16964
     16965     16966     16965     16967     16966     16967     16968     16969
     16968     16970     16969     16970     16971     16972     16971     16973
     16972     16973     16974     16975     16974     16976     16975     16976
     16977     16978     16977     16979     16978     16979     16980     16981
     16980     16982     16981     16982     16983     16984     16983     16985
     16984     16985     16986     16987     16986     16988     16987     16988
     16989     16990     16989     16991     16990     16991     16992     16993
     16992     16994     16993     16994     16995     16996     16995     16997
     16996     16997     16998     16999     16998     17000     16999     17000
     17001     17002     17001     17003     17002     17003     17004     17005
     17004     17006     17005     17006     17007     17008     17007     17009
     17008     17009     17010     17011     17010     17012     17011     17012
     17013     17014     17013     17015     17014     17015     17016     17017
     17016     17018     17017     17018     17019     17020     17019     17021
     17020     17021     17022     17023     17022     17024     17023     17024
     17025     17026     17025     17027     17026     17027     17028     17029
     17028     17030     17029     17030     17031     17032     17031     17033
     17032     17033     17034     17035     17034     17036     17035     17036
     17037     17038     17037     17039     17038     17039     17040     17041
     17040     17042     17041     17042     17043     17044     17043     17045
     17044     17045     17046     17047     17046     17048     17047     17048
     17049     17050     17049     17051     17050     17051     17052     17053
     17052     17054     17053     17054     17055     17056     17055     17057
     17056     17057     17058     17059     17058     17060     17059     17060
     17061     17062     17061     17063     17062     17063     17064     17065
     17064     17066     17065     17066     17067     17068     17067     17069
     17068     17069     17070     17071     17070     17072     17071     17072
     17073     17074     17073     17075     17074     17075     17076     17077
     17076     17078     17077     17078     17079     17080     17079     17081
     17080     17081     17082     17083     17082     17084     17083     17084
     17085     17086     17085     17087     17086     17087     17088     17089
     17088     17090     17089     17090     17091     17092     17091     17093
     17092     17093     17094     17095     17094     17096     17095     17096
     17097     17098     17097     17099     17098     17099     17100     17101
     17100     17102     17101     17102     17103     17104     17103     17105
     17104     17105     17106     17107     17106     17108     17107     17108
     17109     17110     17109     17111     17110     17111     17112     17113
     17112     17114     17113     17114     17115     17116     17115     17117
     17116     17117     17118     17119     17118     17120     17119     17120
     17121     17122     17121     17123     17122     17123     17124     17125
     17124     17126     17125     17126     17127     17128     17127     17129
     17128     17129     17130     17131     17130     17132     17131     17132
     17133     17134     17133     17135     17134     17135     17136     17137
     17136     17138     17137     17138     17139     17140     17139     17141
     17140     17141     17142     17143     17142     17144     17143     17144
     17145     17146     17145     17147     17146     17147     17148     17149
     17148     17150     17149     17150     17151     17152     17151     17153
     17152     17153     17154     17155     17154     17156     17155     17156
     17157     17158     17157     17159     17158     17159     17160     17161
     17160     17162     17161     17162     17163     17164     17163     17165
     17164     17165     17166     17167     17166     17168     17167     17168
     17169     17170     17169     17171     17170     17171     17172     17173
     17172     17174     17173     17174     17175     17176     17175     17177
     17176     17177     17178     17179     17178     17180     17179     17180
     17181     17182     17181     17183     17182     17183     17184     17185
     17184     17186     17185     17186     17187     17188     17187     17189
     17188     17189     17190     17191     17190     17192     17191     17192
     17193     17194     17193     17195     17194     17195     17196     17197
     17196     17198     17197     17198     17199     17200     17199     17201
     17200     17201     17202     17203     17202     17204     17203     17204
     17205     17206     17205     17207     17206     17207     17208     17209
     17208     17210     17209     17210     17211     17212     17211     17213
     17212     17213     17214     17215     17214     17216     17215     17216
     17217     17218     17217     17219     17218     17219     17220     17221
     17220     17222     17221     17222     17223     17224     17223     17225
     17224     17225     17226     17227     17226     17228     17227     17228
     17229     17230     17229     17231     17230     17231     17232     17233
     17232     17234     17233     17234     17235     17236     17235     17237
     17236     17237     17238     17239     17238     17240     17239     17240
     17241     17242     17241     17243     17242     17243     17244     17245
     17244     17246     17245     17246     17247     17248     17247     17249
     17248     17249     17250     17251     17250     17252     17251     17252
     17253     17254     17253     17255     17254     17255     17256     17257
     17256     17258     17257     17258     17259     17260     17259     17261
     17260     17261     17262     17263     17262     17264     17263     17264
     17265     17266     17265     17267     17266     17267     17268     17269
     17268     17270     17269     17270     17271     17272     17271     17273
     17272     17273     17274     17275     17274     17276     17275     17276
     17277     17278     17277     17279     17278     17279     17280     17281
     17280     17282     17281     17282     17283     17284     17283     17285
     17284     17285     17286     17287     17286     17288     17287     17288
     17289     17290     17289     17291     17290     17291     17292     17293
     17292     17294     17293     17294     17295     17296     17295     17297
     17296     17297     17298     17299     17298     17300     17299     17300
     17301     17302     17301     17303     17302     17303     17304     17305
     17304     17306     17305     17306     17307     17308     17307     17309
     17308     17309     17310     17311     17310     17312     17311     17312
     17313     17314     17313     17315     17314     17315     17316     17317
     17316     17318     17317     17318     17319     17320     17319     17321
     17320     17321     17322     17323     17322     17324     17323     17324
     17325     17326     17325     17327     17326     17327     17328     17329
     17328     17330     17329     17330     17331     17332     17331     17333
     17332     17333     17334     17335     17334     17336     17335     17336
     17337     17338     17337     17339     17338     17339     17340     17341
     17340     17342     17341     17342     17343     17344     17343     17345
     17344     17345     17346     17347     17346     17348     17347     17348
     17349     17350     17349     17351     17350     17351     17352     17353
     17352     17354     17353     17354     17355     17356     17355     17357
     17356     17357     17358     17359     17358     17360     17359     17360
     17361     17362     17361     17363     17362     17363     17364     17365
     17364     17366     17365     17366     17367     17368     17367     17369
     17368     17369     17370     17371     17370     17372     17371     17372
     17373     17374     17373     17375     17374     17375     17376     17377
     17376     17378     17377     17378     17379     17380     17379     17381
     17380     17381     17382     17383     17382     17384     17383     17384
     17385     17386     17385     17387     17386     17387     17388     17389
     17388     17390     17389     17390     17391     17392     17391     17393
     17392     17393     17394     17395     17394     17396     17395     17396
     17397     17398     17397     17399     17398     17399     17400     17401
     17400     17402     17401     17402     17403     17404     17403     17405
     17404     17405     17406     17407     17406     17408     17407     17408
     17409     17410     17409     17411     17410     17411     17412     17413
     17412     17414     17413     17414     17415     17416     17415     17417
     17416     17417     17418     17419     17418     17420     17419     17420
     17421     17422     17421     17423     17422     17423     17424     17425
     17424     17426     17425     17426     17427     17428     17427     17429
     17428     17429     17430     17431     17430     17432     17431     17432
     17433     17434     17433     17435     17434     17435     17436     17437
     17436     17438     17437     17438     17439     17440     17439     17441
     17440     17441     17442     17443     17442     17444     17443     17444
     17445     17446     17445     17447     17446     17447     17448     17449
     17448     17450     17449     17450     17451     17452     17451     17453
     17452     17453     17454     17455     17454     17456     17455     17456
     17457     17458     17457     17459     17458     17459     17460     17461
     17460     17462     17461     17462     17463     17464     17463     17465
     17464     17465     17466     17467     17466     17468     17467     17468
     17469     17470     17469     17471     17470     17471     17472     17473
     17472     17474     17473     17474     17475     17476     17475     17477
     17476     17477     17478     17479     17478     17480     17479     17480
     17481     17482     17481     17483     17482     17483     17484     17485
     17484     17486     17485     17486     17487     17488     17487     17489
     17488     17489     17490     17491     17490     17492     17491     17492
     17493     17494     17493     17495     17494     17495     17496     17497
     17496     17498     17497     17498     17499     17500     17499     17501
     17500     17501     17502     17503     17502     17504     17503     17504
     17505     17506     17505     17507     17506     17507     17508     17509
     17508     17510     17509     17510     17511     17512     17511     17513
     17512     17513     17514     17515     17514     17516     17515     17516
     17517     17518     17517     17519     17518     17519     17520     17521
     17520     17522     17521     17522     17523     17524     17523     17525
     17524     17525     17526     17527     17526     17528     17527     17528
     17529     17530     17529     17531     17530     17531     17532     17533
     17532     17534     17533     17534     17535     17536     17535     17537
     17536     17537     17538     17539     17538     17540     17539     17540
     17541     17542     17541     17543     17542     17543     17544     17545
     17544     17546     17545     17546     17547     17548     17547     17549
     17548     17549     17550     17551     17550     17552     17551     17552
     17553     17554     17553     17555     17554     17555     17556     17557
     17556     17558     17557     17558     17559     17560     17559     17561
     17560     17561     17562     17563     17562     17564     17563     17564
     17565     17566     17565     17567     17566     17567     17568     17569
     17568     17570     17569     17570     17571     17572     17571     17573
     17572     17573     17574     17575     17574     17576     17575     17576
     17577     17578     17577     17579     17578     17579     17580     17581
     17580     17582     17581     17582     17583     17584     17583     17585
     17584     17585     17586     17587     17586     17588     17587     17588
     17589     17590     17589     17591     17590     17591     17592     17593
     17592     17594     17593     17594     17595     17596     17595     17597
     17596     17597     17598     17599     17598     17600     17599     17600
     17601     17602     17601     17603     17602     17603     17604     17605
     17604     17606     17605     17606     17607     17608     17607     17609
     17608     17609     17610     17611     17610     17612     17611     17612
     17613     17614     17613     17615     17614     17615     17616     17617
     17616     17618     17617     17618     17619     17620     17619     17621
     17620     17621     17622     17623     17622     17624     17623     17624
     17625     17626     17625     17627     17626     17627     17628     17629
     17628     17630     17629     17630     17631     17632     17631     17633
     17632     17633     17634     17635     17634     17636     17635     17636
     17637     17638     17637     17639     17638     17639     17640     17641
     17640     17642     17641     17642     17643     17644     17643     17645
     17644     17645     17646     17647     17646     17648     17647     17648
     17649     17650     17649     17651     17650     17651     17652     17653
     17652     17654     17653     17654     17655     17656     17655     17657
     17656     17657     17658     17659     17658     17660     17659     17660
     17661     17662     17661     17663     17662     17663     17664     17665
     17664     17666     17665     17666     17667     17668     17667     17669
     17668     17669     17670     17671     17670     17672     17671     17672
     17673     17674     17673     17675     17674     17675     17676     17677
     17676     17678     17677     17678     17679     17680     17679     17681
     17680     17681     17682     17683     17682     17684     17683     17684
     17685     17686     17685     17687     17686     17687     17688     17689
     17688     17690     17689     17690     17691     17692     17691     17693
     17692     17693     17694     17695     17694     17696     17695     17696
     17697     17698     17697     17699     17698     17699     17700     17701
     17700     17702     17701     17702     17703     17704     17703     17705
     17704     17705     17706     17707     17706     17708     17707     17708
     17709     17710     17709     17711     17710     17711     17712     17713
     17712     17714     17713     17714     17715     17716     17715     17717
     17716     17717     17718     17719     17718     17720     17719     17720
     17721     17722     17721     17723     17722     17723     17724     17725
     17724     17726     17725     17726     17727     17728     17727     17729
     17728     17729     17730     17731     17730     17732     17731     17732
     17733     17734     17733     17735     17734     17735     17736     17737
     17736     17738     17737     17738     17739     17740     17739     17741
     17740     17741     17742     17743     17742     17744     17743     17744
     17745     17746     17745     17747     17746     17747     17748     17749
     17748     17750     17749     17750     17751     17752     17751     17753
     17752     17753     17754     17755     17754     17756     17755     17756
     17757     17758     17757     17759     17758     17759     17760     17761
     17760     17762     17761     17762     17763     17764     17763     17765
     17764     17765     17766     17767     17766     17768     17767     17768
     17769     17770     17769     17771     17770     17771     17772     17773
     17772     17774     17773     17774     17775     17776     17775     17777
     17776     17777     17778     17779     17778     17780     17779     17780
     17781     17782     17781     17783     17782     17783     17784     17785
     17784     17786     17785     17786     17787     17788     17787     17789
     17788     17789     17790     17791     17790     17792     17791     17792
     17793     17794     17793     17795     17794     17795     17796     17797
     17796     17798     17797     17798     17799     17800     17799     17801
     17800     17801     17802     17803     17802     17804     17803     17804
     17805     17806     17805     17807     17806     17807     17808     17809
     17808     17810     17809     17810     17811     17812     17811     17813
     17812     17813     17814     17815     17814     17816     17815     17816
     17817     17818     17817     17819     17818     17819     17820     17821
     17820     17822     17821     17822     17823     17824     17823     17825
     17824     17825     17826     17827     17826     17828     17827     17828
     17829     17830     17829     17831     17830     17831     17832     17833
     17832     17834     17833     17834     17835     17836     17835     17837
     17836     17837     17838     17839     17838     17840     17839     17840
     17841     17842     17841     17843     17842     17843     17844     17845
     17844     17846     17845     17846     17847     17848     17847     17849
     17848     17849     17850     17851     17850     17852     17851     17852
     17853     17854     17853     17855     17854     17855     17856     17857
     17856     17858     17857     17858     17859     17860     17859     17861
     17860     17861     17862     17863     17862     17864     17863     17864
     17865     17866     17865     17867     17866     17867     17868     17869
     17868     17870     17869     17870     17871     17872     17871     17873
     17872     17873     17874     17875     17874     17876     17875     17876
     17877     17878     17877     17879     17878     17879     17880     17881
     17880     17882     17881     17882     17883     17884     17883     17885
     17884     17885     17886     17887     17886     17888     17887     17888
     17889     17890     17889     17891     17890     17891     17892     17893
     17892     17894     17893     17894     17895     17896     17895     17897
     17896     17897     17898     17899     17898     17900     17899     17900
     17901     17902     17901     17903     17902     17903     17904     17905
     17904     17906     17905     17906     17907     17908     17907     17909
     17908     17909     17910     17911     17910     17912     17911     17912
     17913     17914     17913     17915     17914     17915     17916     17917
     17916     17918     17917     17918     17919     17920     17919     17921
     17920     17921     17922     17923     17922     17924     17923     17924
     17925     17926     17925     17927     17926     17927     17928     17929
     17928     17930     17929     17930     17931     17932     17931     17933
     17932     17933     17934     17935     17934     17936     17935     17936
     17937     17938     17937     17939     17938     17939     17940     17941
     17940     17942     17941     17942     17943     17944     17943     17945
     17944     17945     17946     17947     17946     17948     17947     17948
     17949     17950     17949     17951     17950     17951     17952     17953
     17952     17954     17953     17954     17955     17956     17955     17957
     17956     17957     17958     17959     17958     17960     17959     17960
     17961     17962     17961     17963     17962     17963     17964     17965
     17964     17966     17965     17966     17967     17968     17967     17969
     17968     17969     17970     17971     17970     17972     17971     17972
     17973     17974     17973     17975     17974     17975     17976     17977
     17976     17978     17977     17978     17979     17980     17979     17981
     17980     17981     17982     17983     17982     17984     17983     17984
     17985     17986     17985     17987     17986     17987     17988     17989
     17988     17990     17989     17990     17991     17992     17991     17993
     17992     17993     17994     17995     17994     17996     17995     17996
     17997     17998     17997     17999     17998     17999     18000     18001
     18000     18002     18001     18002     18003     18004     18003     18005
     18004     18005     18006     18007     18006     18008     18007     18008
     18009     18010     18009     18011     18010     18011     18012     18013
     18012     18014     18013     18014     18015     18016     18015     18017
     18016     18017     18018     18019     18018     18020     18019     18020
     18021     18022     18021     18023     18022     18023     18024     18025
     18024     18026     18025     18026     18027     18028     18027     18029
     18028     18029     18030     18031     18030     18032     18031     18032
     18033     18034     18033     18035     18034     18035     18036     18037
     18036     18038     18037     18038     18039     18040     18039     18041
     18040     18041     18042     18043     18042     18044     18043     18044
     18045     18046     18045     18047     18046     18047     18048     18049
     18048     18050     18049     18050     18051     18052     18051     18053
     18052     18053     18054     18055     18054     18056     18055     18056
     18057     18058     18057     18059     18058     18059     18060     18061
     18060     18062     18061     18062     18063     18064     18063     18065
     18064     18065     18066     18067     18066     18068     18067     18068
     18069     18070     18069     18071     18070     18071     18072     18073
     18072     18074     18073     18074     18075     18076     18075     18077
     18076     18077     18078     18079     18078     18080     18079     18080
     18081     18082     18081     18083     18082     18083     18084     18085
     18084     18086     18085     18086     18087     18088     18087     18089
     18088     18089     18090     18091     18090     18092     18091     18092
     18093     18094     18093     18095     18094     18095     18096     18097
     18096     18098     18097     18098     18099     18100     18099     18101
     18100     18101     18102     18103     18102     18104     18103     18104
     18105     18106     18105     18107     18106     18107     18108     18109
     18108     18110     18109     18110     18111     18112     18111     18113
     18112     18113     18114     18115     18114     18116     18115     18116
     18117     18118     18117     18119     18118     18119     18120     18121
     18120     18122     18121     18122     18123     18124     18123     18125
     18124     18125     18126     18127     18126     18128     18127     18128
     18129     18130     18129     18131     18130     18131     18132     18133
     18132     18134     18133     18134     18135     18136     18135     18137
     18136     18137     18138     18139     18138     18140     18139     18140
     18141     18142     18141     18143     18142     18143     18144     18145
     18144     18146     18145     18146     18147     18148     18147     18149
     18148     18149     18150     18151     18150     18152     18151     18152
     18153     18154     18153     18155     18154     18155     18156     18157
     18156     18158     18157     18158     18159     18160     18159     18161
     18160     18161     18162     18163     18162     18164     18163     18164
     18165     18166     18165     18167     18166     18167     18168     18169
     18168     18170     18169     18170     18171     18172     18171     18173
     18172     18173     18174     18175     18174     18176     18175     18176
     18177     18178     18177     18179     18178     18179     18180     18181
     18180     18182     18181     18182     18183     18184     18183     18185
     18184     18185     18186     18187     18186     18188     18187     18188
     18189     18190     18189     18191     18190     18191     18192     18193
     18192     18194     18193     18194     18195     18196     18195     18197
     18196     18197     18198     18199     18198     18200     18199     18200
     18201     18202     18201     18203     18202     18203     18204     18205
     18204     18206     18205     18206     18207     18208     18207     18209
     18208     18209     18210     18211     18210     18212     18211     18212
     18213     18214     18213     18215     18214     18215     18216     18217
     18216     18218     18217     18218     18219     18220     18219     18221
     18220     18221     18222     18223     18222     18224     18223     18224
     18225     18226     18225     18227     18226     18227     18228     18229
     18228     18230     18229     18230     18231     18232     18231     18233
     18232     18233     18234     18235     18234     18236     18235     18236
     18237     18238     18237     18239     18238     18239     18240     18241
     18240     18242     18241     18242     18243     18244     18243     18245
     18244     18245     18246     18247     18246     18248     18247     18248
     18249     18250     18249     18251     18250     18251     18252     18253
     18252     18254     18253     18254     18255     18256     18255     18257
     18256     18257     18258     18259     18258     18260     18259     18260
     18261     18262     18261     18263     18262     18263     18264     18265
     18264     18266     18265     18266     18267     18268     18267     18269
     18268     18269     18270     18271     18270     18272     18271     18272
     18273     18274     18273     18275     18274     18275     18276     18277
     18276     18278     18277     18278     18279     18280     18279     18281
     18280     18281     18282     18283     18282     18284     18283     18284
     18285     18286     18285     18287     18286     18287     18288     18289
     18288     18290     18289     18290     18291     18292     18291     18293
     18292     18293     18294     18295     18294     18296     18295     18296
     18297     18298     18297     18299     18298     18299     18300     18301
     18300     18302     18301     18302     18303     18304     18303     18305
     18304     18305     18306     18307     18306     18308     18307     18308
     18309     18310     18309     18311     18310     18311     18312     18313
     18312     18314     18313     18314     18315     18316     18315     18317
     18316     18317     18318     18319     18318     18320     18319     18320
     18321     18322     18321     18323     18322     18323     18324     18325
     18324     18326     18325     18326     18327     18328     18327     18329
     18328     18329     18330     18331     18330     18332     18331     18332
     18333     18334     18333     18335     18334     18335     18336     18337
     18336     18338     18337     18338     18339     18340     18339     18341
     18340     18341     18342     18343     18342     18344     18343     18344
     18345     18346     18345     18347     18346     18347     18348     18349
     18348     18350     18349     18350     18351     18352     18351     18353
     18352     18353     18354     18355     18354     18356     18355     18356
     18357     18358     18357     18359     18358     18359     18360     18361
     18360     18362     18361     18362     18363     18364     18363     18365
     18364     18365     18366     18367     18366     18368     18367     18368
     18369     18370     18369     18371     18370     18371     18372     18373
     18372     18374     18373     18374     18375     18376     18375     18377
     18376     18377     18378     18379     18378     18380     18379     18380
     18381     18382     18381     18383     18382     18383     18384     18385
     18384     18386     18385     18386     18387     18388     18387     18389
     18388     18389     18390     18391     18390     18392     18391     18392
     18393     18394     18393     18395     18394     18395     18396     18397
     18396     18398     18397     18398     18399     18400     18399     18401
     18400     18401     18402     18403     18402     18404     18403     18404
     18405     18406     18405     18407     18406     18407     18408     18409
     18408     18410     18409     18410     18411     18412     18411     18413
     18412     18413     18414     18415     18414     18416     18415     18416
     18417     18418     18417     18419     18418     18419     18420     18421
     18420     18422     18421     18422     18423     18424     18423     18425
     18424     18425     18426     18427     18426     18428     18427     18428
     18429     18430     18429     18431     18430     18431     18432     18433
     18432     18434     18433     18434     18435     18436     18435     18437
     18436     18437     18438     18439     18438     18440     18439     18440
     18441     18442     18441     18443     18442     18443     18444     18445
     18444     18446     18445     18446     18447     18448     18447     18449
     18448     18449     18450     18451     18450     18452     18451     18452
     18453     18454     18453     18455     18454     18455     18456     18457
     18456     18458     18457     18458     18459     18460     18459     18461
     18460     18461     18462     18463     18462     18464     18463     18464
     18465     18466     18465     18467     18466     18467     18468     18469
     18468     18470     18469     18470     18471     18472     18471     18473
     18472     18473     18474     18475     18474     18476     18475     18476
     18477     18478     18477     18479     18478     18479     18480     18481
     18480     18482     18481     18482     18483     18484     18483     18485
     18484     18485     18486     18487     18486     18488     18487     18488
     18489     18490     18489     18491     18490     18491     18492     18493
     18492     18494     18493     18494     18495     18496     18495     18497
     18496     18497     18498     18499     18498     18500     18499     18500
     18501     18502     18501     18503     18502     18503     18504     18505
     18504     18506     18505     18506     18507     18508     18507     18509
     18508     18509     18510     18511     18510     18512     18511     18512
     18513     18514     18513     18515     18514     18515     18516     18517
     18516     18518     18517     18518     18519     18520     18519     18521
     18520     18521     18522     18523     18522     18524     18523     18524
     18525     18526     18525     18527     18526     18527     18528     18529
     18528     18530     18529     18530     18531     18532     18531     18533
     18532     18533     18534     18535     18534     18536     18535     18536
     18537     18538     18537     18539     18538     18539     18540     18541
     18540     18542     18541     18542     18543     18544     18543     18545
     18544     18545     18546     18547     18546     18548     18547     18548
     18549     18550     18549     18551     18550     18551     18552     18553
     18552     18554     18553     18554     18555     18556     18555     18557
     18556     18557     18558     18559     18558     18560     18559     18560
     18561     18562     18561     18563     18562     18563     18564     18565
     18564     18566     18565     18566     18567     18568     18567     18569
     18568     18569     18570     18571     18570     18572     18571     18572
     18573     18574     18573     18575     18574     18575     18576     18577
     18576     18578     18577     18578     18579     18580     18579     18581
     18580     18581     18582     18583     18582     18584     18583     18584
     18585     18586     18585     18587     18586     18587     18588     18589
     18588     18590     18589     18590     18591     18592     18591     18593
     18592     18593     18594     18595     18594     18596     18595     18596
     18597     18598     18597     18599     18598     18599     18600     18601
     18600     18602     18601     18602     18603     18604     18603     18605
     18604     18605     18606     18607     18606     18608     18607     18608
     18609     18610     18609     18611     18610     18611     18612     18613
     18612     18614     18613     18614     18615     18616     18615     18617
     18616     18617     18618     18619     18618     18620     18619     18620
     18621     18622     18621     18623     18622     18623     18624     18625
     18624     18626     18625     18626     18627     18628     18627     18629
     18628     18629     18630     18631     18630     18632     18631     18632
     18633     18634     18633     18635     18634     18635     18636     18637
     18636     18638     18637     18638     18639     18640     18639     18641
     18640     18641     18642     18643     18642     18644     18643     18644
     18645     18646     18645     18647     18646     18647     18648     18649
     18648     18650     18649     18650     18651     18652     18651     18653
     18652     18653     18654     18655     18654     18656     18655     18656
     18657     18658     18657     18659     18658     18659     18660     18661
     18660     18662     18661     18662     18663     18664     18663     18665
     18664     18665     18666     18667     18666     18668     18667     18668
     18669     18670     18669     18671     18670     18671     18672     18673
     18672     18674     18673     18674     18675     18676     18675     18677
     18676     18677     18678     18679     18678     18680     18679     18680
     18681     18682     18681     18683     18682     18683     18684     18685
     18684     18686     18685     18686     18687     18688     18687     18689
     18688     18689     18690     18691     18690     18692     18691     18692
     18693     18694     18693     18695     18694     18695     18696     18697
     18696     18698     18697     18698     18699     18700     18699     18701
     18700     18701     18702     18703     18702     18704     18703     18704
     18705     18706     18705     18707     18706     18707     18708     18709
     18708     18710     18709     18710     18711     18712     18711     18713
     18712     18713     18714     18715     18714     18716     18715     18716
     18717     18718     18717     18719     18718     18719     18720     18721
     18720     18722     18721     18722     18723     18724     18723     18725
     18724     18725     18726     18727     18726     18728     18727     18728
     18729     18730     18729     18731     18730     18731     18732     18733
     18732     18734     18733     18734     18735     18736     18735     18737
     18736     18737     18738     18739     18738     18740     18739     18740
     18741     18742     18741     18743     18742     18743     18744     18745
     18744     18746     18745     18746     18747     18748     18747     18749
     18748     18749     18750     18751     18750     18752     18751     18752
     18753     18754     18753     18755     18754     18755     18756     18757
     18756     18758     18757     18758     18759     18760     18759     18761
     18760     18761     18762     18763     18762     18764     18763     18764
     18765     18766     18765     18767     18766     18767     18768     18769
     18768     18770     18769     18770     18771     18772     18771     18773
     18772     18773     18774     18775     18774     18776     18775     18776
     18777     18778     18777     18779     18778     18779     18780     18781
     18780     18782     18781     18782     18783     18784     18783     18785
     18784     18785     18786     18787     18786     18788     18787     18788
     18789     18790     18789     18791     18790     18791     18792     18793
     18792     18794     18793     18794     18795     18796     18795     18797
     18796     18797     18798     18799     18798     18800     18799     18800
     18801     18802     18801     18803     18802     18803     18804     18805
     18804     18806     18805     18806     18807     18808     18807     18809
     18808     18809     18810     18811     18810     18812     18811     18812
     18813     18814     18813     18815     18814     18815     18816     18817
     18816     18818     18817     18818     18819     18820     18819     18821
     18820     18821     18822     18823     18822     18824     18823     18824
     18825     18826     18825     18827     18826     18827     18828     18829
     18828     18830     18829     18830     18831     18832     18831     18833
     18832     18833     18834     18835     18834     18836     18835     18836
     18837     18838     18837     18839     18838     18839     18840     18841
     18840     18842     18841     18842     18843     18844     18843     18845
     18844     18845     18846     18847     18846     18848     18847     18848
     18849     18850     18849     18851     18850     18851     18852     18853
     18852     18854     18853     18854     18855     18856     18855     18857
     18856     18857     18858     18859     18858     18860     18859     18860
     18861     18862     18861     18863     18862     18863     18864     18865
     18864     18866     18865     18866     18867     18868     18867     18869
     18868     18869     18870     18871     18870     18872     18871     18872
     18873     18874     18873     18875     18874     18875     18876     18877
     18876     18878     18877     18878     18879     18880     18879     18881
     18880     18881     18882     18883     18882     18884     18883     18884
     18885     18886     18885     18887     18886     18887     18888     18889
     18888     18890     18889     18890     18891     18892     18891     18893
     18892     18893     18894     18895     18894     18896     18895     18896
     18897     18898     18897     18899     18898     18899     18900     18901
     18900     18902     18901     18902     18903     18904     18903     18905
     18904     18905     18906     18907     18906     18908     18907     18908
     18909     18910     18909     18911     18910     18911     18912     18913
     18912     18914     18913     18914     18915     18916     18915     18917
     18916     18917     18918     18919     18918     18920     18919     18920
     18921     18922     18921     18923     18922     18923     18924     18925
     18924     18926     18925     18926     18927     18928     18927     18929
     18928     18929     18930     18931     18930     18932     18931     18932
     18933     18934     18933     18935     18934     18935     18936     18937
     18936     18938     18937     18938     18939     18940     18939     18941
     18940     18941     18942     18943     18942     18944     18943     18944
     18945     18946     18945     18947     18946     18947     18948     18949
     18948     18950     18949     18950     18951     18952     18951     18953
     18952     18953     18954     18955     18954     18956     18955     18956
     18957     18958     18957     18959     18958     18959     18960     18961
     18960     18962     18961     18962     18963     18964     18963     18965
     18964     18965     18966     18967     18966     18968     18967     18968
     18969     18970     18969     18971     18970     18971     18972     18973
     18972     18974     18973     18974     18975     18976     18975     18977
     18976     18977     18978     18979     18978     18980     18979     18980
     18981     18982     18981     18983     18982     18983     18984     18985
     18984     18986     18985     18986     18987     18988     18987     18989
     18988     18989     18990     18991     18990     18992     18991     18992
     18993     18994     18993     18995     18994     18995     18996     18997
     18996     18998     18997     18998     18999     19000     18999     19001
     19000     19001     19002     19003     19002     19004     19003     19004
     19005     19006     19005     19007     19006     19007     19008     19009
     19008     19010     19009     19010     19011     19012     19011     19013
     19012     19013     19014     19015     19014     19016     19015     19016
     19017     19018     19017     19019     19018     19019     19020     19021
     19020     19022     19021     19022     19023     19024     19023     19025
     19024     19025     19026     19027     19026     19028     19027     19028
     19029     19030     19029     19031     19030     19031     19032     19033
     19032     19034     19033     19034     19035     19036     19035     19037
     19036     19037     19038     19039     19038     19040     19039     19040
     19041     19042     19041     19043     19042     19043     19044     19045
     19044     19046     19045     19046     19047     19048     19047     19049
     19048     19049     19050     19051     19050     19052     19051     19052
     19053     19054     19053     19055     19054     19055     19056     19057
     19056     19058     19057     19058     19059     19060     19059     19061
     19060     19061     19062     19063     19062     19064     19063     19064
     19065     19066     19065     19067     19066     19067     19068     19069
     19068     19070     19069     19070     19071     19072     19071     19073
     19072     19073     19074     19075     19074     19076     19075     19076
     19077     19078     19077     19079     19078     19079     19080     19081
     19080     19082     19081     19082     19083     19084     19083     19085
     19084     19085     19086     19087     19086     19088     19087     19088
     19089     19090     19089     19091     19090     19091     19092     19093
     19092     19094     19093     19094     19095     19096     19095     19097
     19096     19097     19098     19099     19098     19100     19099     19100
     19101     19102     19101     19103     19102     19103     19104     19105
     19104     19106     19105     19106     19107     19108     19107     19109
     19108     19109     19110     19111     19110     19112     19111     19112
     19113     19114     19113     19115     19114     19115     19116     19117
     19116     19118     19117     19118     19119     19120     19119     19121
     19120     19121     19122     19123     19122     19124     19123     19124
     19125     19126     19125     19127     19126     19127     19128     19129
     19128     19130     19129     19130     19131     19132     19131     19133
     19132     19133     19134     19135     19134     19136     19135     19136
     19137     19138     19137     19139     19138     19139     19140     19141
     19140     19142     19141     19142     19143     19144     19143     19145
     19144     19145     19146     19147     19146     19148     19147     19148
     19149     19150     19149     19151     19150     19151     19152     19153
     19152     19154     19153     19154     19155     19156     19155     19157
     19156     19157     19158     19159     19158     19160     19159     19160
     19161     19162     19161     19163     19162     19163     19164     19165
     19164     19166     19165     19166     19167     19168     19167     19169
     19168     19169     19170     19171     19170     19172     19171     19172
     19173     19174     19173     19175     19174     19175     19176     19177
     19176     19178     19177     19178     19179     19180     19179     19181
     19180     19181     19182     19183     19182     19184     19183     19184
     19185     19186     19185     19187     19186     19187     19188     19189
     19188     19190     19189     19190     19191     19192     19191     19193
     19192     19193     19194     19195     19194     19196     19195     19196
     19197     19198     19197     19199     19198     19199     19200     19201
     19200     19202     19201     19202     19203     19204     19203     19205
     19204     19205     19206     19207     19206     19208     19207     19208
     19209     19210     19209     19211     19210     19211     19212     19213
     19212     19214     19213     19214     19215     19216     19215     19217
     19216     19217     19218     19219     19218     19220     19219     19220
     19221     19222     19221     19223     19222     19223     19224     19225
     19224     19226     19225     19226     19227     19228     19227     19229
     19228     19229     19230     19231     19230     19232     19231     19232
     19233     19234     19233     19235     19234     19235     19236     19237
     19236     19238     19237     19238     19239     19240     19239     19241
     19240     19241     19242     19243     19242     19244     19243     19244
     19245     19246     19245     19247     19246     19247     19248     19249
     19248     19250     19249     19250     19251     19252     19251     19253
     19252     19253     19254     19255     19254     19256     19255     19256
     19257     19258     19257     19259     19258     19259     19260     19261
     19260     19262     19261     19262     19263     19264     19263     19265
     19264     19265     19266     19267     19266     19268     19267     19268
     19269     19270     19269     19271     19270     19271     19272     19273
     19272     19274     19273     19274     19275     19276     19275     19277
     19276     19277     19278     19279     19278     19280     19279     19280
     19281     19282     19281     19283     19282     19283     19284     19285
     19284     19286     19285     19286     19287     19288     19287     19289
     19288     19289     19290     19291     19290     19292     19291     19292
     19293     19294     19293     19295     19294     19295     19296     19297
     19296     19298     19297     19298     19299     19300     19299     19301
     19300     19301     19302     19303     19302     19304     19303     19304
     19305     19306     19305     19307     19306     19307     19308     19309
     19308     19310     19309     19310     19311     19312     19311     19313
     19312     19313     19314     19315     19314     19316     19315     19316
     19317     19318     19317     19319     19318     19319     19320     19321
     19320     19322     19321     19322     19323     19324     19323     19325
     19324     19325     19326     19327     19326     19328     19327     19328
     19329     19330     19329     19331     19330     19331     19332     19333
     19332     19334     19333     19334     19335     19336     19335     19337
     19336     19337     19338     19339     19338     19340     19339     19340
     19341     19342     19341     19343     19342     19343     19344     19345
     19344     19346     19345     19346     19347     19348     19347     19349
     19348     19349     19350     19351     19350     19352     19351     19352
     19353     19354     19353     19355     19354     19355     19356     19357
     19356     19358     19357     19358     19359     19360     19359     19361
     19360     19361     19362     19363     19362     19364     19363     19364
     19365     19366     19365     19367     19366     19367     19368     19369
     19368     19370     19369     19370     19371     19372     19371     19373
     19372     19373     19374     19375     19374     19376     19375     19376
     19377     19378     19377     19379     19378     19379     19380     19381
     19380     19382     19381     19382     19383     19384     19383     19385
     19384     19385     19386     19387     19386     19388     19387     19388
     19389     19390     19389     19391     19390     19391     19392     19393
     19392     19394     19393     19394     19395     19396     19395     19397
     19396     19397     19398     19399     19398     19400     19399     19400
     19401     19402     19401     19403     19402     19403     19404     19405
     19404     19406     19405     19406     19407     19408     19407     19409
     19408     19409     19410     19411     19410     19412     19411     19412
     19413     19414     19413     19415     19414     19415     19416     19417
     19416     19418     19417     19418     19419     19420     19419     19421
     19420     19421     19422     19423     19422     19424     19423     19424
     19425     19426     19425     19427     19426     19427     19428     19429
     19428     19430     19429     19430     19431     19432     19431     19433
     19432     19433     19434     19435     19434     19436     19435     19436
     19437     19438     19437     19439     19438     19439     19440     19441
     19440     19442     19441     19442     19443     19444     19443     19445
     19444     19445     19446     19447     19446     19448     19447     19448
     19449     19450     19449     19451     19450     19451     19452     19453
     19452     19454     19453     19454     19455     19456     19455     19457
     19456     19457     19458     19459     19458     19460     19459     19460
     19461     19462     19461     19463     19462     19463     19464     19465
     19464     19466     19465     19466     19467     19468     19467     19469
     19468     19469     19470     19471     19470     19472     19471     19472
     19473     19474     19473     19475     19474     19475     19476     19477
     19476     19478     19477     19478     19479     19480     19479     19481
     19480     19481     19482     19483     19482     19484     19483     19484
     19485     19486     19485     19487     19486     19487     19488     19489
     19488     19490     19489     19490     19491     19492     19491     19493
     19492     19493     19494     19495     19494     19496     19495     19496
     19497     19498     19497     19499     19498     19499     19500     19501
     19500     19502     19501     19502     19503     19504     19503     19505
     19504     19505     19506     19507     19506     19508     19507     19508
     19509     19510     19509     19511     19510     19511     19512     19513
     19512     19514     19513     19514     19515     19516     19515     19517
     19516     19517     19518     19519     19518     19520     19519     19520
     19521     19522     19521     19523     19522     19523     19524     19525
     19524     19526     19525     19526     19527     19528     19527     19529
     19528     19529     19530     19531     19530     19532     19531     19532
     19533     19534     19533     19535     19534     19535     19536     19537
     19536     19538     19537     19538     19539     19540     19539     19541
     19540     19541     19542     19543     19542     19544     19543     19544
     19545     19546     19545     19547     19546     19547     19548     19549
     19548     19550     19549     19550     19551     19552     19551     19553
     19552     19553     19554     19555     19554     19556     19555     19556
     19557     19558     19557     19559     19558     19559     19560     19561
     19560     19562     19561     19562     19563     19564     19563     19565
     19564     19565     19566     19567     19566     19568     19567     19568
     19569     19570     19569     19571     19570     19571     19572     19573
     19572     19574     19573     19574     19575     19576     19575     19577
     19576     19577     19578     19579     19578     19580     19579     19580
     19581     19582     19581     19583     19582     19583     19584     19585
     19584     19586     19585     19586     19587     19588     19587     19589
     19588     19589     19590     19591     19590     19592     19591     19592
     19593     19594     19593     19595     19594     19595     19596     19597
     19596     19598     19597     19598     19599     19600     19599     19601
     19600     19601     19602     19603     19602     19604     19603     19604
     19605     19606     19605     19607     19606     19607     19608     19609
     19608     19610     19609     19610     19611     19612     19611     19613
     19612     19613     19614     19615     19614     19616     19615     19616
     19617     19618     19617     19619     19618     19619     19620     19621
     19620     19622     19621     19622     19623     19624     19623     19625
     19624     19625     19626     19627     19626     19628     19627     19628
     19629     19630     19629     19631     19630     19631     19632     19633
     19632     19634     19633     19634     19635     19636     19635     19637
     19636     19637     19638     19639     19638     19640     19639     19640
     19641     19642     19641     19643     19642     19643     19644     19645
     19644     19646     19645     19646     19647     19648     19647     19649
     19648     19649     19650     19651     19650     19652     19651     19652
     19653     19654     19653     19655     19654     19655     19656     19657
     19656     19658     19657     19658     19659     19660     19659     19661
     19660     19661     19662     19663     19662     19664     19663     19664
     19665     19666     19665     19667     19666     19667     19668     19669
     19668     19670     19669     19670     19671     19672     19671     19673
     19672     19673     19674     19675     19674     19676     19675     19676
     19677     19678     19677     19679     19678     19679     19680     19681
     19680     19682     19681     19682     19683     19684     19683     19685
     19684     19685     19686     19687     19686     19688     19687     19688
     19689     19690     19689     19691     19690     19691     19692     19693
     19692     19694     19693     19694     19695     19696     19695     19697
     19696     19697     19698     19699     19698     19700     19699     19700
     19701     19702     19701     19703     19702     19703     19704     19705
     19704     19706     19705     19706     19707     19708     19707     19709
     19708     19709     19710     19711     19710     19712     19711     19712
     19713     19714     19713     19715     19714     19715     19716     19717
     19716     19718     19717     19718     19719     19720     19719     19721
     19720     19721     19722     19723     19722     19724     19723     19724
     19725     19726     19725     19727     19726     19727     19728     19729
     19728     19730     19729     19730     19731     19732     19731     19733
     19732     19733     19734     19735     19734     19736     19735     19736
     19737     19738     19737     19739     19738     19739     19740     19741
     19740     19742     19741     19742     19743     19744     19743     19745
     19744     19745     19746     19747     19746     19748     19747     19748
     19749     19750     19749     19751     19750     19751     19752     19753
     19752     19754     19753     19754     19755     19756     19755     19757
     19756     19757     19758     19759     19758     19760     19759     19760
     19761     19762     19761     19763     19762     19763     19764     19765
     19764     19766     19765     19766     19767     19768     19767     19769
     19768     19769     19770     19771     19770     19772     19771     19772
     19773     19774     19773     19775     19774     19775     19776     19777
     19776     19778     19777     19778     19779     19780     19779     19781
     19780     19781     19782     19783     19782     19784     19783     19784
     19785     19786     19785     19787     19786     19787     19788     19789
     19788     19790     19789     19790     19791     19792     19791     19793
     19792     19793     19794     19795     19794     19796     19795     19796
     19797     19798     19797     19799     19798     19799     19800     19801
     19800     19802     19801     19802     19803     19804     19803     19805
     19804     19805     19806     19807     19806     19808     19807     19808
     19809     19810     19809     19811     19810     19811     19812     19813
     19812     19814     19813     19814     19815     19816     19815     19817
     19816     19817     19818     19819     19818     19820     19819     19820
     19821     19822     19821     19823     19822     19823     19824     19825
     19824     19826     19825     19826     19827     19828     19827     19829
     19828     19829     19830     19831     19830     19832     19831     19832
     19833     19834     19833     19835     19834     19835     19836     19837
     19836     19838     19837     19838     19839     19840     19839     19841
     19840     19841     19842     19843     19842     19844     19843     19844
     19845     19846     19845     19847     19846     19847     19848     19849
     19848     19850     19849     19850     19851     19852     19851     19853
     19852     19853     19854     19855     19854     19856     19855     19856
     19857     19858     19857     19859     19858     19859     19860     19861
     19860     19862     19861     19862     19863     19864     19863     19865
     19864     19865     19866     19867     19866     19868     19867     19868
     19869     19870     19869     19871     19870     19871     19872     19873
     19872     19874     19873     19874     19875     19876     19875     19877
     19876     19877     19878     19879     19878     19880     19879     19880
     19881     19882     19881     19883     19882     19883     19884     19885
     19884     19886     19885     19886     19887     19888     19887     19889
     19888     19889     19890     19891     19890     19892     19891     19892
     19893     19894     19893     19895     19894     19895     19896     19897
     19896     19898     19897     19898     19899     19900     19899     19901
     19900     19901     19902     19903     19902     19904     19903     19904
     19905     19906     19905     19907     19906     19907     19908     19909
     19908     19910     19909     19910     19911     19912     19911     19913
     19912     19913     19914     19915     19914     19916     19915     19916
     19917     19918     19917     19919     19918     19919     19920     19921
     19920     19922     19921     19922     19923     19924     19923     19925
     19924     19925     19926     19927     19926     19928     19927     19928
     19929     19930     19929     19931     19930     19931     19932     19933
     19932     19934     19933     19934     19935     19936     19935     19937
     19936     19937     19938     19939     19938     19940     19939     19940
     19941     19942     19941     19943     19942     19943     19944     19945
     19944     19946     19945     19946     19947     19948     19947     19949
     19948     19949     19950     19951     19950     19952     19951     19952
     19953     19954     19953     19955     19954     19955     19956     19957
     19956     19958     19957     19958     19959     19960     19959     19961
     19960     19961     19962     19963     19962     19964     19963     19964
     19965     19966     19965     19967     19966     19967     19968     19969
     19968     19970     19969     19970     19971     19972     19971     19973
     19972     19973     19974     19975     19974     19976     19975     19976
     19977     19978     19977     19979     19978     19979     19980     19981
     19980     19982     19981     19982     19983     19984     19983     19985
     19984     19985     19986     19987     19986     19988     19987     19988
     19989     19990     19989     19991     19990     19991     19992     19993
     19992     19994     19993     19994     19995     19996     19995     19997
     19996     19997     19998     19999     19998     20000     19999     20000
     20001     20002     20001     20003     20002     20003     20004     20005
     20004     20006     20005     20006     20007     20008     20007     20009
     20008     20009     20010     20011     20010     20012     20011     20012
     20013     20014     20013     20015     20014     20015     20016     20017
     20016     20018     20017     20018     20019     20020     20019     20021
     20020     20021     20022     20023     20022     20024     20023     20024
     20025     20026     20025     20027     20026     20027     20028     20029
     20028     20030     20029     20030     20031     20032     20031     20033
     20032     20033     20034     20035     20034     20036     20035     20036
     20037     20038     20037     20039     20038     20039     20040     20041
     20040     20042     20041     20042     20043     20044     20043     20045
     20044     20045     20046     20047     20046     20048     20047     20048
     20049     20050     20049     20051     20050     20051     20052     20053
     20052     20054     20053     20054     20055     20056     20055     20057
     20056     20057     20058     20059     20058     20060     20059     20060
     20061     20062     20061     20063     20062     20063     20064     20065
     20064     20066     20065     20066     20067     20068     20067     20069
     20068     20069     20070     20071     20070     20072     20071     20072
     20073     20074     20073     20075     20074     20075     20076     20077
     20076     20078     20077     20078     20079     20080     20079     20081
     20080     20081     20082     20083     20082     20084     20083     20084
     20085     20086     20085     20087     20086     20087     20088     20089
     20088     20090     20089     20090     20091     20092     20091     20093
     20092     20093     20094     20095     20094     20096     20095     20096
     20097     20098     20097     20099     20098     20099     20100     20101
     20100     20102     20101     20102     20103     20104     20103     20105
     20104     20105     20106     20107     20106     20108     20107     20108
     20109     20110     20109     20111     20110     20111     20112     20113
     20112     20114     20113     20114     20115     20116     20115     20117
     20116     20117     20118     20119     20118     20120     20119     20120
     20121     20122     20121     20123     20122     20123     20124     20125
     20124     20126     20125     20126     20127     20128     20127     20129
     20128     20129     20130     20131     20130     20132     20131     20132
     20133     20134     20133     20135     20134     20135     20136     20137
     20136     20138     20137     20138     20139     20140     20139     20141
     20140     20141     20142     20143     20142     20144     20143     20144
     20145     20146     20145     20147     20146     20147     20148     20149
     20148     20150     20149     20150     20151     20152     20151     20153
     20152     20153     20154     20155     20154     20156     20155     20156
     20157     20158     20157     20159     20158     20159     20160     20161
     20160     20162     20161     20162     20163     20164     20163     20165
     20164     20165     20166     20167     20166     20168     20167     20168
     20169     20170     20169     20171     20170     20171     20172     20173
     20172     20174     20173     20174     20175     20176     20175     20177
     20176     20177     20178     20179     20178     20180     20179     20180
     20181     20182     20181     20183     20182     20183     20184     20185
     20184     20186     20185     20186     20187     20188     20187     20189
     20188     20189     20190     20191     20190     20192     20191     20192
     20193     20194     20193     20195     20194     20195     20196     20197
     20196     20198     20197     20198     20199     20200     20199     20201
     20200     20201     20202     20203     20202     20204     20203     20204
     20205     20206     20205     20207     20206     20207     20208     20209
     20208     20210     20209     20210     20211     20212     20211     20213
     20212     20213     20214     20215     20214     20216     20215     20216
     20217     20218     20217     20219     20218     20219     20220     20221
     20220     20222     20221     20222     20223     20224     20223     20225
     20224     20225     20226     20227     20226     20228     20227     20228
     20229     20230     20229     20231     20230     20231     20232     20233
     20232     20234     20233     20234     20235     20236     20235     20237
     20236     20237     20238     20239     20238     20240     20239     20240
     20241     20242     20241     20243     20242     20243     20244     20245
     20244     20246     20245     20246     20247     20248     20247     20249
     20248     20249     20250     20251     20250     20252     20251     20252
     20253     20254     20253     20255     20254     20255     20256     20257
     20256     20258     20257     20258     20259     20260     20259     20261
     20260     20261     20262     20263     20262     20264     20263     20264
     20265     20266     20265     20267     20266     20267     20268     20269
     20268     20270     20269     20270     20271     20272     20271     20273
     20272     20273     20274     20275     20274     20276     20275     20276
     20277     20278     20277     20279     20278     20279     20280     20281
     20280     20282     20281     20282     20283     20284     20283     20285
     20284     20285     20286     20287     20286     20288     20287     20288
     20289     20290     20289     20291     20290     20291     20292     20293
     20292     20294     20293     20294     20295     20296     20295     20297
     20296     20297     20298     20299     20298     20300     20299     20300
     20301     20302     20301     20303     20302     20303     20304     20305
     20304     20306     20305     20306     20307     20308     20307     20309
     20308     20309     20310     20311     20310     20312     20311     20312
     20313     20314     20313     20315     20314     20315     20316     20317
     20316     20318     20317     20318     20319     20320     20319     20321
     20320     20321     20322     20323     20322     20324     20323     20324
     20325     20326     20325     20327     20326     20327     20328     20329
     20328     20330     20329     20330     20331     20332     20331     20333
     20332     20333     20334     20335     20334     20336     20335     20336
     20337     20338     20337     20339     20338     20339     20340     20341
     20340     20342     20341     20342     20343     20344     20343     20345
     20344     20345     20346     20347     20346     20348     20347     20348
     20349     20350     20349     20351     20350     20351     20352     20353
     20352     20354     20353     20354     20355     20356     20355     20357
     20356     20357     20358     20359     20358     20360     20359     20360
     20361     20362     20361     20363     20362     20363     20364     20365
     20364     20366     20365     20366     20367     20368     20367     20369
     20368     20369     20370     20371     20370     20372     20371     20372
     20373     20374     20373     20375     20374     20375     20376     20377
     20376     20378     20377     20378     20379     20380     20379     20381
     20380     20381     20382     20383     20382     20384     20383     20384
     20385     20386     20385     20387     20386     20387     20388     20389
     20388     20390     20389     20390     20391     20392     20391     20393
     20392     20393     20394     20395     20394     20396     20395     20396
     20397     20398     20397     20399     20398     20399     20400     20401
     20400     20402     20401     20402     20403     20404     20403     20405
     20404     20405     20406     20407     20406     20408     20407     20408
     20409     20410     20409     20411     20410     20411     20412     20413
     20412     20414     20413     20414     20415     20416     20415     20417
     20416     20417     20418     20419     20418     20420     20419     20420
     20421     20422     20421     20423     20422     20423     20424     20425
     20424     20426     20425     20426     20427     20428     20427     20429
     20428     20429     20430     20431     20430     20432     20431     20432
     20433     20434     20433     20435     20434     20435     20436     20437
     20436     20438     20437     20438     20439     20440     20439     20441
     20440     20441     20442     20443     20442     20444     20443     20444
     20445     20446     20445     20447     20446     20447     20448     20449
     20448     20450     20449     20450     20451     20452     20451     20453
     20452     20453     20454     20455     20454     20456     20455     20456
     20457     20458     20457     20459     20458     20459     20460     20461
     20460     20462     20461     20462     20463     20464     20463     20465
     20464     20465     20466     20467     20466     20468     20467     20468
     20469     20470     20469     20471     20470     20471     20472     20473
     20472     20474     20473     20474     20475     20476     20475     20477
     20476     20477     20478     20479     20478     20480     20479     20480
     20481     20482     20481     20483     20482     20483     20484     20485
     20484     20486     20485     20486     20487     20488     20487     20489
     20488     20489     20490     20491     20490     20492     20491     20492
     20493     20494     20493     20495     20494     20495     20496     20497
     20496     20498     20497     20498     20499     20500     20499     20501
     20500     20501     20502     20503     20502     20504     20503     20504
     20505     20506     20505     20507     20506     20507     20508     20509
     20508     20510     20509     20510     20511     20512     20511     20513
     20512     20513     20514     20515     20514     20516     20515     20516
     20517     20518     20517     20519     20518     20519     20520     20521
     20520     20522     20521     20522     20523     20524     20523     20525
     20524     20525     20526     20527     20526     20528     20527     20528
     20529     20530     20529     20531     20530     20531     20532     20533
     20532     20534     20533     20534     20535     20536     20535     20537
     20536     20537     20538     20539     20538     20540     20539     20540
     20541     20542     20541     20543     20542     20543     20544     20545
     20544     20546     20545     20546     20547     20548     20547     20549
     20548     20549     20550     20551     20550     20552     20551     20552
     20553     20554     20553     20555     20554     20555     20556     20557
     20556     20558     20557     20558     20559     20560     20559     20561
     20560     20561     20562     20563     20562     20564     20563     20564
     20565     20566     20565     20567     20566     20567     20568     20569
     20568     20570     20569     20570     20571     20572     20571     20573
     20572     20573     20574     20575     20574     20576     20575     20576
     20577     20578     20577     20579     20578     20579     20580     20581
     20580     20582     20581     20582     20583     20584     20583     20585
     20584     20585     20586     20587     20586     20588     20587     20588
     20589     20590     20589     20591     20590     20591     20592     20593
     20592     20594     20593     20594     20595     20596     20595     20597
     20596     20597     20598     20599     20598     20600     20599     20600
     20601     20602     20601     20603     20602     20603     20604     20605
     20604     20606     20605     20606     20607     20608     20607     20609
     20608     20609     20610     20611     20610     20612     20611     20612
     20613     20614     20613     20615     20614     20615     20616     20617
     20616     20618     20617     20618     20619     20620     20619     20621
     20620     20621     20622     20623     20622     20624     20623     20624
     20625     20626     20625     20627     20626     20627     20628     20629
     20628     20630     20629     20630     20631     20632     20631     20633
     20632     20633     20634     20635     20634     20636     20635     20636
     20637     20638     20637     20639     20638     20639     20640     20641
     20640     20642     20641     20642     20643     20644     20643     20645
     20644     20645     20646     20647     20646     20648     20647     20648
     20649     20650     20649     20651     20650     20651     20652     20653
     20652     20654     20653     20654     20655     20656     20655     20657
     20656     20657     20658     20659     20658     20660     20659     20660
     20661     20662     20661     20663     20662     20663     20664     20665
     20664     20666     20665     20666     20667     20668     20667     20669
     20668     20669     20670     20671     20670     20672     20671     20672
     20673     20674     20673     20675     20674     20675     20676     20677
     20676     20678     20677     20678     20679     20680     20679     20681
     20680     20681     20682     20683     20682     20684     20683     20684
     20685     20686     20685     20687     20686     20687     20688     20689
     20688     20690     20689     20690     20691     20692     20691     20693
     20692     20693     20694     20695     20694     20696     20695     20696
     20697     20698     20697     20699     20698     20699     20700     20701
     20700     20702     20701     20702     20703     20704     20703     20705
     20704     20705     20706     20707     20706     20708     20707     20708
     20709     20710     20709     20711     20710     20711     20712     20713
     20712     20714     20713     20714     20715     20716     20715     20717
     20716     20717     20718     20719     20718     20720     20719     20720
     20721     20722     20721     20723     20722     20723     20724     20725
     20724     20726     20725     20726     20727     20728     20727     20729
     20728     20729     20730     20731     20730     20732     20731     20732
     20733     20734     20733     20735     20734     20735     20736     20737
     20736     20738     20737     20738     20739     20740     20739     20741
     20740     20741     20742     20743     20742     20744     20743     20744
     20745     20746     20745     20747     20746     20747     20748     20749
     20748     20750     20749     20750     20751     20752     20751     20753
     20752     20753     20754     20755     20754     20756     20755     20756
     20757     20758     20757     20759     20758     20759     20760     20761
     20760     20762     20761     20762     20763     20764     20763     20765
     20764     20765     20766     20767     20766     20768     20767     20768
     20769     20770     20769     20771     20770     20771     20772     20773
     20772     20774     20773     20774     20775     20776     20775     20777
     20776     20777     20778     20779     20778     20780     20779     20780
     20781     20782     20781     20783     20782     20783     20784     20785
     20784     20786     20785     20786     20787     20788     20787     20789
     20788     20789     20790     20791     20790     20792     20791     20792
     20793     20794     20793     20795     20794     20795     20796     20797
     20796     20798     20797     20798     20799     20800     20799     20801
     20800     20801     20802     20803     20802     20804     20803     20804
     20805     20806     20805     20807     20806     20807     20808     20809
     20808     20810     20809     20810     20811     20812     20811     20813
     20812     20813     20814     20815     20814     20816     20815     20816
     20817     20818     20817     20819     20818     20819     20820     20821
     20820     20822     20821     20822     20823     20824     20823     20825
     20824     20825     20826     20827     20826     20828     20827     20828
     20829     20830     20829     20831     20830     20831     20832     20833
     20832     20834     20833     20834     20835     20836     20835     20837
     20836     20837     20838     20839     20838     20840     20839     20840
     20841     20842     20841     20843     20842     20843     20844     20845
     20844     20846     20845     20846     20847     20848     20847     20849
     20848     20849     20850     20851     20850     20852     20851     20852
     20853     20854     20853     20855     20854     20855     20856     20857
     20856     20858     20857     20858     20859     20860     20859     20861
     20860     20861     20862     20863     20862     20864     20863     20864
     20865     20866     20865     20867     20866     20867     20868     20869
     20868     20870     20869     20870     20871     20872     20871     20873
     20872     20873     20874     20875     20874     20876     20875     20876
     20877     20878     20877     20879     20878     20879     20880     20881
     20880     20882     20881     20882     20883     20884     20883     20885
     20884     20885     20886     20887     20886     20888     20887     20888
     20889     20890     20889     20891     20890     20891     20892     20893
     20892     20894     20893     20894     20895     20896     20895     20897
     20896     20897     20898     20899     20898     20900     20899     20900
     20901     20902     20901     20903     20902     20903     20904     20905
     20904     20906     20905     20906     20907     20908     20907     20909
     20908     20909     20910     20911     20910     20912     20911     20912
     20913     20914     20913     20915     20914     20915     20916     20917
     20916     20918     20917     20918     20919     20920     20919     20921
     20920     20921     20922     20923     20922     20924     20923     20924
     20925     20926     20925     20927     20926     20927     20928     20929
     20928     20930     20929     20930     20931     20932     20931     20933
     20932     20933     20934     20935     20934     20936     20935     20936
     20937     20938     20937     20939     20938     20939     20940     20941
     20940     20942     20941     20942     20943     20944     20943     20945
     20944     20945     20946     20947     20946     20948     20947     20948
     20949     20950     20949     20951     20950     20951     20952     20953
     20952     20954     20953     20954     20955     20956     20955     20957
     20956     20957     20958     20959     20958     20960     20959     20960
     20961     20962     20961     20963     20962     20963     20964     20965
     20964     20966     20965     20966     20967     20968     20967     20969
     20968     20969     20970     20971     20970     20972     20971     20972
     20973     20974     20973     20975     20974     20975     20976     20977
     20976     20978     20977     20978     20979     20980     20979     20981
     20980     20981     20982     20983     20982     20984     20983     20984
     20985     20986     20985     20987     20986     20987     20988     20989
     20988     20990     20989     20990     20991     20992     20991     20993
     20992     20993     20994     20995     20994     20996     20995     20996
     20997     20998     20997     20999     20998     20999     21000     21001
     21000     21002     21001     21002     21003     21004     21003     21005
     21004     21005     21006     21007     21006     21008     21007     21008
     21009     21010     21009     21011     21010     21011     21012     21013
     21012     21014     21013     21014     21015     21016     21015     21017
     21016     21017     21018     21019     21018     21020     21019     21020
     21021     21022     21021     21023     21022     21023     21024     21025
     21024     21026     21025     21026     21027     21028     21027     21029
     21028     21029     21030     21031     21030     21032     21031     21032
     21033     21034     21033     21035     21034     21035     21036     21037
     21036     21038     21037     21038     21039     21040     21039     21041
     21040     21041     21042     21043     21042     21044     21043     21044
     21045     21046     21045     21047     21046     21047     21048     21049
     21048     21050     21049     21050     21051     21052     21051     21053
     21052     21053     21054     21055     21054     21056     21055     21056
     21057     21058     21057     21059     21058     21059     21060     21061
     21060     21062     21061     21062     21063     21064     21063     21065
     21064     21065     21066     21067     21066     21068     21067     21068
     21069     21070     21069     21071     21070     21071     21072     21073
     21072     21074     21073     21074     21075     21076     21075     21077
     21076     21077     21078     21079     21078     21080     21079     21080
     21081     21082     21081     21083     21082     21083     21084     21085
     21084     21086     21085     21086     21087     21088     21087     21089
     21088     21089     21090     21091     21090     21092     21091     21092
     21093     21094     21093     21095     21094     21095     21096     21097
     21096     21098     21097     21098     21099     21100     21099     21101
     21100     21101     21102     21103     21102     21104     21103     21104
     21105     21106     21105     21107     21106     21107     21108     21109
     21108     21110     21109     21110     21111     21112     21111     21113
     21112     21113     21114     21115     21114     21116     21115     21116
     21117     21118     21117     21119     21118     21119     21120     21121
     21120     21122     21121     21122     21123     21124     21123     21125
     21124     21125     21126     21127     21126     21128     21127     21128
     21129     21130     21129     21131     21130     21131     21132     21133
     21132     21134     21133     21134     21135     21136     21135     21137
     21136     21137     21138     21139     21138     21140     21139     21140
     21141     21142     21141     21143     21142     21143     21144     21145
     21144     21146     21145     21146     21147     21148     21147     21149
     21148     21149     21150     21151     21150     21152     21151     21152
     21153     21154     21153     21155     21154     21155     21156     21157
     21156     21158     21157     21158     21159     21160     21159     21161
     21160     21161     21162     21163     21162     21164     21163     21164
     21165     21166     21165     21167     21166     21167     21168     21169
     21168     21170     21169     21170     21171     21172     21171     21173
     21172     21173     21174     21175     21174     21176     21175     21176
     21177     21178     21177     21179     21178     21179     21180     21181
     21180     21182     21181     21182     21183     21184     21183     21185
     21184     21185     21186     21187     21186     21188     21187     21188
     21189     21190     21189     21191     21190     21191     21192     21193
     21192     21194     21193     21194     21195     21196     21195     21197
     21196     21197     21198     21199     21198     21200     21199     21200
     21201     21202     21201     21203     21202     21203     21204     21205
     21204     21206     21205     21206     21207     21208     21207     21209
     21208     21209     21210     21211     21210     21212     21211     21212
     21213     21214     21213     21215     21214     21215     21216     21217
     21216     21218     21217     21218     21219     21220     21219     21221
     21220     21221     21222     21223     21222     21224     21223     21224
     21225     21226     21225     21227     21226     21227     21228     21229
     21228     21230     21229     21230     21231     21232     21231     21233
     21232     21233     21234     21235     21234     21236     21235     21236
     21237     21238     21237     21239     21238     21239     21240     21241
     21240     21242     21241     21242     21243     21244     21243     21245
     21244     21245     21246     21247     21246     21248     21247     21248
     21249     21250     21249     21251     21250     21251     21252     21253
     21252     21254     21253     21254     21255     21256     21255     21257
     21256     21257     21258     21259     21258     21260     21259     21260
     21261     21262     21261     21263     21262     21263     21264     21265
     21264     21266     21265     21266     21267     21268     21267     21269
     21268     21269     21270     21271     21270     21272     21271     21272
     21273     21274     21273     21275     21274     21275     21276     21277
     21276     21278     21277     21278     21279     21280     21279     21281
     21280     21281     21282     21283     21282     21284     21283     21284
     21285     21286     21285     21287     21286     21287     21288     21289
     21288     21290     21289     21290     21291     21292     21291     21293
     21292     21293     21294     21295     21294     21296     21295     21296
     21297     21298     21297     21299     21298     21299     21300     21301
     21300     21302     21301     21302     21303     21304     21303     21305
     21304     21305     21306     21307     21306     21308     21307     21308
     21309     21310     21309     21311     21310     21311     21312     21313
     21312     21314     21313     21314     21315     21316     21315     21317
     21316     21317     21318     21319     21318     21320     21319     21320
     21321     21322     21321     21323     21322     21323     21324     21325
     21324     21326     21325     21326     21327     21328     21327     21329
     21328     21329     21330     21331     21330     21332     21331     21332
     21333     21334     21333     21335     21334     21335     21336     21337
     21336     21338     21337     21338     21339     21340     21339     21341
     21340     21341     21342     21343     21342     21344     21343     21344
     21345     21346     21345     21347     21346     21347     21348     21349
     21348     21350     21349     21350     21351     21352     21351     21353
     21352     21353     21354     21355     21354     21356     21355     21356
     21357     21358     21357     21359     21358     21359     21360     21361
     21360     21362     21361     21362     21363     21364     21363     21365
     21364     21365     21366     21367     21366     21368     21367     21368
     21369     21370     21369     21371     21370     21371     21372     21373
     21372     21374     21373     21374     21375     21376     21375     21377
     21376     21377     21378     21379     21378     21380     21379     21380
     21381     21382     21381     21383     21382     21383     21384     21385
     21384     21386     21385     21386     21387     21388     21387     21389
     21388     21389     21390     21391     21390     21392     21391     21392
     21393     21394     21393     21395     21394     21395     21396     21397
     21396     21398     21397     21398     21399     21400     21399     21401
     21400     21401     21402     21403     21402     21404     21403     21404
     21405     21406     21405     21407     21406     21407     21408     21409
     21408     21410     21409     21410     21411     21412     21411     21413
     21412     21413     21414     21415     21414     21416     21415     21416
     21417     21418     21417     21419     21418     21419     21420     21421
     21420     21422     21421     21422     21423     21424     21423     21425
     21424     21425     21426     21427     21426     21428     21427     21428
     21429     21430     21429     21431     21430     21431     21432     21433
     21432     21434     21433     21434     21435     21436     21435     21437
     21436     21437     21438     21439     21438     21440     21439     21440
     21441     21442     21441     21443     21442     21443     21444     21445
     21444     21446     21445     21446     21447     21448     21447     21449
     21448     21449     21450     21451     21450     21452     21451     21452
     21453     21454     21453     21455     21454     21455     21456     21457
     21456     21458     21457     21458     21459     21460     21459     21461
     21460     21461     21462     21463     21462     21464     21463     21464
     21465     21466     21465     21467     21466     21467     21468     21469
     21468     21470     21469     21470     21471     21472     21471     21473
     21472     21473     21474     21475     21474     21476     21475     21476
     21477     21478     21477     21479     21478     21479     21480     21481
     21480     21482     21481     21482     21483     21484     21483     21485
     21484     21485     21486     21487     21486     21488     21487     21488
     21489     21490     21489     21491     21490     21491     21492     21493
     21492     21494     21493     21494     21495     21496     21495     21497
     21496     21497     21498     21499     21498     21500     21499     21500
     21501     21502     21501     21503     21502     21503     21504     21505
     21504     21506     21505     21506     21507     21508     21507     21509
     21508     21509     21510     21511     21510     21512     21511     21512
     21513     21514     21513     21515     21514     21515     21516     21517
     21516     21518     21517     21518     21519     21520     21519     21521
     21520     21521     21522     21523     21522     21524     21523     21524
     21525     21526     21525     21527     21526     21527     21528     21529
     21528     21530     21529     21530     21531     21532     21531     21533
     21532     21533     21534     21535     21534     21536     21535     21536
     21537     21538     21537     21539     21538     21539     21540     21541
     21540     21542     21541     21542     21543     21544     21543     21545
     21544     21545     21546     21547     21546     21548     21547     21548
     21549     21550     21549     21551     21550     21551     21552     21553
     21552     21554     21553     21554     21555     21556     21555     21557
     21556     21557     21558     21559     21558     21560     21559     21560
     21561     21562     21561     21563     21562     21563     21564     21565
     21564     21566     21565     21566     21567     21568     21567     21569
     21568     21569     21570     21571     21570     21572     21571     21572
     21573     21574     21573     21575     21574     21575     21576     21577
     21576     21578     21577     21578     21579     21580     21579     21581
     21580     21581     21582     21583     21582     21584     21583     21584
     21585     21586     21585     21587     21586     21587     21588     21589
     21588     21590     21589     21590     21591     21592     21591     21593
     21592     21593     21594     21595     21594     21596     21595     21596
     21597     21598     21597     21599     21598     21599     21600     21601
     21600     21602     21601     21602     21603     21604     21603     21605
     21604     21605     21606     21607     21606     21608     21607     21608
     21609     21610     21609     21611     21610     21611     21612     21613
     21612     21614     21613     21614     21615     21616     21615     21617
     21616     21617     21618     21619     21618     21620     21619     21620
     21621     21622     21621     21623     21622     21623     21624     21625
     21624     21626     21625     21626     21627     21628     21627     21629
     21628     21629     21630     21631     21630     21632     21631     21632
     21633     21634     21633     21635     21634     21635     21636     21637
     21636     21638     21637     21638     21639     21640     21639     21641
     21640     21641     21642     21643     21642     21644     21643     21644
     21645     21646     21645     21647     21646     21647     21648     21649
     21648     21650     21649     21650     21651     21652     21651     21653
     21652     21653     21654     21655     21654     21656     21655     21656
     21657     21658     21657     21659     21658     21659     21660     21661
     21660     21662     21661     21662     21663     21664     21663     21665
     21664     21665     21666     21667     21666     21668     21667     21668
     21669     21670     21669     21671     21670     21671     21672     21673
     21672     21674     21673     21674     21675     21676     21675     21677
     21676     21677     21678     21679     21678     21680     21679     21680
     21681     21682     21681     21683     21682     21683     21684     21685
     21684     21686     21685     21686     21687     21688     21687     21689
     21688     21689     21690     21691     21690     21692     21691     21692
     21693     21694     21693     21695     21694     21695     21696     21697
     21696     21698     21697     21698     21699     21700     21699     21701
     21700     21701     21702     21703     21702     21704     21703     21704
     21705     21706     21705     21707     21706     21707     21708     21709
     21708     21710     21709     21710     21711     21712     21711     21713
     21712     21713     21714     21715     21714     21716     21715     21716
     21717     21718     21717     21719     21718     21719     21720     21721
     21720     21722     21721     21722     21723     21724     21723     21725
     21724     21725     21726     21727     21726     21728     21727     21728
     21729     21730     21729     21731     21730     21731     21732     21733
     21732     21734     21733     21734     21735     21736     21735     21737
     21736     21737     21738     21739     21738     21740     21739     21740
     21741     21742     21741     21743     21742     21743     21744     21745
     21744     21746     21745     21746     21747     21748     21747     21749
     21748     21749     21750     21751     21750     21752     21751     21752
     21753     21754     21753     21755     21754     21755     21756     21757
     21756     21758     21757     21758     21759     21760     21759     21761
     21760     21761     21762     21763     21762     21764     21763     21764
     21765     21766     21765     21767     21766     21767     21768     21769
     21768     21770     21769     21770     21771     21772     21771     21773
     21772     21773     21774     21775     21774     21776     21775     21776
     21777     21778     21777     21779     21778     21779     21780     21781
     21780     21782     21781     21782     21783     21784     21783     21785
     21784     21785     21786     21787     21786     21788     21787     21788
     21789     21790     21789     21791     21790     21791     21792     21793
     21792     21794     21793     21794     21795     21796     21795     21797
     21796     21797     21798     21799     21798     21800     21799     21800
     21801     21802     21801     21803     21802     21803     21804     21805
     21804     21806     21805     21806     21807     21808     21807     21809
     21808     21809     21810     21811     21810     21812     21811     21812
     21813     21814     21813     21815     21814     21815     21816     21817
     21816     21818     21817     21818     21819     21820     21819     21821
     21820     21821     21822     21823     21822     21824     21823     21824
     21825     21826     21825     21827     21826     21827     21828     21829
     21828     21830     21829     21830     21831     21832     21831     21833
     21832     21833     21834     21835     21834     21836     21835     21836
     21837     21838     21837     21839     21838     21839     21840     21841
     21840     21842     21841     21842     21843     21844     21843     21845
     21844     21845     21846     21847     21846     21848     21847     21848
     21849     21850     21849     21851     21850     21851     21852     21853
     21852     21854     21853     21854     21855     21856     21855     21857
     21856     21857     21858     21859     21858     21860     21859     21860
     21861     21862     21861     21863     21862     21863     21864     21865
     21864     21866     21865     21866     21867     21868     21867     21869
     21868     21869     21870     21871     21870     21872     21871     21872
     21873     21874     21873     21875     21874     21875     21876     21877
     21876     21878     21877     21878     21879     21880     21879     21881
     21880     21881     21882     21883     21882     21884     21883     21884
     21885     21886     21885     21887     21886     21887     21888     21889
     21888     21890     21889     21890     21891     21892     21891     21893
     21892     21893     21894     21895     21894     21896     21895     21896
     21897     21898     21897     21899     21898     21899     21900     21901
     21900     21902     21901     21902     21903     21904     21903     21905
     21904     21905     21906     21907     21906     21908     21907     21908
     21909     21910     21909     21911     21910     21911     21912     21913
     21912     21914     21913     21914     21915     21916     21915     21917
     21916     21917     21918     21919     21918     21920     21919     21920
     21921     21922     21921     21923     21922     21923     21924     21925
     21924     21926     21925     21926     21927     21928     21927     21929
     21928     21929     21930     21931     21930     21932     21931     21932
     21933     21934     21933     21935     21934     21935     21936     21937
     21936     21938     21937     21938     21939     21940     21939     21941
     21940     21941     21942     21943     21942     21944     21943     21944
     21945     21946     21945     21947     21946     21947     21948     21949
     21948     21950     21949     21950     21951     21952     21951     21953
     21952     21953     21954     21955     21954     21956     21955     21956
     21957     21958     21957     21959     21958     21959     21960     21961
     21960     21962     21961     21962     21963     21964     21963     21965
     21964     21965     21966     21967     21966     21968     21967     21968
     21969     21970     21969     21971     21970     21971     21972     21973
     21972     21974     21973     21974     21975     21976     21975     21977
     21976     21977     21978     21979     21978     21980     21979     21980
     21981     21982     21981     21983     21982     21983     21984     21985
     21984     21986     21985     21986     21987     21988     21987     21989
     21988     21989     21990     21991     21990     21992     21991     21992
     21993     21994     21993     21995     21994     21995     21996     21997
     21996     21998     21997     21998     21999     22000     21999     22001
     22000     22001     22002     22003     22002     22004     22003     22004
     22005     22006     22005     22007     22006     22007     22008     22009
     22008     22010     22009     22010     22011     22012     22011     22013
     22012     22013     22014     22015     22014     22016     22015     22016
     22017     22018     22017     22019     22018     22019     22020     22021
     22020     22022     22021     22022     22023     22024     22023     22025
     22024     22025     22026     22027     22026     22028     22027     22028
     22029     22030     22029     22031     22030     22031     22032     22033
     22032     22034     22033     22034     22035     22036     22035     22037
     22036     22037     22038     22039     22038     22040     22039     22040
     22041     22042     22041     22043     22042     22043     22044     22045
     22044     22046     22045     22046     22047     22048     22047     22049
     22048     22049     22050     22051     22050     22052     22051     22052
     22053     22054     22053     22055     22054     22055     22056     22057
     22056     22058     22057     22058     22059     22060     22059     22061
     22060     22061     22062     22063     22062     22064     22063     22064
     22065     22066     22065     22067     22066     22067     22068     22069
     22068     22070     22069     22070     22071     22072     22071     22073
     22072     22073     22074     22075     22074     22076     22075     22076
     22077     22078     22077     22079     22078     22079     22080     22081
     22080     22082     22081     22082     22083     22084     22083     22085
     22084     22085     22086     22087     22086     22088     22087     22088
     22089     22090     22089     22091     22090     22091     22092     22093
     22092     22094     22093     22094     22095     22096     22095     22097
     22096     22097     22098     22099     22098     22100     22099     22100
     22101     22102     22101     22103     22102     22103     22104     22105
     22104     22106     22105     22106     22107     22108     22107     22109
     22108     22109     22110     22111     22110     22112     22111     22112
     22113     22114     22113     22115     22114     22115     22116     22117
     22116     22118     22117     22118     22119     22120     22119     22121
     22120     22121     22122     22123     22122     22124     22123     22124
     22125     22126     22125     22127     22126     22127     22128     22129
     22128     22130     22129     22130     22131     22132     22131     22133
     22132     22133     22134     22135     22134     22136     22135     22136
     22137     22138     22137     22139     22138     22139     22140     22141
     22140     22142     22141     22142     22143     22144     22143     22145
     22144     22145     22146     22147     22146     22148     22147     22148
     22149     22150     22149     22151     22150     22151     22152     22153
     22152     22154     22153     22154     22155     22156     22155     22157
     22156     22157     22158     22159     22158     22160     22159     22160
     22161     22162     22161     22163     22162     22163     22164     22165
     22164     22166     22165     22166     22167     22168     22167     22169
     22168     22169     22170     22171     22170     22172     22171     22172
     22173     22174     22173     22175     22174     22175     22176     22177
     22176     22178     22177     22178     22179     22180     22179     22181
     22180     22181     22182     22183     22182     22184     22183     22184
     22185     22186     22185     22187     22186     22187     22188     22189
     22188     22190     22189     22190     22191     22192     22191     22193
     22192     22193     22194     22195     22194     22196     22195     22196
     22197     22198     22197     22199     22198     22199     22200     22201
     22200     22202     22201     22202     22203     22204     22203     22205
     22204     22205     22206     22207     22206     22208     22207     22208
     22209     22210     22209     22211     22210     22211     22212     22213
     22212     22214     22213     22214     22215     22216     22215     22217
     22216     22217     22218     22219     22218     22220     22219     22220
     22221     22222     22221     22223     22222     22223     22224     22225
     22224     22226     22225     22226     22227     22228     22227     22229
     22228     22229     22230     22231     22230     22232     22231     22232
     22233     22234     22233     22235     22234     22235     22236     22237
     22236     22238     22237     22238     22239     22240     22239     22241
     22240     22241     22242     22243     22242     22244     22243     22244
     22245     22246     22245     22247     22246     22247     22248     22249
     22248     22250     22249     22250     22251     22252     22251     22253
     22252     22253     22254     22255     22254     22256     22255     22256
     22257     22258     22257     22259     22258     22259     22260     22261
     22260     22262     22261     22262     22263     22264     22263     22265
     22264     22265     22266     22267     22266     22268     22267     22268
     22269     22270     22269     22271     22270     22271     22272     22273
     22272     22274     22273     22274     22275     22276     22275     22277
     22276     22277     22278     22279     22278     22280     22279     22280
     22281     22282     22281     22283     22282     22283     22284     22285
     22284     22286     22285     22286     22287     22288     22287     22289
     22288     22289     22290     22291     22290     22292     22291     22292
     22293     22294     22293     22295     22294     22295     22296     22297
     22296     22298     22297     22298     22299     22300     22299     22301
     22300     22301     22302     22303     22302     22304     22303     22304
     22305     22306     22305     22307     22306     22307     22308     22309
     22308     22310     22309     22310     22311     22312     22311     22313
     22312     22313     22314     22315     22314     22316     22315     22316
     22317     22318     22317     22319     22318     22319     22320     22321
     22320     22322     22321     22322     22323     22324     22323     22325
     22324     22325     22326     22327     22326     22328     22327     22328
     22329     22330     22329     22331     22330     22331     22332     22333
     22332     22334     22333     22334     22335     22336     22335     22337
     22336     22337     22338     22339     22338     22340     22339     22340
     22341     22342     22341     22343     22342     22343     22344     22345
     22344     22346     22345     22346     22347     22348     22347     22349
     22348     22349     22350     22351     22350     22352     22351     22352
     22353     22354     22353     22355     22354     22355     22356     22357
     22356     22358     22357     22358     22359     22360     22359     22361
     22360     22361     22362     22363     22362     22364     22363     22364
     22365     22366     22365     22367     22366     22367     22368     22369
     22368     22370     22369     22370     22371     22372     22371     22373
     22372     22373     22374     22375     22374     22376     22375     22376
     22377     22378     22377     22379     22378     22379     22380     22381
     22380     22382     22381     22382     22383     22384     22383     22385
     22384     22385     22386     22387     22386     22388     22387     22388
     22389     22390     22389     22391     22390     22391     22392     22393
     22392     22394     22393     22394     22395     22396     22395     22397
     22396     22397     22398     22399     22398     22400     22399     22400
     22401     22402     22401     22403     22402     22403     22404     22405
     22404     22406     22405     22406     22407     22408     22407     22409
     22408     22409     22410     22411     22410     22412     22411     22412
     22413     22414     22413     22415     22414     22415     22416     22417
     22416     22418     22417     22418     22419     22420     22419     22421
     22420     22421     22422     22423     22422     22424     22423     22424
     22425     22426     22425     22427     22426     22427     22428     22429
     22428     22430     22429     22430     22431     22432     22431     22433
     22432     22433     22434     22435     22434     22436     22435     22436
     22437     22438     22437     22439     22438     22439     22440     22441
     22440     22442     22441     22442     22443     22444     22443     22445
     22444     22445     22446     22447     22446     22448     22447     22448
     22449     22450     22449     22451     22450     22451     22452     22453
     22452     22454     22453     22454     22455     22456     22455     22457
     22456     22457     22458     22459     22458     22460     22459     22460
     22461     22462     22461     22463     22462     22463     22464     22465
     22464     22466     22465     22466     22467     22468     22467     22469
     22468     22469     22470     22471     22470     22472     22471     22472
     22473     22474     22473     22475     22474     22475     22476     22477
     22476     22478     22477     22478     22479     22480     22479     22481
     22480     22481     22482     22483     22482     22484     22483     22484
     22485     22486     22485     22487     22486     22487     22488     22489
     22488     22490     22489     22490     22491     22492     22491     22493
     22492     22493     22494     22495     22494     22496     22495     22496
     22497     22498     22497     22499     22498     22499     22500     22501
     22500     22502     22501     22502     22503     22504     22503     22505
     22504     22505     22506     22507     22506     22508     22507     22508
     22509     22510     22509     22511     22510     22511     22512     22513
     22512     22514     22513     22514     22515     22516     22515     22517
     22516     22517     22518     22519     22518     22520     22519     22520
     22521     22522     22521     22523     22522     22523     22524     22525
     22524     22526     22525     22526     22527     22528     22527     22529
     22528     22529     22530     22531     22530     22532     22531     22532
     22533     22534     22533     22535     22534     22535     22536     22537
     22536     22538     22537     22538     22539     22540     22539     22541
     22540     22541     22542     22543     22542     22544     22543     22544
     22545     22546     22545     22547     22546     22547     22548     22549
     22548     22550     22549     22550     22551     22552     22551     22553
     22552     22553     22554     22555     22554     22556     22555     22556
     22557     22558     22557     22559     22558     22559     22560     22561
     22560     22562     22561     22562     22563     22564     22563     22565
     22564     22565     22566     22567     22566     22568     22567     22568
     22569     22570     22569     22571     22570     22571     22572     22573
     22572     22574     22573     22574     22575     22576     22575     22577
     22576     22577     22578     22579     22578     22580     22579     22580
     22581     22582     22581     22583     22582     22583     22584     22585
     22584     22586     22585     22586     22587     22588     22587     22589
     22588     22589     22590     22591     22590     22592     22591     22592
     22593     22594     22593     22595     22594     22595     22596     22597
     22596     22598     22597     22598     22599     22600     22599     22601
     22600     22601     22602     22603     22602     22604     22603     22604
     22605     22606     22605     22607     22606     22607     22608     22609
     22608     22610     22609     22610     22611     22612     22611     22613
     22612     22613     22614     22615     22614     22616     22615     22616
     22617     22618     22617     22619     22618     22619     22620     22621
     22620     22622     22621     22622     22623     22624     22623     22625
     22624     22625     22626     22627     22626     22628     22627     22628
     22629     22630     22629     22631     22630     22631     22632     22633
     22632     22634     22633     22634     22635     22636     22635     22637
     22636     22637     22638     22639     22638     22640     22639     22640
     22641     22642     22641     22643     22642     22643     22644     22645
     22644     22646     22645     22646     22647     22648     22647     22649
     22648     22649     22650     22651     22650     22652     22651     22652
     22653     22654     22653     22655     22654     22655     22656     22657
     22656     22658     22657     22658     22659     22660     22659     22661
     22660     22661     22662     22663     22662     22664     22663     22664
     22665     22666     22665     22667     22666     22667     22668     22669
     22668     22670     22669     22670     22671     22672     22671     22673
     22672     22673     22674     22675     22674     22676     22675     22676
     22677     22678     22677     22679     22678     22679     22680     22681
     22680     22682     22681     22682     22683     22684     22683     22685
     22684     22685     22686     22687     22686     22688     22687     22688
     22689     22690     22689     22691     22690     22691     22692     22693
     22692     22694     22693     22694     22695     22696     22695     22697
     22696     22697     22698     22699     22698     22700     22699     22700
     22701     22702     22701     22703     22702     22703     22704     22705
     22704     22706     22705     22706     22707     22708     22707     22709
     22708     22709     22710     22711     22710     22712     22711     22712
     22713     22714     22713     22715     22714     22715     22716     22717
     22716     22718     22717     22718     22719     22720     22719     22721
     22720     22721     22722     22723     22722     22724     22723     22724
     22725     22726     22725     22727     22726     22727     22728     22729
     22728     22730     22729     22730     22731     22732     22731     22733
     22732     22733     22734     22735     22734     22736     22735     22736
     22737     22738     22737     22739     22738     22739     22740     22741
     22740     22742     22741     22742     22743     22744     22743     22745
     22744     22745     22746     22747     22746     22748     22747     22748
     22749     22750     22749     22751     22750     22751     22752     22753
     22752     22754     22753     22754     22755     22756     22755     22757
     22756     22757     22758     22759     22758     22760     22759     22760
     22761     22762     22761     22763     22762     22763     22764     22765
     22764     22766     22765     22766     22767     22768     22767     22769
     22768     22769     22770     22771     22770     22772     22771     22772
     22773     22774     22773     22775     22774     22775     22776     22777
     22776     22778     22777     22778     22779     22780     22779     22781
     22780     22781     22782     22783     22782     22784     22783     22784
     22785     22786     22785     22787     22786     22787     22788     22789
     22788     22790     22789     22790     22791     22792     22791     22793
     22792     22793     22794     22795     22794     22796     22795     22796
     22797     22798     22797     22799     22798     22799     22800     22801
     22800     22802     22801     22802     22803     22804     22803     22805
     22804     22805     22806     22807     22806     22808     22807     22808
     22809     22810     22809     22811     22810     22811     22812     22813
     22812     22814     22813     22814     22815     22816     22815     22817
     22816     22817     22818     22819     22818     22820     22819     22820
     22821     22822     22821     22823     22822     22823     22824     22825
     22824     22826     22825     22826     22827     22828     22827     22829
     22828     22829     22830     22831     22830     22832     22831     22832
     22833     22834     22833     22835     22834     22835     22836     22837
     22836     22838     22837     22838     22839     22840     22839     22841
     22840     22841     22842     22843     22842     22844     22843     22844
     22845     22846     22845     22847     22846     22847     22848     22849
     22848     22850     22849     22850     22851     22852     22851     22853
     22852     22853     22854     22855     22854     22856     22855     22856
     22857     22858     22857     22859     22858     22859     22860     22861
     22860     22862     22861     22862     22863     22864     22863     22865
     22864     22865     22866     22867     22866     22868     22867     22868
     22869     22870     22869     22871     22870     22871     22872     22873
     22872     22874     22873     22874     22875     22876     22875     22877
     22876     22877     22878     22879     22878     22880     22879     22880
     22881     22882     22881     22883     22882     22883     22884     22885
     22884     22886     22885     22886     22887     22888     22887     22889
     22888     22889     22890     22891     22890     22892     22891     22892
     22893     22894     22893     22895     22894     22895     22896     22897
     22896     22898     22897     22898     22899     22900     22899     22901
     22900     22901     22902     22903     22902     22904     22903     22904
     22905     22906     22905     22907     22906     22907     22908     22909
     22908     22910     22909     22910     22911     22912     22911     22913
     22912     22913     22914     22915     22914     22916     22915     22916
     22917     22918     22917     22919     22918     22919     22920     22921
     22920     22922     22921     22922     22923     22924     22923     22925
     22924     22925     22926     22927     22926     22928     22927     22928
     22929     22930     22929     22931     22930     22931     22932     22933
     22932     22934     22933     22934     22935     22936     22935     22937
     22936     22937     22938     22939     22938     22940     22939     22940
     22941     22942     22941     22943     22942     22943     22944     22945
     22944     22946     22945     22946     22947     22948     22947     22949
     22948     22949     22950     22951     22950     22952     22951     22952
     22953     22954     22953     22955     22954     22955     22956     22957
     22956     22958     22957     22958     22959     22960     22959     22961
     22960     22961     22962     22963     22962     22964     22963     22964
     22965     22966     22965     22967     22966     22967     22968     22969
     22968     22970     22969     22970     22971     22972     22971     22973
     22972     22973     22974     22975     22974     22976     22975     22976
     22977     22978     22977     22979     22978     22979     22980     22981
     22980     22982     22981     22982     22983     22984     22983     22985
     22984     22985     22986     22987     22986     22988     22987     22988
     22989     22990     22989     22991     22990     22991     22992     22993
     22992     22994     22993     22994     22995     22996     22995     22997
     22996     22997     22998     22999     22998     23000     22999     23000
     23001     23002     23001     23003     23002     23003     23004     23005
     23004     23006     23005     23006     23007     23008     23007     23009
     23008     23009     23010     23011     23010     23012     23011     23012
     23013     23014     23013     23015     23014     23015     23016     23017
     23016     23018     23017     23018     23019     23020     23019     23021
     23020     23021     23022     23023     23022     23024     23023     23024
     23025     23026     23025     23027     23026     23027     23028     23029
     23028     23030     23029     23030     23031     23032     23031     23033
     23032     23033     23034     23035     23034     23036     23035     23036
     23037     23038     23037     23039     23038     23039     23040     23041
     23040     23042     23041     23042     23043     23044     23043     23045
     23044     23045     23046     23047     23046     23048     23047     23048
     23049     23050     23049     23051     23050     23051     23052     23053
     23052     23054     23053     23054     23055     23056     23055     23057
     23056     23057     23058     23059     23058     23060     23059     23060
     23061     23062     23061     23063     23062     23063     23064     23065
     23064     23066     23065     23066     23067     23068     23067     23069
     23068     23069     23070     23071     23070     23072     23071     23072
     23073     23074     23073     23075     23074     23075     23076     23077
     23076     23078     23077     23078     23079     23080     23079     23081
     23080     23081     23082     23083     23082     23084     23083     23084
     23085     23086     23085     23087     23086     23087     23088     23089
     23088     23090     23089     23090     23091     23092     23091     23093
     23092     23093     23094     23095     23094     23096     23095     23096
     23097     23098     23097     23099     23098     23099     23100     23101
     23100     23102     23101     23102     23103     23104     23103     23105
     23104     23105     23106     23107     23106     23108     23107     23108
     23109     23110     23109     23111     23110     23111     23112     23113
     23112     23114     23113     23114     23115     23116     23115     23117
     23116     23117     23118     23119     23118     23120     23119     23120
     23121     23122     23121     23123     23122     23123     23124     23125
     23124     23126     23125     23126     23127     23128     23127     23129
     23128     23129     23130     23131     23130     23132     23131     23132
     23133     23134     23133     23135     23134     23135     23136     23137
     23136     23138     23137     23138     23139     23140     23139     23141
     23140     23141     23142     23143     23142     23144     23143     23144
     23145     23146     23145     23147     23146     23147     23148     23149
     23148     23150     23149     23150     23151     23152     23151     23153
     23152     23153     23154     23155     23154     23156     23155     23156
     23157     23158     23157     23159     23158     23159     23160     23161
     23160     23162     23161     23162     23163     23164     23163     23165
     23164     23165     23166     23167     23166     23168     23167     23168
     23169     23170     23169     23171     23170     23171     23172     23173
     23172     23174     23173     23174     23175     23176     23175     23177
     23176     23177     23178     23179     23178     23180     23179     23180
     23181     23182     23181     23183     23182     23183     23184     23185
     23184     23186     23185     23186     23187     23188     23187     23189
     23188     23189     23190     23191     23190     23192     23191     23192
     23193     23194     23193     23195     23194     23195     23196     23197
     23196     23198     23197     23198     23199     23200     23199     23201
     23200     23201     23202     23203     23202     23204     23203     23204
     23205     23206     23205     23207     23206     23207     23208     23209
     23208     23210     23209     23210     23211     23212     23211     23213
     23212     23213     23214     23215     23214     23216     23215     23216
     23217     23218     23217     23219     23218     23219     23220     23221
     23220     23222     23221     23222     23223     23224     23223     23225
     23224     23225     23226     23227     23226     23228     23227     23228
     23229     23230     23229     23231     23230     23231     23232     23233
     23232     23234     23233     23234     23235     23236     23235     23237
     23236     23237     23238     23239     23238     23240     23239     23240
     23241     23242     23241     23243     23242     23243     23244     23245
     23244     23246     23245     23246     23247     23248     23247     23249
     23248     23249     23250     23251     23250     23252     23251     23252
     23253     23254     23253     23255     23254     23255     23256     23257
     23256     23258     23257     23258     23259     23260     23259     23261
     23260     23261     23262     23263     23262     23264     23263     23264
     23265     23266     23265     23267     23266     23267     23268     23269
     23268     23270     23269     23270     23271     23272     23271     23273
     23272     23273     23274     23275     23274     23276     23275     23276
     23277     23278     23277     23279     23278     23279     23280     23281
     23280     23282     23281     23282     23283     23284     23283     23285
     23284     23285     23286     23287     23286     23288     23287     23288
     23289     23290     23289     23291     23290     23291     23292     23293
     23292     23294     23293     23294     23295     23296     23295     23297
     23296     23297     23298     23299     23298     23300     23299     23300
     23301     23302     23301     23303     23302     23303     23304     23305
     23304     23306     23305     23306     23307     23308     23307     23309
     23308     23309     23310     23311     23310     23312     23311     23312
     23313     23314     23313     23315     23314     23315     23316     23317
     23316     23318     23317     23318     23319     23320     23319     23321
     23320     23321     23322     23323     23322     23324     23323     23324
     23325     23326     23325     23327     23326     23327     23328     23329
     23328     23330     23329     23330     23331     23332     23331     23333
     23332     23333     23334     23335     23334     23336     23335     23336
     23337     23338     23337     23339     23338     23339     23340     23341
     23340     23342     23341     23342     23343     23344     23343     23345
     23344     23345     23346     23347     23346     23348     23347     23348
     23349     23350     23349     23351     23350     23351     23352     23353
     23352     23354     23353     23354     23355     23356     23355     23357
     23356     23357     23358     23359     23358     23360     23359     23360
     23361     23362     23361     23363     23362     23363     23364     23365
     23364     23366     23365     23366     23367     23368     23367     23369
     23368     23369     23370     23371     23370     23372     23371     23372
     23373     23374     23373     23375     23374     23375     23376     23377
     23376     23378     23377     23378     23379     23380     23379     23381
     23380     23381     23382     23383     23382     23384     23383     23384
     23385     23386     23385     23387     23386     23387     23388     23389
     23388     23390     23389     23390     23391     23392     23391     23393
     23392     23393     23394     23395     23394     23396     23395     23396
     23397     23398     23397     23399     23398     23399     23400     23401
     23400     23402     23401     23402     23403     23404     23403     23405
     23404     23405     23406     23407     23406     23408     23407     23408
     23409     23410     23409     23411     23410     23411     23412     23413
     23412     23414     23413     23414     23415     23416     23415     23417
     23416     23417     23418     23419     23418     23420     23419     23420
     23421     23422     23421     23423     23422     23423     23424     23425
     23424     23426     23425     23426     23427     23428     23427     23429
     23428     23429     23430     23431     23430     23432     23431     23432
     23433     23434     23433     23435     23434     23435     23436     23437
     23436     23438     23437     23438     23439     23440     23439     23441
     23440     23441     23442     23443     23442     23444     23443     23444
     23445     23446     23445     23447     23446     23447     23448     23449
     23448     23450     23449     23450     23451     23452     23451     23453
     23452     23453     23454     23455     23454     23456     23455     23456
     23457     23458     23457     23459     23458     23459     23460     23461
     23460     23462     23461     23462     23463     23464     23463     23465
     23464     23465     23466     23467     23466     23468     23467     23468
     23469     23470     23469     23471     23470     23471     23472     23473
     23472     23474     23473     23474     23475     23476     23475     23477
     23476     23477     23478     23479     23478     23480     23479     23480
     23481     23482     23481     23483     23482     23483     23484     23485
     23484     23486     23485     23486     23487     23488     23487     23489
     23488     23489     23490     23491     23490     23492     23491     23492
     23493     23494     23493     23495     23494     23495     23496     23497
     23496     23498     23497     23498     23499     23500     23499     23501
     23500     23501     23502     23503     23502     23504     23503     23504
     23505     23506     23505     23507     23506     23507     23508     23509
     23508     23510     23509     23510     23511     23512     23511     23513
     23512     23513     23514     23515     23514     23516     23515     23516
     23517     23518     23517     23519     23518     23519     23520     23521
     23520     23522     23521     23522     23523     23524     23523     23525
     23524     23525     23526     23527     23526     23528     23527     23528
     23529     23530     23529     23531     23530     23531     23532     23533
     23532     23534     23533     23534     23535     23536     23535     23537
     23536     23537     23538     23539     23538     23540     23539     23540
     23541     23542     23541     23543     23542     23543     23544     23545
     23544     23546     23545     23546     23547     23548     23547     23549
     23548     23549     23550     23551     23550     23552     23551     23552
     23553     23554     23553     23555     23554     23555     23556     23557
     23556     23558     23557     23558     23559     23560     23559     23561
     23560     23561     23562     23563     23562     23564     23563     23564
     23565     23566     23565     23567     23566     23567     23568     23569
     23568     23570     23569     23570     23571     23572     23571     23573
     23572     23573     23574     23575     23574     23576     23575     23576
     23577     23578     23577     23579     23578     23579     23580     23581
     23580     23582     23581     23582     23583     23584     23583     23585
     23584     23585     23586     23587     23586     23588     23587     23588
     23589     23590     23589     23591     23590     23591     23592     23593
     23592     23594     23593     23594     23595     23596     23595     23597
     23596     23597     23598     23599     23598     23600     23599     23600
     23601     23602     23601     23603     23602     23603     23604     23605
     23604     23606     23605     23606     23607     23608     23607     23609
     23608     23609     23610     23611     23610     23612     23611     23612
     23613     23614     23613     23615     23614     23615     23616     23617
     23616     23618     23617     23618     23619     23620     23619     23621
     23620     23621     23622     23623     23622     23624     23623     23624
     23625     23626     23625     23627     23626     23627     23628     23629
     23628     23630     23629     23630     23631     23632     23631     23633
     23632     23633     23634     23635     23634     23636     23635     23636
     23637     23638     23637     23639     23638     23639     23640     23641
     23640     23642     23641     23642     23643     23644     23643     23645
     23644     23645     23646     23647     23646     23648     23647     23648
     23649     23650     23649     23651     23650     23651     23652     23653
     23652     23654     23653     23654     23655     23656     23655     23657
     23656     23657     23658     23659     23658     23660     23659     23660
     23661     23662     23661     23663     23662     23663     23664     23665
     23664     23666     23665     23666     23667     23668     23667     23669
     23668     23669     23670     23671     23670     23672     23671     23672
     23673     23674     23673     23675     23674     23675     23676     23677
     23676     23678     23677     23678     23679     23680     23679     23681
     23680     23681     23682     23683     23682     23684     23683     23684
     23685     23686     23685     23687     23686     23687     23688     23689
     23688     23690     23689     23690     23691     23692     23691     23693
     23692     23693     23694     23695     23694     23696     23695     23696
     23697     23698     23697     23699     23698     23699     23700     23701
     23700     23702     23701     23702     23703     23704     23703     23705
     23704     23705     23706     23707     23706     23708     23707     23708
     23709     23710     23709     23711     23710     23711     23712     23713
     23712     23714     23713     23714     23715     23716     23715     23717
     23716     23717     23718     23719     23718     23720     23719     23720
     23721     23722     23721     23723     23722     23723     23724     23725
     23724     23726     23725     23726     23727     23728     23727     23729
     23728     23729     23730     23731     23730     23732     23731     23732
     23733     23734     23733     23735     23734     23735     23736     23737
     23736     23738     23737     23738     23739     23740     23739     23741
     23740     23741     23742     23743     23742     23744     23743     23744
     23745     23746     23745     23747     23746     23747     23748     23749
     23748     23750     23749     23750     23751     23752     23751     23753
     23752     23753     23754     23755     23754     23756     23755     23756
     23757     23758     23757     23759     23758     23759     23760     23761
     23760     23762     23761     23762     23763     23764     23763     23765
     23764     23765     23766     23767     23766     23768     23767     23768
     23769     23770     23769     23771     23770     23771     23772     23773
     23772     23774     23773     23774     23775     23776     23775     23777
     23776     23777     23778     23779     23778     23780     23779     23780
     23781     23782     23781     23783     23782     23783     23784     23785
     23784     23786     23785     23786     23787     23788     23787     23789
     23788     23789     23790     23791     23790     23792     23791     23792
     23793     23794     23793     23795     23794     23795     23796     23797
     23796     23798     23797     23798     23799     23800     23799     23801
     23800     23801     23802     23803     23802     23804     23803     23804
     23805     23806     23805     23807     23806     23807     23808     23809
     23808     23810     23809     23810     23811     23812     23811     23813
     23812     23813     23814     23815     23814     23816     23815     23816
     23817     23818     23817     23819     23818     23819     23820     23821
     23820     23822     23821     23822     23823     23824     23823     23825
     23824     23825     23826     23827     23826     23828     23827     23828
     23829     23830     23829     23831     23830     23831     23832     23833
     23832     23834     23833     23834     23835     23836     23835     23837
     23836     23837     23838     23839     23838     23840     23839     23840
     23841     23842     23841     23843     23842     23843     23844     23845
     23844     23846     23845     23846     23847     23848     23847     23849
     23848     23849     23850     23851     23850     23852     23851     23852
     23853     23854     23853     23855     23854     23855     23856     23857
     23856     23858     23857     23858     23859     23860     23859     23861
     23860     23861     23862     23863     23862     23864     23863     23864
     23865     23866     23865     23867     23866     23867     23868     23869
     23868     23870     23869     23870     23871     23872     23871     23873
     23872     23873     23874     23875     23874     23876     23875     23876
     23877     23878     23877     23879     23878     23879     23880     23881
     23880     23882     23881     23882     23883     23884     23883     23885
     23884     23885     23886     23887     23886     23888     23887     23888
     23889     23890     23889     23891     23890     23891     23892     23893
     23892     23894     23893     23894     23895     23896     23895     23897
     23896     23897     23898     23899     23898     23900     23899     23900
     23901     23902     23901     23903     23902     23903     23904     23905
     23904     23906     23905     23906     23907     23908     23907     23909
     23908     23909     23910     23911     23910     23912     23911     23912
     23913     23914     23913     23915     23914     23915     23916     23917
     23916     23918     23917     23918     23919     23920     23919     23921
     23920     23921     23922     23923     23922     23924     23923     23924
     23925     23926     23925     23927     23926     23927     23928     23929
     23928     23930     23929     23930     23931     23932     23931     23933
     23932     23933     23934     23935     23934     23936     23935     23936
     23937     23938     23937     23939     23938     23939     23940     23941
     23940     23942     23941     23942     23943     23944     23943     23945
     23944     23945     23946     23947     23946     23948     23947     23948
     23949     23950     23949     23951     23950     23951     23952     23953
     23952     23954     23953     23954     23955     23956     23955     23957
     23956     23957     23958     23959     23958     23960     23959     23960
     23961     23962     23961     23963     23962     23963     23964     23965
     23964     23966     23965     23966     23967     23968     23967     23969
     23968     23969     23970     23971     23970     23972     23971     23972
     23973     23974     23973     23975     23974     23975     23976     23977
     23976     23978     23977     23978     23979     23980     23979     23981
     23980     23981     23982     23983     23982     23984     23983     23984
     23985     23986     23985     23987     23986     23987     23988     23989
     23988     23990     23989     23990     23991     23992     23991     23993
     23992     23993     23994     23995     23994     23996     23995     23996
     23997     23998     23997     23999     23998     23999     24000     24001
     24000     24002     24001     24002     24003     24004     24003     24005
     24004     24005     24006     24007     24006     24008     24007     24008
     24009     24010     24009     24011     24010     24011     24012     24013
     24012     24014     24013     24014     24015     24016     24015     24017
     24016     24017     24018     24019     24018     24020     24019     24020
     24021     24022     24021     24023     24022     24023     24024     24025
     24024     24026     24025     24026     24027     24028     24027     24029
     24028     24029     24030     24031     24030     24032     24031     24032
     24033     24034     24033     24035     24034     24035     24036     24037
     24036     24038     24037     24038     24039     24040     24039     24041
     24040     24041     24042     24043     24042     24044     24043     24044
     24045     24046     24045     24047     24046     24047     24048     24049
     24048     24050     24049     24050     24051     24052     24051     24053
     24052     24053     24054     24055     24054     24056     24055     24056
     24057     24058     24057     24059     24058     24059     24060     24061
     24060     24062     24061     24062     24063     24064     24063     24065
     24064     24065     24066     24067     24066     24068     24067     24068
     24069     24070     24069     24071     24070     24071     24072     24073
     24072     24074     24073     24074     24075     24076     24075     24077
     24076     24077     24078     24079     24078     24080     24079     24080
     24081     24082     24081     24083     24082     24083     24084     24085
     24084     24086     24085     24086     24087     24088     24087     24089
     24088     24089     24090     24091     24090     24092     24091     24092
     24093     24094     24093     24095     24094     24095     24096     24097
     24096     24098     24097     24098     24099     24100     24099     24101
     24100     24101     24102     24103     24102     24104     24103     24104
     24105     24106     24105     24107     24106     24107     24108     24109
     24108     24110     24109     24110     24111     24112     24111     24113
     24112     24113     24114     24115     24114     24116     24115     24116
     24117     24118     24117     24119     24118     24119     24120     24121
     24120     24122     24121     24122     24123     24124     24123     24125
     24124     24125     24126     24127     24126     24128     24127     24128
     24129     24130     24129     24131     24130     24131     24132     24133
     24132     24134     24133     24134     24135     24136     24135     24137
     24136     24137     24138     24139     24138     24140     24139     24140
     24141     24142     24141     24143     24142     24143     24144     24145
     24144     24146     24145     24146     24147     24148     24147     24149
     24148     24149     24150     24151     24150     24152     24151     24152
     24153     24154     24153     24155     24154     24155     24156     24157
     24156     24158     24157     24158     24159     24160     24159     24161
     24160     24161     24162     24163     24162     24164     24163     24164
     24165     24166     24165     24167     24166     24167     24168     24169
     24168     24170     24169     24170     24171     24172     24171     24173
     24172     24173     24174     24175     24174     24176     24175     24176
     24177     24178     24177     24179     24178     24179     24180     24181
     24180     24182     24181     24182     24183     24184     24183     24185
     24184     24185     24186     24187     24186     24188     24187     24188
     24189     24190     24189     24191     24190     24191     24192     24193
     24192     24194     24193     24194     24195     24196     24195     24197
     24196     24197     24198     24199     24198     24200     24199     24200
     24201     24202     24201     24203     24202     24203     24204     24205
     24204     24206     24205     24206     24207     24208     24207     24209
     24208     24209     24210     24211     24210     24212     24211     24212
     24213     24214     24213     24215     24214     24215     24216     24217
     24216     24218     24217     24218     24219     24220     24219     24221
     24220     24221     24222     24223     24222     24224     24223     24224
     24225     24226     24225     24227     24226     24227     24228     24229
     24228     24230     24229     24230     24231     24232     24231     24233
     24232     24233     24234     24235     24234     24236     24235     24236
     24237     24238     24237     24239     24238     24239     24240     24241
     24240     24242     24241     24242     24243     24244     24243     24245
     24244     24245     24246     24247     24246     24248     24247     24248
     24249     24250     24249     24251     24250     24251     24252     24253
     24252     24254     24253     24254     24255     24256     24255     24257
     24256     24257     24258     24259     24258     24260     24259     24260
     24261     24262     24261     24263     24262     24263     24264     24265
     24264     24266     24265     24266     24267     24268     24267     24269
     24268     24269     24270     24271     24270     24272     24271     24272
     24273     24274     24273     24275     24274     24275     24276     24277
     24276     24278     24277     24278     24279     24280     24279     24281
     24280     24281     24282     24283     24282     24284     24283     24284
     24285     24286     24285     24287     24286     24287     24288     24289
     24288     24290     24289     24290     24291     24292     24291     24293
     24292     24293     24294     24295     24294     24296     24295     24296
     24297     24298     24297     24299     24298     24299     24300     24301
     24300     24302     24301     24302     24303     24304     24303     24305
     24304     24305     24306     24307     24306     24308     24307     24308
     24309     24310     24309     24311     24310     24311     24312     24313
     24312     24314     24313     24314     24315     24316     24315     24317
     24316     24317     24318     24319     24318     24320     24319     24320
     24321     24322     24321     24323     24322     24323     24324     24325
     24324     24326     24325     24326     24327     24328     24327     24329
     24328     24329     24330     24331     24330     24332     24331     24332
     24333     24334     24333     24335     24334     24335     24336     24337
     24336     24338     24337     24338     24339     24340     24339     24341
     24340     24341     24342     24343     24342     24344     24343     24344
     24345     24346     24345     24347     24346     24347     24348     24349
     24348     24350     24349     24350     24351     24352     24351     24353
     24352     24353     24354     24355     24354     24356     24355     24356
     24357     24358     24357     24359     24358     24359     24360     24361
     24360     24362     24361     24362     24363     24364     24363     24365
     24364     24365     24366     24367     24366     24368     24367     24368
     24369     24370     24369     24371     24370     24371     24372     24373
     24372     24374     24373     24374     24375     24376     24375     24377
     24376     24377     24378     24379     24378     24380     24379     24380
     24381     24382     24381     24383     24382     24383     24384     24385
     24384     24386     24385     24386     24387     24388     24387     24389
     24388     24389     24390     24391     24390     24392     24391     24392
     24393     24394     24393     24395     24394     24395     24396     24397
     24396     24398     24397     24398     24399     24400     24399     24401
     24400     24401     24402     24403     24402     24404     24403     24404
     24405     24406     24405     24407     24406     24407     24408     24409
     24408     24410     24409     24410     24411     24412     24411     24413
     24412     24413     24414     24415     24414     24416     24415     24416
     24417     24418     24417     24419     24418     24419     24420     24421
     24420     24422     24421     24422     24423     24424     24423     24425
     24424     24425     24426     24427     24426     24428     24427     24428
     24429     24430     24429     24431     24430     24431     24432     24433
     24432     24434     24433     24434     24435     24436     24435     24437
     24436     24437     24438     24439     24438     24440     24439     24440
     24441     24442     24441     24443     24442     24443     24444     24445
     24444     24446     24445     24446     24447     24448     24447     24449
     24448     24449     24450     24451     24450     24452     24451     24452
     24453     24454     24453     24455     24454     24455     24456     24457
     24456     24458     24457     24458     24459     24460     24459     24461
     24460     24461     24462     24463     24462     24464     24463     24464
     24465     24466     24465     24467     24466     24467     24468     24469
     24468     24470     24469     24470     24471     24472     24471     24473
     24472     24473     24474     24475     24474     24476     24475     24476
     24477     24478     24477     24479     24478     24479     24480     24481
     24480     24482     24481     24482     24483     24484     24483     24485
     24484     24485     24486     24487     24486     24488     24487     24488
     24489     24490     24489     24491     24490     24491     24492     24493
     24492     24494     24493     24494     24495     24496     24495     24497
     24496     24497     24498     24499     24498     24500     24499     24500
     24501     24502     24501     24503     24502     24503     24504     24505
     24504     24506     24505     24506     24507     24508     24507     24509
     24508     24509     24510     24511     24510     24512     24511     24512
     24513     24514     24513     24515     24514     24515     24516     24517
     24516     24518     24517     24518     24519     24520     24519     24521
     24520     24521     24522     24523     24522     24524     24523     24524
     24525     24526     24525     24527     24526     24527     24528     24529
     24528     24530     24529     24530     24531     24532     24531     24533
     24532     24533     24534     24535     24534     24536     24535     24536
     24537     24538     24537     24539     24538     24539     24540     24541
     24540     24542     24541     24542     24543     24544     24543     24545
     24544     24545     24546     24547     24546     24548     24547     24548
     24549     24550     24549     24551     24550     24551     24552     24553
     24552     24554     24553     24554     24555     24556     24555     24557
     24556     24557     24558     24559     24558     24560     24559     24560
     24561     24562     24561     24563     24562     24563     24564     24565
     24564     24566     24565     24566     24567     24568     24567     24569
     24568     24569     24570     24571     24570     24572     24571     24572
     24573     24574     24573     24575     24574     24575     24576     24577
     24576     24578     24577     24578     24579     24580     24579     24581
     24580     24581     24582     24583     24582     24584     24583     24584
     24585     24586     24585     24587     24586     24587     24588     24589
     24588     24590     24589     24590     24591     24592     24591     24593
     24592     24593     24594     24595     24594     24596     24595     24596
     24597     24598     24597     24599     24598     24599     24600     24601
     24600     24602     24601     24602     24603     24604     24603     24605
     24604     24605     24606     24607     24606     24608     24607     24608
     24609     24610     24609     24611     24610     24611     24612     24613
     24612     24614     24613     24614     24615     24616     24615     24617
     24616     24617     24618     24619     24618     24620     24619     24620
     24621     24622     24621     24623     24622     24623     24624     24625
     24624     24626     24625     24626     24627     24628     24627     24629
     24628     24629     24630     24631     24630     24632     24631     24632
     24633     24634     24633     24635     24634     24635     24636     24637
     24636     24638     24637     24638     24639     24640     24639     24641
     24640     24641     24642     24643     24642     24644     24643     24644
     24645     24646     24645     24647     24646     24647     24648     24649
     24648     24650     24649     24650     24651     24652     24651     24653
     24652     24653     24654     24655     24654     24656     24655     24656
     24657     24658     24657     24659     24658     24659     24660     24661
     24660     24662     24661     24662     24663     24664     24663     24665
     24664     24665     24666     24667     24666     24668     24667     24668
     24669     24670     24669     24671     24670     24671     24672     24673
     24672     24674     24673     24674     24675     24676     24675     24677
     24676     24677     24678     24679     24678     24680     24679     24680
     24681     24682     24681     24683     24682     24683     24684     24685
     24684     24686     24685     24686     24687     24688     24687     24689
     24688     24689     24690     24691     24690     24692     24691     24692
     24693     24694     24693     24695     24694     24695     24696     24697
     24696     24698     24697     24698     24699     24700     24699     24701
     24700     24701     24702     24703     24702     24704     24703     24704
     24705     24706     24705     24707     24706     24707     24708     24709
     24708     24710     24709     24710     24711     24712     24711     24713
     24712     24713     24714     24715     24714     24716     24715     24716
     24717     24718     24717     24719     24718     24719     24720     24721
     24720     24722     24721     24722     24723     24724     24723     24725
     24724     24725     24726     24727     24726     24728     24727     24728
     24729     24730     24729     24731     24730     24731     24732     24733
     24732     24734     24733     24734     24735     24736     24735     24737
     24736     24737     24738     24739     24738     24740     24739     24740
     24741     24742     24741     24743     24742     24743     24744     24745
     24744     24746     24745     24746     24747     24748     24747     24749
     24748     24749     24750     24751     24750     24752     24751     24752
     24753     24754     24753     24755     24754     24755     24756     24757
     24756     24758     24757     24758     24759     24760     24759     24761
     24760     24761     24762     24763     24762     24764     24763     24764
     24765     24766     24765     24767     24766     24767     24768     24769
     24768     24770     24769     24770     24771     24772     24771     24773
     24772     24773     24774     24775     24774     24776     24775     24776
     24777     24778     24777     24779     24778     24779     24780     24781
     24780     24782     24781     24782     24783     24784     24783     24785
     24784     24785     24786     24787     24786     24788     24787     24788
     24789     24790     24789     24791     24790     24791     24792     24793
     24792     24794     24793     24794     24795     24796     24795     24797
     24796     24797     24798     24799     24798     24800     24799     24800
     24801     24802     24801     24803     24802     24803     24804     24805
     24804     24806     24805     24806     24807     24808     24807     24809
     24808     24809     24810     24811     24810     24812     24811     24812
     24813     24814     24813     24815     24814     24815     24816     24817
     24816     24818     24817     24818     24819     24820     24819     24821
     24820     24821     24822     24823     24822     24824     24823     24824
     24825     24826     24825     24827     24826     24827     24828     24829
     24828     24830     24829     24830     24831     24832     24831     24833
     24832     24833     24834     24835     24834     24836     24835     24836
     24837     24838     24837     24839     24838     24839     24840     24841
     24840     24842     24841     24842     24843     24844     24843     24845
     24844     24845     24846     24847     24846     24848     24847     24848
     24849     24850     24849     24851     24850     24851     24852     24853
     24852     24854     24853     24854     24855     24856     24855     24857
     24856     24857     24858     24859     24858     24860     24859     24860
     24861     24862     24861     24863     24862     24863     24864     24865
     24864     24866     24865     24866     24867     24868     24867     24869
     24868     24869     24870     24871     24870     24872     24871     24872
     24873     24874     24873     24875     24874     24875     24876     24877
     24876     24878     24877     24878     24879     24880     24879     24881
     24880     24881     24882     24883     24882     24884     24883     24884
     24885     24886     24885     24887     24886     24887     24888     24889
     24888     24890     24889     24890     24891     24892     24891     24893
     24892     24893     24894     24895     24894     24896     24895     24896
     24897     24898     24897     24899     24898     24899     24900     24901
     24900     24902     24901     24902     24903     24904     24903     24905
     24904     24905     24906     24907     24906     24908     24907     24908
     24909     24910     24909     24911     24910     24911     24912     24913
     24912     24914     24913     24914     24915     24916     24915     24917
     24916     24917     24918     24919     24918     24920     24919     24920
     24921     24922     24921     24923     24922     24923     24924     24925
     24924     24926     24925     24926     24927     24928     24927     24929
     24928     24929     24930     24931     24930     24932     24931     24932
     24933     24934     24933     24935     24934     24935     24936     24937
     24936     24938     24937     24938     24939     24940     24939     24941
     24940     24941     24942     24943     24942     24944     24943     24944
     24945     24946     24945     24947     24946     24947     24948     24949
     24948     24950     24949     24950     24951     24952     24951     24953
     24952     24953     24954     24955     24954     24956     24955     24956
     24957     24958     24957     24959     24958     24959     24960     24961
     24960     24962     24961     24962     24963     24964     24963     24965
     24964     24965     24966     24967     24966     24968     24967     24968
     24969     24970     24969     24971     24970     24971     24972     24973
     24972     24974     24973     24974     24975     24976     24975     24977
     24976     24977     24978     24979     24978     24980     24979     24980
     24981     24982     24981     24983     24982     24983     24984     24985
     24984     24986     24985     24986     24987     24988     24987     24989
     24988     24989     24990     24991     24990     24992     24991     24992
     24993     24994     24993     24995     24994     24995     24996     24997
     24996     24998     24997     24998     24999     25000     24999     25001
     25000     25001     25002     25003     25002     25004     25003     25004
     25005     25006     25005     25007     25006     25007     25008     25009
     25008     25010     25009     25010     25011     25012     25011     25013
     25012     25013     25014     25015     25014     25016     25015     25016
     25017     25018     25017     25019     25018     25019     25020     25021
     25020     25022     25021     25022     25023     25024     25023     25025
     25024     25025     25026     25027     25026     25028     25027     25028
     25029     25030     25029     25031     25030     25031     25032     25033
     25032     25034     25033     25034     25035     25036     25035     25037
     25036     25037     25038     25039     25038     25040     25039     25040
     25041     25042     25041     25043     25042     25043     25044     25045
     25044     25046     25045     25046     25047     25048     25047     25049
     25048     25049     25050     25051     25050     25052     25051     25052
     25053     25054     25053     25055     25054     25055     25056     25057
     25056     25058     25057     25058     25059     25060     25059     25061
     25060     25061     25062     25063     25062     25064     25063     25064
     25065     25066     25065     25067     25066     25067     25068     25069
     25068     25070     25069     25070     25071     25072     25071     25073
     25072     25073     25074     25075     25074     25076     25075     25076
     25077     25078     25077     25079     25078     25079     25080     25081
     25080     25082     25081     25082     25083     25084     25083     25085
     25084     25085     25086     25087     25086     25088     25087     25088
     25089     25090     25089     25091     25090     25091     25092     25093
     25092     25094     25093     25094     25095     25096     25095     25097
     25096     25097     25098     25099     25098     25100     25099     25100
     25101     25102     25101     25103     25102     25103     25104     25105
     25104     25106     25105     25106     25107     25108     25107     25109
     25108     25109     25110     25111     25110     25112     25111     25112
     25113     25114     25113     25115     25114     25115     25116     25117
     25116     25118     25117     25118     25119     25120     25119     25121
     25120     25121     25122     25123     25122     25124     25123     25124
     25125     25126     25125     25127     25126     25127     25128     25129
     25128     25130     25129     25130     25131     25132     25131     25133
     25132     25133     25134     25135     25134     25136     25135     25136
     25137     25138     25137     25139     25138     25139     25140     25141
     25140     25142     25141     25142     25143     25144     25143     25145
     25144     25145     25146     25147     25146     25148     25147     25148
     25149     25150     25149     25151     25150     25151     25152     25153
     25152     25154     25153     25154     25155     25156     25155     25157
     25156     25157     25158     25159     25158     25160     25159     25160
     25161     25162     25161     25163     25162     25163     25164     25165
     25164     25166     25165     25166     25167     25168     25167     25169
     25168     25169     25170     25171     25170     25172     25171     25172
     25173     25174     25173     25175     25174     25175     25176     25177
     25176     25178     25177     25178     25179     25180     25179     25181
     25180     25181     25182     25183     25182     25184     25183     25184
     25185     25186     25185     25187     25186     25187     25188     25189
     25188     25190     25189     25190     25191     25192     25191     25193
     25192     25193     25194     25195     25194     25196     25195     25196
     25197     25198     25197     25199     25198     25199     25200     25201
     25200     25202     25201     25202     25203     25204     25203     25205
     25204     25205     25206     25207     25206     25208     25207     25208
     25209     25210     25209     25211     25210     25211     25212     25213
     25212     25214     25213     25214     25215     25216     25215     25217
     25216     25217     25218     25219     25218     25220     25219     25220
     25221     25222     25221     25223     25222     25223     25224     25225
     25224     25226     25225     25226     25227     25228     25227     25229
     25228     25229     25230     25231     25230     25232     25231     25232
     25233     25234     25233     25235     25234     25235     25236     25237
     25236     25238     25237     25238     25239     25240     25239     25241
     25240     25241     25242     25243     25242     25244     25243     25244
     25245     25246     25245     25247     25246     25247     25248     25249
     25248     25250     25249     25250     25251     25252     25251     25253
     25252     25253     25254     25255     25254     25256     25255     25256
     25257     25258     25257     25259     25258     25259     25260     25261
     25260     25262     25261     25262     25263     25264     25263     25265
     25264     25265     25266     25267     25266     25268     25267     25268
     25269     25270     25269     25271     25270     25271     25272     25273
     25272     25274     25273     25274     25275     25276     25275     25277
     25276     25277     25278     25279     25278     25280     25279     25280
     25281     25282     25281     25283     25282     25283     25284     25285
     25284     25286     25285     25286     25287     25288     25287     25289
     25288     25289     25290     25291     25290     25292     25291     25292
     25293     25294     25293     25295     25294     25295     25296     25297
     25296     25298     25297     25298     25299     25300     25299     25301
     25300     25301     25302     25303     25302     25304     25303     25304
     25305     25306     25305     25307     25306     25307     25308     25309
     25308     25310     25309     25310     25311     25312     25311     25313
     25312     25313     25314     25315     25314     25316     25315     25316
     25317     25318     25317     25319     25318     25319     25320     25321
     25320     25322     25321     25322     25323     25324     25323     25325
     25324     25325     25326     25327     25326     25328     25327     25328
     25329     25330     25329     25331     25330     25331     25332     25333
     25332     25334     25333     25334     25335     25336     25335     25337
     25336     25337     25338     25339     25338     25340     25339     25340
     25341     25342     25341     25343     25342     25343     25344     25345
     25344     25346     25345     25346     25347     25348     25347     25349
     25348     25349     25350     25351     25350     25352     25351     25352
     25353     25354     25353     25355     25354     25355     25356     25357
     25356     25358     25357     25358     25359     25360     25359     25361
     25360     25361     25362     25363     25362     25364     25363     25364
     25365     25366     25365     25367     25366     25367     25368     25369
     25368     25370     25369     25370     25371     25372     25371     25373
     25372     25373     25374     25375     25374     25376     25375     25376
     25377     25378     25377     25379     25378     25379     25380     25381
     25380     25382     25381     25382     25383     25384     25383     25385
     25384     25385     25386     25387     25386     25388     25387     25388
     25389     25390     25389     25391     25390     25391     25392     25393
     25392     25394     25393     25394     25395     25396     25395     25397
     25396     25397     25398     25399     25398     25400     25399     25400
     25401     25402     25401     25403     25402     25403     25404     25405
     25404     25406     25405     25406     25407     25408     25407     25409
     25408     25409     25410     25411     25410     25412     25411     25412
     25413     25414     25413     25415     25414     25415     25416     25417
     25416     25418     25417     25418     25419     25420     25419     25421
     25420     25421     25422     25423     25422     25424     25423     25424
     25425     25426     25425     25427     25426     25427     25428     25429
     25428     25430     25429     25430     25431     25432     25431     25433
     25432     25433     25434     25435     25434     25436     25435     25436
     25437     25438     25437     25439     25438     25439     25440     25441
     25440     25442     25441     25442     25443     25444     25443     25445
     25444     25445     25446     25447     25446     25448     25447     25448
     25449     25450     25449     25451     25450     25451     25452     25453
     25452     25454     25453     25454     25455     25456     25455     25457
     25456     25457     25458     25459     25458     25460     25459     25460
     25461     25462     25461     25463     25462     25463     25464     25465
     25464     25466     25465     25466     25467     25468     25467     25469
     25468     25469     25470     25471     25470     25472     25471     25472
     25473     25474     25473     25475     25474     25475     25476     25477
     25476     25478     25477     25478     25479     25480     25479     25481
     25480     25481     25482     25483     25482     25484     25483     25484
     25485     25486     25485     25487     25486     25487     25488     25489
     25488     25490     25489     25490     25491     25492     25491     25493
     25492     25493     25494     25495     25494     25496     25495     25496
     25497     25498     25497     25499     25498     25499     25500     25501
     25500     25502     25501     25502     25503     25504     25503     25505
     25504     25505     25506     25507     25506     25508     25507     25508
     25509     25510     25509     25511     25510     25511     25512     25513
     25512     25514     25513     25514     25515     25516     25515     25517
     25516     25517     25518     25519     25518     25520     25519     25520
     25521     25522     25521     25523     25522     25523     25524     25525
     25524     25526     25525     25526     25527     25528     25527     25529
     25528     25529     25530     25531     25530     25532     25531     25532
     25533     25534     25533     25535     25534     25535     25536     25537
     25536     25538     25537     25538     25539     25540     25539     25541
     25540     25541     25542     25543     25542     25544     25543     25544
     25545     25546     25545     25547     25546     25547     25548     25549
     25548     25550     25549     25550     25551     25552     25551     25553
     25552     25553     25554     25555     25554     25556     25555     25556
     25557     25558     25557     25559     25558     25559     25560     25561
     25560     25562     25561     25562     25563     25564     25563     25565
     25564     25565     25566     25567     25566     25568     25567     25568
     25569     25570     25569     25571     25570     25571     25572     25573
     25572     25574     25573     25574     25575     25576     25575     25577
     25576     25577     25578     25579     25578     25580     25579     25580
     25581     25582     25581     25583     25582     25583     25584     25585
     25584     25586     25585     25586     25587     25588     25587     25589
     25588     25589     25590     25591     25590     25592     25591     25592
     25593     25594     25593     25595     25594     25595     25596     25597
     25596     25598     25597     25598     25599     25600     25599     25601
     25600     25601     25602     25603     25602     25604     25603     25604
     25605     25606     25605     25607     25606     25607     25608     25609
     25608     25610     25609     25610     25611     25612     25611     25613
     25612     25613     25614     25615     25614     25616     25615     25616
     25617     25618     25617     25619     25618     25619     25620     25621
     25620     25622     25621     25622     25623     25624     25623     25625
     25624     25625     25626     25627     25626     25628     25627     25628
     25629     25630     25629     25631     25630     25631     25632     25633
     25632     25634     25633     25634     25635     25636     25635     25637
     25636     25637     25638     25639     25638     25640     25639     25640
     25641     25642     25641     25643     25642     25643     25644     25645
     25644     25646     25645     25646     25647     25648     25647     25649
     25648     25649     25650     25651     25650     25652     25651     25652
     25653     25654     25653     25655     25654     25655     25656     25657
     25656     25658     25657     25658     25659     25660     25659     25661
     25660     25661     25662     25663     25662     25664     25663     25664
     25665     25666     25665     25667     25666     25667     25668     25669
     25668     25670     25669     25670     25671     25672     25671     25673
     25672     25673     25674     25675     25674     25676     25675     25676
     25677     25678     25677     25679     25678     25679     25680     25681
     25680     25682     25681     25682     25683     25684     25683     25685
     25684     25685     25686     25687     25686     25688     25687     25688
     25689     25690     25689     25691     25690     25691     25692     25693
     25692     25694     25693     25694     25695     25696     25695     25697
     25696     25697     25698     25699     25698     25700     25699     25700
     25701     25702     25701     25703     25702     25703     25704     25705
     25704     25706     25705     25706     25707     25708     25707     25709
     25708     25709     25710     25711     25710     25712     25711     25712
     25713     25714     25713     25715     25714     25715     25716     25717
     25716     25718     25717     25718     25719     25720     25719     25721
     25720     25721     25722     25723     25722     25724     25723     25724
     25725     25726     25725     25727     25726     25727     25728     25729
     25728     25730     25729     25730     25731     25732     25731     25733
     25732     25733     25734     25735     25734     25736     25735     25736
     25737     25738     25737     25739     25738     25739     25740     25741
     25740     25742     25741     25742     25743     25744     25743     25745
     25744     25745     25746     25747     25746     25748     25747     25748
     25749     25750     25749     25751     25750     25751     25752     25753
     25752     25754     25753     25754     25755     25756     25755     25757
     25756     25757     25758     25759     25758     25760     25759     25760
     25761     25762     25761     25763     25762     25763     25764     25765
     25764     25766     25765     25766     25767     25768     25767     25769
     25768     25769     25770     25771     25770     25772     25771     25772
     25773     25774     25773     25775     25774     25775     25776     25777
     25776     25778     25777     25778     25779     25780     25779     25781
     25780     25781     25782     25783     25782     25784     25783     25784
     25785     25786     25785     25787     25786     25787     25788     25789
     25788     25790     25789     25790     25791     25792     25791     25793
     25792     25793     25794     25795     25794     25796     25795     25796
     25797     25798     25797     25799     25798     25799     25800     25801
     25800     25802     25801     25802     25803     25804     25803     25805
     25804     25805     25806     25807     25806     25808     25807     25808
     25809     25810     25809     25811     25810     25811     25812     25813
     25812     25814     25813     25814     25815     25816     25815     25817
     25816     25817     25818     25819     25818     25820     25819     25820
     25821     25822     25821     25823     25822     25823     25824     25825
     25824     25826     25825     25826     25827     25828     25827     25829
     25828     25829     25830     25831     25830     25832     25831     25832
     25833     25834     25833     25835     25834     25835     25836     25837
     25836     25838     25837     25838     25839     25840     25839     25841
     25840     25841     25842     25843     25842     25844     25843     25844
     25845     25846     25845     25847     25846     25847     25848     25849
     25848     25850     25849     25850     25851     25852     25851     25853
     25852     25853     25854     25855     25854     25856     25855     25856
     25857     25858     25857     25859     25858     25859     25860     25861
     25860     25862     25861     25862     25863     25864     25863     25865
     25864     25865     25866     25867     25866     25868     25867     25868
     25869     25870     25869     25871     25870     25871     25872     25873
     25872     25874     25873     25874     25875     25876     25875     25877
     25876     25877     25878     25879     25878     25880     25879     25880
     25881     25882     25881     25883     25882     25883     25884     25885
     25884     25886     25885     25886     25887     25888     25887     25889
     25888     25889     25890     25891     25890     25892     25891     25892
     25893     25894     25893     25895     25894     25895     25896     25897
     25896     25898     25897     25898     25899     25900     25899     25901
     25900     25901     25902     25903     25902     25904     25903     25904
     25905     25906     25905     25907     25906     25907     25908     25909
     25908     25910     25909     25910     25911     25912     25911     25913
     25912     25913     25914     25915     25914     25916     25915     25916
     25917     25918     25917     25919     25918     25919     25920     25921
     25920     25922     25921     25922     25923     25924     25923     25925
     25924     25925     25926     25927     25926     25928     25927     25928
     25929     25930     25929     25931     25930     25931     25932     25933
     25932     25934     25933     25934     25935     25936     25935     25937
     25936     25937     25938     25939     25938     25940     25939     25940
     25941     25942     25941     25943     25942     25943     25944     25945
     25944     25946     25945     25946     25947     25948     25947     25949
     25948     25949     25950     25951     25950     25952     25951     25952
     25953     25954     25953     25955     25954     25955     25956     25957
     25956     25958     25957     25958     25959     25960     25959     25961
     25960     25961     25962     25963     25962     25964     25963     25964
     25965     25966     25965     25967     25966     25967     25968     25969
     25968     25970     25969     25970     25971     25972     25971     25973
     25972     25973     25974     25975     25974     25976     25975     25976
     25977     25978     25977     25979     25978     25979     25980     25981
     25980     25982     25981     25982     25983     25984     25983     25985
     25984     25985     25986     25987     25986     25988     25987     25988
     25989     25990     25989     25991     25990     25991     25992     25993
     25992     25994     25993     25994     25995     25996     25995     25997
     25996     25997     25998     25999     25998     26000     25999     26000
     26001     26002     26001     26003     26002     26003     26004     26005
     26004     26006     26005     26006     26007     26008     26007     26009
     26008     26009     26010     26011     26010     26012     26011     26012
     26013     26014     26013     26015     26014     26015     26016     26017
     26016     26018     26017     26018     26019     26020     26019     26021
     26020     26021     26022     26023     26022     26024     26023     26024
     26025     26026     26025     26027     26026     26027     26028     26029
     26028     26030     26029     26030     26031     26032     26031     26033
     26032     26033     26034     26035     26034     26036     26035     26036
     26037     26038     26037     26039     26038     26039     26040     26041
     26040     26042     26041     26042     26043     26044     26043     26045
     26044     26045     26046     26047     26046     26048     26047     26048
     26049     26050     26049     26051     26050     26051     26052     26053
     26052     26054     26053     26054     26055     26056     26055     26057
     26056     26057     26058     26059     26058     26060     26059     26060
     26061     26062     26061     26063     26062     26063     26064     26065
     26064     26066     26065     26066     26067     26068     26067     26069
     26068     26069     26070     26071     26070     26072     26071     26072
     26073     26074     26073     26075     26074     26075     26076     26077
     26076     26078     26077     26078     26079     26080     26079     26081
     26080     26081     26082     26083     26082     26084     26083     26084
     26085     26086     26085     26087     26086     26087     26088     26089
     26088     26090     26089     26090     26091     26092     26091     26093
     26092     26093     26094     26095     26094     26096     26095     26096
     26097     26098     26097     26099     26098     26099     26100     26101
     26100     26102     26101     26102     26103     26104     26103     26105
     26104     26105     26106     26107     26106     26108     26107     26108
     26109     26110     26109     26111     26110     26111     26112     26113
     26112     26114     26113     26114     26115     26116     26115     26117
     26116     26117     26118     26119     26118     26120     26119     26120
     26121     26122     26121     26123     26122     26123     26124     26125
     26124     26126     26125     26126     26127     26128     26127     26129
     26128     26129     26130     26131     26130     26132     26131     26132
     26133     26134     26133     26135     26134     26135     26136     26137
     26136     26138     26137     26138     26139     26140     26139     26141
     26140     26141     26142     26143     26142     26144     26143     26144
     26145     26146     26145     26147     26146     26147     26148     26149
     26148     26150     26149     26150     26151     26152     26151     26153
     26152     26153     26154     26155     26154     26156     26155     26156
     26157     26158     26157     26159     26158     26159     26160     26161
     26160     26162     26161     26162     26163     26164     26163     26165
     26164     26165     26166     26167     26166     26168     26167     26168
     26169     26170     26169     26171     26170     26171     26172     26173
     26172     26174     26173     26174     26175     26176     26175     26177
     26176     26177     26178     26179     26178     26180     26179     26180
     26181     26182     26181     26183     26182     26183     26184     26185
     26184     26186     26185     26186     26187     26188     26187     26189
     26188     26189     26190     26191     26190     26192     26191     26192
     26193     26194     26193     26195     26194     26195     26196     26197
     26196     26198     26197     26198     26199     26200     26199     26201
     26200     26201     26202     26203     26202     26204     26203     26204
     26205     26206     26205     26207     26206     26207     26208     26209
     26208     26210     26209     26210     26211     26212     26211     26213
     26212     26213     26214     26215     26214     26216     26215     26216
     26217     26218     26217     26219     26218     26219     26220     26221
     26220     26222     26221     26222     26223     26224     26223     26225
     26224     26225     26226     26227     26226     26228     26227     26228
     26229     26230     26229     26231     26230     26231     26232     26233
     26232     26234     26233     26234     26235     26236     26235     26237
     26236     26237     26238     26239     26238     26240     26239     26240
     26241     26242     26241     26243     26242     26243     26244     26245
     26244     26246     26245     26246     26247     26248     26247     26249
     26248     26249     26250     26251     26250     26252     26251     26252
     26253     26254     26253     26255     26254     26255     26256     26257
     26256     26258     26257     26258     26259     26260     26259     26261
     26260     26261     26262     26263     26262     26264     26263     26264
     26265     26266     26265     26267     26266     26267     26268     26269
     26268     26270     26269     26270     26271     26272     26271     26273
     26272     26273     26274     26275     26274     26276     26275     26276
     26277     26278     26277     26279     26278     26279     26280     26281
     26280     26282     26281     26282     26283     26284     26283     26285
     26284     26285     26286     26287     26286     26288     26287     26288
     26289     26290     26289     26291     26290     26291     26292     26293
     26292     26294     26293     26294     26295     26296     26295     26297
     26296     26297     26298     26299     26298     26300     26299     26300
     26301     26302     26301     26303     26302     26303     26304     26305
     26304     26306     26305     26306     26307     26308     26307     26309
     26308     26309     26310     26311     26310     26312     26311     26312
     26313     26314     26313     26315     26314     26315     26316     26317
     26316     26318     26317     26318     26319     26320     26319     26321
     26320     26321     26322     26323     26322     26324     26323     26324
     26325     26326     26325     26327     26326     26327     26328     26329
     26328     26330     26329     26330     26331     26332     26331     26333
     26332     26333     26334     26335     26334     26336     26335     26336
     26337     26338     26337     26339     26338     26339     26340     26341
     26340     26342     26341     26342     26343     26344     26343     26345
     26344     26345     26346     26347     26346     26348     26347     26348
     26349     26350     26349     26351     26350     26351     26352     26353
     26352     26354     26353     26354     26355     26356     26355     26357
     26356     26357     26358     26359     26358     26360     26359     26360
     26361     26362     26361     26363     26362     26363     26364     26365
     26364     26366     26365     26366     26367     26368     26367     26369
     26368     26369     26370     26371     26370     26372     26371     26372
     26373     26374     26373     26375     26374     26375     26376     26377
     26376     26378     26377     26378     26379     26380     26379     26381
     26380     26381     26382     26383     26382     26384     26383     26384
     26385     26386     26385     26387     26386     26387     26388     26389
     26388     26390     26389     26390     26391     26392     26391     26393
     26392     26393     26394     26395     26394     26396     26395     26396
     26397     26398     26397     26399     26398     26399     26400     26401
     26400     26402     26401     26402     26403     26404     26403     26405
     26404     26405     26406     26407     26406     26408     26407     26408
     26409     26410     26409     26411     26410     26411     26412     26413
     26412     26414     26413     26414     26415     26416     26415     26417
     26416     26417     26418     26419     26418     26420     26419     26420
     26421     26422     26421     26423     26422     26423     26424     26425
     26424     26426     26425     26426     26427     26428     26427     26429
     26428     26429     26430     26431     26430     26432     26431     26432
     26433     26434     26433     26435     26434     26435     26436     26437
     26436     26438     26437     26438     26439     26440     26439     26441
     26440     26441     26442     26443     26442     26444     26443     26444
     26445     26446     26445     26447     26446     26447     26448     26449
     26448     26450     26449     26450     26451     26452     26451     26453
     26452     26453     26454     26455     26454     26456     26455     26456
     26457     26458     26457     26459     26458     26459     26460     26461
     26460     26462     26461     26462     26463     26464     26463     26465
     26464     26465     26466     26467     26466     26468     26467     26468
     26469     26470     26469     26471     26470     26471     26472     26473
     26472     26474     26473     26474     26475     26476     26475     26477
     26476     26477     26478     26479     26478     26480     26479     26480
     26481     26482     26481     26483     26482     26483     26484     26485
     26484     26486     26485     26486     26487     26488     26487     26489
     26488     26489     26490     26491     26490     26492     26491     26492
     26493     26494     26493     26495     26494     26495     26496     26497
     26496     26498     26497     26498     26499     26500     26499     26501
     26500     26501     26502     26503     26502     26504     26503     26504
     26505     26506     26505     26507     26506     26507     26508     26509
     26508     26510     26509     26510     26511     26512     26511     26513
     26512     26513     26514     26515     26514     26516     26515     26516
     26517     26518     26517     26519     26518     26519     26520     26521
     26520     26522     26521     26522     26523     26524     26523     26525
     26524     26525     26526     26527     26526     26528     26527     26528
     26529     26530     26529     26531     26530     26531     26532     26533
     26532     26534     26533     26534     26535     26536     26535     26537
     26536     26537     26538     26539     26538     26540     26539     26540
     26541     26542     26541     26543     26542     26543     26544     26545
     26544     26546     26545     26546     26547     26548     26547     26549
     26548     26549     26550     26551     26550     26552     26551     26552
     26553     26554     26553     26555     26554     26555     26556     26557
     26556     26558     26557     26558     26559     26560     26559     26561
     26560     26561     26562     26563     26562     26564     26563     26564
     26565     26566     26565     26567     26566     26567     26568     26569
     26568     26570     26569     26570     26571     26572     26571     26573
     26572     26573     26574     26575     26574     26576     26575     26576
     26577     26578     26577     26579     26578     26579     26580     26581
     26580     26582     26581     26582     26583     26584     26583     26585
     26584     26585     26586     26587     26586     26588     26587     26588
     26589     26590     26589     26591     26590     26591     26592     26593
     26592     26594     26593     26594     26595     26596     26595     26597
     26596     26597     26598     26599     26598     26600     26599     26600
     26601     26602     26601     26603     26602     26603     26604     26605
     26604     26606     26605     26606     26607     26608     26607     26609
     26608     26609     26610     26611     26610     26612     26611     26612
     26613     26614     26613     26615     26614     26615     26616     26617
     26616     26618     26617     26618     26619     26620     26619     26621
     26620     26621     26622     26623     26622     26624     26623     26624
     26625     26626     26625     26627     26626     26627     26628     26629
     26628     26630     26629     26630     26631     26632     26631     26633
     26632     26633     26634     26635     26634     26636     26635     26636
     26637     26638     26637     26639     26638     26639     26640     26641
     26640     26642     26641     26642     26643     26644     26643     26645
     26644     26645     26646     26647     26646     26648     26647     26648
     26649     26650     26649     26651     26650     26651     26652     26653
     26652     26654     26653     26654     26655     26656     26655     26657
     26656     26657     26658     26659     26658     26660     26659     26660
     26661     26662     26661     26663     26662     26663     26664     26665
     26664     26666     26665     26666     26667     26668     26667     26669
     26668     26669     26670     26671     26670     26672     26671     26672
     26673     26674     26673     26675     26674     26675     26676     26677
     26676     26678     26677     26678     26679     26680     26679     26681
     26680     26681     26682     26683     26682     26684     26683     26684
     26685     26686     26685     26687     26686     26687     26688     26689
     26688     26690     26689     26690     26691     26692     26691     26693
     26692     26693     26694     26695     26694     26696     26695     26696
     26697     26698     26697     26699     26698     26699     26700     26701
     26700     26702     26701     26702     26703     26704     26703     26705
     26704     26705     26706     26707     26706     26708     26707     26708
     26709     26710     26709     26711     26710     26711     26712     26713
     26712     26714     26713     26714     26715     26716     26715     26717
     26716     26717     26718     26719     26718     26720     26719     26720
     26721     26722     26721     26723     26722     26723     26724     26725
     26724     26726     26725     26726     26727     26728     26727     26729
     26728     26729     26730     26731     26730     26732     26731     26732
     26733     26734     26733     26735     26734     26735     26736     26737
     26736     26738     26737     26738     26739     26740     26739     26741
     26740     26741     26742     26743     26742     26744     26743     26744
     26745     26746     26745     26747     26746     26747     26748     26749
     26748     26750     26749     26750     26751     26752     26751     26753
     26752     26753     26754     26755     26754     26756     26755     26756
     26757     26758     26757     26759     26758     26759     26760     26761
     26760     26762     26761     26762     26763     26764     26763     26765
     26764     26765     26766     26767     26766     26768     26767     26768
     26769     26770     26769     26771     26770     26771     26772     26773
     26772     26774     26773     26774     26775     26776     26775     26777
     26776     26777     26778     26779     26778     26780     26779     26780
     26781     26782     26781     26783     26782     26783     26784     26785
     26784     26786     26785     26786     26787     26788     26787     26789
     26788     26789     26790     26791     26790     26792     26791     26792
     26793     26794     26793     26795     26794     26795     26796     26797
     26796     26798     26797     26798     26799     26800     26799     26801
     26800     26801     26802     26803     26802     26804     26803     26804
     26805     26806     26805     26807     26806     26807     26808     26809
     26808     26810     26809     26810     26811     26812     26811     26813
     26812     26813     26814     26815     26814     26816     26815     26816
     26817     26818     26817     26819     26818     26819     26820     26821
     26820     26822     26821     26822     26823     26824     26823     26825
     26824     26825     26826     26827     26826     26828     26827     26828
     26829     26830     26829     26831     26830     26831     26832     26833
     26832     26834     26833     26834     26835     26836     26835     26837
     26836     26837     26838     26839     26838     26840     26839     26840
     26841     26842     26841     26843     26842     26843     26844     26845
     26844     26846     26845     26846     26847     26848     26847     26849
     26848     26849     26850     26851     26850     26852     26851     26852
     26853     26854     26853     26855     26854     26855     26856     26857
     26856     26858     26857     26858     26859     26860     26859     26861
     26860     26861     26862     26863     26862     26864     26863     26864
     26865     26866     26865     26867     26866     26867     26868     26869
     26868     26870     26869     26870     26871     26872     26871     26873
     26872     26873     26874     26875     26874     26876     26875     26876
     26877     26878     26877     26879     26878     26879     26880     26881
     26880     26882     26881     26882     26883     26884     26883     26885
     26884     26885     26886     26887     26886     26888     26887     26888
     26889     26890     26889     26891     26890     26891     26892     26893
     26892     26894     26893     26894     26895     26896     26895     26897
     26896     26897     26898     26899     26898     26900     26899     26900
     26901     26902     26901     26903     26902     26903     26904     26905
     26904     26906     26905     26906     26907     26908     26907     26909
     26908     26909     26910     26911     26910     26912     26911     26912
     26913     26914     26913     26915     26914     26915     26916     26917
     26916     26918     26917     26918     26919     26920     26919     26921
     26920     26921     26922     26923     26922     26924     26923     26924
     26925     26926     26925     26927     26926     26927     26928     26929
     26928     26930     26929     26930     26931     26932     26931     26933
     26932     26933     26934     26935     26934     26936     26935     26936
     26937     26938     26937     26939     26938     26939     26940     26941
     26940     26942     26941     26942     26943     26944     26943     26945
     26944     26945     26946     26947     26946     26948     26947     26948
     26949     26950     26949     26951     26950     26951     26952     26953
     26952     26954     26953     26954     26955     26956     26955     26957
     26956     26957     26958     26959     26958     26960     26959     26960
     26961     26962     26961     26963     26962     26963     26964     26965
     26964     26966     26965     26966     26967     26968     26967     26969
     26968     26969     26970     26971     26970     26972     26971     26972
     26973     26974     26973     26975     26974     26975     26976     26977
     26976     26978     26977     26978     26979     26980     26979     26981
     26980     26981     26982     26983     26982     26984     26983     26984
     26985     26986     26985     26987     26986     26987     26988     26989
     26988     26990     26989     26990     26991     26992     26991     26993
     26992     26993     26994     26995     26994     26996     26995     26996
     26997     26998     26997     26999     26998     26999     27000     27001
     27000     27002     27001     27002     27003     27004     27003     27005
     27004     27005     27006     27007     27006     27008     27007     27008
     27009     27010     27009     27011     27010     27011     27012     27013
     27012     27014     27013     27014     27015     27016     27015     27017
     27016     27017

     29301 !NTHETA: angles
         2         1         3         2         1         4         2         1         5
         3         1         4         3         1         5         4         1         5
         1         5         6         1         5         7         6         5         7
         5         7         8         5         7         9         8         7         9
         7         9        10         7         9        11         7         9        22
        10         9        11        10         9        22        11         9        22
         9        11        12         9        11        13         9        11        14
        12        11        13        12        11        14        13        11        14
        11        14        15        11        14        16        11        14        17
        15        14        16        15        14        17        16        14        17
        14        17        18        14        17        19        18        17        19
        17        19        20        17        19        21        20        19        21
         9        22        23         9        22        24        23        22        24
        22        24        25        22        24        26        25        24        26
        24        26        27        24        26        28        24        26        32
        27        26        28        27        26        32        28        26        32
        26        28        29        26        28        30        26        28        31
        29        28        30        29        28        31        30        28        31
        26        32        33        26        32        34        33        32        34
        32        34        35        32        34        38        35        34        38
        34        35        36        34        35        37        34        35        43
        36        35        37        36        35        43        37        35        43
        34        38        39        34        38        40        34        38        46
        39        38        40        39        38        46        40        38        46
        38        40        41        38        40        42        38        40        43
        41        40        42        41        40        43        42        40        43
        35        43        40        35        43        44        35        43        45
        40        43        44        40        43        45        44        43        45
        38        46        47        38        46        48        47        46        48
        46        48        49        46        48        50        49        48        50
        48        50        51        48        50        52        48        50        56
        51        50        52        51        50        56        52        50        56
        50        52        53        50        52        54        50        52        55
        53        52        54        53        52        55        54        52        55
        50        56        57        50        56        58        57        56        58
        56        58        59        56        58        60        59        58        60
        58        60        61        58        60        62        58        60        77
        61        60        62        61        60        77        62        60        77
        60        62        63        60        62        64        60        62        65
        63        62        64        63        62        65        64        62        65
        62        65        66        62        65        73        66        65        73
        65        66        67        65        66        68        67        66        68
        66        68        69        66        68        70        69        68        70
        68        70        71        68        70        75        71        70        75
        70        71        72        65        73        74        65        73        75
        74        73        75        70        75        73        70        75        76
        73        75        76        60        77        78        60        77        79
        78        77        79        77        79        80        77        79        81
        80        79        81        79        81        82        79        81        83
        79        81        99        82        81        83        82        81        99
        83        81        99        81        83        84        81        83        85
        81        83        86        84        83        85        84        83        86
        85        83        86        83        86        87        83        86        88
        83        86        89        87        86        88        87        86        89
        88        86        89        86        89        90        86        89        91
        86        89        92        90        89        91        90        89        92
        91        89        92        89        92        93        89        92        94
        89        92        95        93        92        94        93        92        95
        94        92        95        92        95        96        92        95        97
        92        95        98        96        95        97        96        95        98
        97        95        98        81        99       100        81        99       101
       100        99       101        99       101       102        99       101       103
       102       101       103       101       103       104       101       103       105
       101       103       121       104       103       105       104       103       121
       105       103       121       103       105       106       103       105       107
       103       105       108       106       105       107       106       105       108
       107       105       108       105       108       109       105       108       110
       105       108       111       109       108       110       109       108       111
       110       108       111       108       111       112       108       111       113
       108       111       114       112       111       113       112       111       114
       113       111       114       111       114       115       111       114       116
       111       114       117       115       114       116       115       114       117
       116       114       117       114       117       118       114       117       119
       114       117       120       118       117       119       118       117       120
       119       117       120       103       121       122       103       121       123
       122       121       123       121       123       124       121       123       125
       124       123       125       123       125       126       123       125       127
       123       125       131       126       125       127       126       125       131
       127       125       131       125       127       128       125       127       129
       125       127       130       128       127       129       128       127       130
       129       127       130       125       131       132       125       131       133
       132       131       133       131       133       134       131       133       135
       134       133       135       133       135       136       133       135       137
       133       135       141       136       135       137       136       135       141
       137       135       141       135       137       138       135       137       139
       135       137       140       138       137       139       138       137       140
       139       137       140       135       141       142       135       141       143
       142       141       143       141       143       144       141       143       145
       144       143       145       143       145       146       143       145       147
       143       145       163       146       145       147       146       145       163
       147       145       163       145       147       148       145       147       149
       145       147       150       148       147       149       148       147       150
       149       147       150       147       150       151       147       150       152
       147       150       153       151       150       152       151       150       153
       152       150       153       150       153       154       150       153       155
       150       153       156       154       153       155       154       153       156
       155       153       156       153       156       157       153       156       158
       153       156       159       157       156       158       157       156       159
       158       156       159       156       159       160       156       159       161
       156       159       162       160       159       161       160       159       162
       161       159       162       145       163       164       145       163       165
       164       163       165       163       165       166       163       165       167
       166       165       167       165       167       168       165       167       169
       165       167       185       168       167       169       168       167       185
       169       167       185       167       169       170       167       169       171
       167       169       172       170       169       171       170       169       172
       171       169       172       169       172       173       169       172       174
       169       172       175       173       172       174       173       172       175
       174       172       175       172       175       176       172       175       177
       172       175       178       176       175       177       176       175       178
       177       175       178       175       178       179       175       178       180
       175       178       181       179       178       180       179       178       181
       180       178       181       178       181       182       178       181       183
       178       181       184       182       181       183       182       181       184
       183       181       184       167       185       186       167       185       187
       186       185       187       185       187       188       185       187       189
       188       187       189       187       189       190       187       189       191
       187       189       204       190       189       191       190       189       204
       191       189       204       189       191       192       189       191       193
       189       191       194       192       191       193       192       191       194
       193       191       194       191       194       195       191       194       196
       191       194       200       195       194       196       195       194       200
       196       194       200       194       196       197       194       196       198
       194       196       199       197       196       198       197       196       199
       198       196       199       194       200       201       194       200       202
       194       200       203       201       200       202       201       200       203
       202       200       203       189       204       205       189       204       206
       205       204       206       204       206       207       204       206       208
       207       206       208       206       208       209       206       208       210
       206       208       214       209       208       210       209       208       214
       210       208       214       208       210       211       208       210       212
       208       210       213       211       210       212       211       210       213
       212       210       213       208       214       215       208       214       216
       215       214       216       214       216       217       214       216       218
       217       216       218       216       218       219       216       218       220
       216       218       229       219       218       220       219       218       229
       220       218       229       218       220       221       218       220       222
       218       220       223       221       220       222       221       220       223
       222       220       223       220       223       224       220       223       225
       220       223       226       224       223       225       224       223       226
       225       223       226       223       226       227       223       226       228
       227       226       228       218       229       230       218       229       231
       230       229       231       229       231       232       229       231       233
       232       231       233       231       233       234       231       233       235
       231       233       240       234       233       235       234       233       240
       235       233       240       233       235       236       233       235       237
       233       235       238       236       235       237       236       235       238
       237       235       238       235       238       239       233       240       241
       233       240       242       241       240       242       240       242       243
       240       242       244       243       242       244       242       244       245
       242       244       246       242       244       247       245       244       246
       245       244       247       246       244       247       249       248       250
       249       248       252       249       248       294       250       248       252
       250       248       294       252       248       294       248       250       251
       248       252       253       248       252       254       248       252       255
       253       252       254       253       252       255       254       252       255
       252       255       256       252       255       286       256       255       286
       255       256       257       255       256       258       257       256       258
       256       258       259       256       258       260       256       258       261
       259       258       260       259       258       261       260       258       261
       258       261       262       258       261       263       258       261       284
       262       261       263       262       261       284       263       261       284
       261       263       264       261       263       265       261       263       273
       264       263       265       264       263       273       265       263       273
       263       265       266       263       265       267       263       265       268
       266       265       267       266       265       268       267       265       268
       265       268       269       265       268       270       265       268       271
       269       268       270       269       268       271       270       268       271
       268       271       272       268       271       273       268       271       297
       272       271       273       272       271       297       273       271       297
       263       273       271       263       273       274       263       273       278
       271       273       274       271       273       278       274       273       278
       273       274       275       273       274       276       273       274       277
       275       274       276       275       274       277       276       274       277
       273       278       279       273       278       280       273       278       281
       279       278       280       279       278       281       280       278       281
       278       281       282       278       281       283       278       281       284
       282       281       283       282       281       284       283       281       284
       261       284       281       261       284       285       261       284       286
       281       284       285       281       284       286       285       284       286
       255       286       284       255       286       287       255       286       291
       284       286       287       284       286       291       287       286       291
       286       287       288       286       287       289       286       287       290
       288       287       289       288       287       290       289       287       290
       286       291       292       286       291       293       286       291       294
       292       291       293       292       291       294       293       291       294
       248       294       291       248       294       295       248       294       296
       291       294       295       291       294       296       295       294       296
       271       297       298       271       297       299       271       297       303
       298       297       299       298       297       303       299       297       303
       297       299       300       297       299       301       297       299       302
       300       299       301       300       299       302       301       299       302
       297       303       304       297       303       305       297       303       306
       304       303       305       304       303       306       305       303       306
       303       306       307       303       306       308       303       306       309
       307       306       308       307       306       309       308       306       309
       306       309       310       306       309       311       306       309       312
       310       309       311       310       309       312       311       309       312
       309       312       313       309       312       314       309       312       318
       313       312       314       313       312       318       314       312       318
       312       314       315       312       314       316       312       314       317
       315       314       316       315       314       317       316       314       317
       312       318       319       312       318       320       312       318       321
       319       318       320       319       318       321       320       318       321
       323       322       324       323       322       326       323       322       368
       324       322       326       324       322       368       326       322       368
       322       324       325       322       326       327       322       326       328
       322       326       329       327       326       328       327       326       329
       328       326       329       326       329       330       326       329       360
       330       329       360       329       330       331       329       330       332
       331       330       332       330       332       333       330       332       334
       330       332       335       333       332       334       333       332       335
       334       332       335       332       335       336       332       335       337
       332       335       358       336       335       337       336       335       358
       337       335       358       335       337       338       335       337       339
       335       337       347       338       337       339       338       337       347
       339       337       347       337       339       340       337       339       341
       337       339       342       340       339       341       340       339       342
       341       339       342       339       342       343       339       342       344
       339       342       345       343       342       344       343       342       345
       344       342       345       342       345       346       342       345       347
       342       345       371       346       345       347       346       345       371
       347       345       371       337       347       345       337       347       348
       337       347       352       345       347       348       345       347       352
       348       347       352       347       348       349       347       348       350
       347       348       351       349       348       350       349       348       351
       350       348       351       347       352       353       347       352       354
       347       352       355       353       352       354       353       352       355
       354       352       355       352       355       356       352       355       357
       352       355       358       356       355       357       356       355       358
       357       355       358       335       358       355       335       358       359
       335       358       360       355       358       359       355       358       360
       359       358       360       329       360       358       329       360       361
       329       360       365       358       360       361       358       360       365
       361       360       365       360       361       362       360       361       363
       360       361       364       362       361       363       362       361       364
       363       361       364       360       365       366       360       365       367
       360       365       368       366       365       367       366       365       368
       367       365       368       322       368       365       322       368       369
       322       368       370       365       368       369       365       368       370
       369       368       370       345       371       372       345       371       373
       345       371       377       372       371       373       372       371       377
       373       371       377       371       373       374       371       373       375
       371       373       376       374       373       375       374       373       376
       375       373       376       371       377       378       371       377       379
       371       377       380       378       377       379       378       377       380
       379       377       380       377       380       381       377       380       382
       377       380       383       381       380       382       381       380       383
       382       380       383       380       383       384       380       383       385
       380       383       386       384       383       385       384       383       386
       385       383       386       383       386       387       383       386       388
       383       386       392       387       386       388       387       386       392
       388       386       392       386       388       389       386       388       390
       386       388       391       389       388       390       389       388       391
       390       388       391       386       392       393       386       392       394
       386       392       395       393       392       394       393       392       395
       394       392       395       397       396       398       397       396       400
       397       396       442       398       396       400       398       396       442
       400       396       442       396       398       399       396       400       401
       396       400       402       396       400       403       401       400       402
       401       400       403       402       400       403       400       403       404
       400       403       434       404       403       434       403       404       405
       403       404       406       405       404       406       404       406       407
       404       406       408       404       406       409       407       406       408
       407       406       409       408       406       409       406       409       410
       406       409       411       406       409       432       410       409       411
       410       409       432       411       409       432       409       411       412
       409       411       413       409       411       421       412       411       413
       412       411       421       413       411       421       411       413       414
       411       413       415       411       413       416       414       413       415
       414       413       416       415       413       416       413       416       417
       413       416       418       413       416       419       417       416       418
       417       416       419       418       416       419       416       419       420
       416       419       421       416       419       445       420       419       421
       420       419       445       421       419       445       411       421       419
       411       421       422       411       421       426       419       421       422
       419       421       426       422       421       426       421       422       423
       421       422       424       421       422       425       423       422       424
       423       422       425       424       422       425       421       426       427
       421       426       428       421       426       429       427       426       428
       427       426       429       428       426       429       426       429       430
       426       429       431       426       429       432       430       429       431
       430       429       432       431       429       432       409       432       429
       409       432       433       409       432       434       429       432       433
       429       432       434       433       432       434       403       434       432
       403       434       435       403       434       439       432       434       435
       432       434       439       435       434       439       434       435       436
       434       435       437       434       435       438       436       435       437
       436       435       438       437       435       438       434       439       440
       434       439       441       434       439       442       440       439       441
       440       439       442       441       439       442       396       442       439
       396       442       443       396       442       444       439       442       443
       439       442       444       443       442       444       419       445       446
       419       445       447       419       445       451       446       445       447
       446       445       451       447       445       451       445       447       448
       445       447       449       445       447       450       448       447       449
       448       447       450       449       447       450       445       451       452
       445       451       453       445       451       454       452       451       453
       452       451       454       453       451       454       451       454       455
       451       454       456       451       454       457       455       454       456
       455       454       457       456       454       457       454       457       458
       454       457       459       454       457       460       458       457       459
       458       457       460       459       457       460       457       460       461
       457       460       462       457       460       466       461       460       462
       461       460       466       462       460       466       460       462       463
       460       462       464       460       462       465       463       462       464
       463       462       465       464       462       465       460       466       467
       460       466       468       460       466       469       467       466       468
       467       466       469       468       466       469       471       470       472
       471       470       474       471       470       516       472       470       474
       472       470       516       474       470       516       470       472       473
       470       474       475       470       474       476       470       474       477
       475       474       476       475       474       477       476       474       477
       474       477       478       474       477       508       478       477       508
       477       478       479       477       478       480       479       478       480
       478       480       481       478       480       482       478       480       483
       481       480       482       481       480       483       482       480       483
       480       483       484       480       483       485       480       483       506
       484       483       485       484       483       506       485       483       506
       483       485       486       483       485       487       483       485       495
       486       485       487       486       485       495       487       485       495
       485       487       488       485       487       489       485       487       490
       488       487       489       488       487       490       489       487       490
       487       490       491       487       490       492       487       490       493
       491       490       492       491       490       493       492       490       493
       490       493       494       490       493       495       490       493       519
       494       493       495       494       493       519       495       493       519
       485       495       493       485       495       496       485       495       500
       493       495       496       493       495       500       496       495       500
       495       496       497       495       496       498       495       496       499
       497       496       498       497       496       499       498       496       499
       495       500       501       495       500       502       495       500       503
       501       500       502       501       500       503       502       500       503
       500       503       504       500       503       505       500       503       506
       504       503       505       504       503       506       505       503       506
       483       506       503       483       506       507       483       506       508
       503       506       507       503       506       508       507       506       508
       477       508       506       477       508       509       477       508       513
       506       508       509       506       508       513       509       508       513
       508       509       510       508       509       511       508       509       512
       510       509       511       510       509       512       511       509       512
       508       513       514       508       513       515       508       513       516
       514       513       515       514       513       516       515       513       516
       470       516       513       470       516       517       470       516       518
       513       516       517       513       516       518       517       516       518
       493       519       520       493       519       521       493       519       525
       520       519       521       520       519       525       521       519       525
       519       521       522       519       521       523       519       521       524
       522       521       523       522       521       524       523       521       524
       519       525       526       519       525       527       519       525       528
       526       525       527       526       525       528       527       525       528
       525       528       529       525       528       530       525       528       531
       529       528       530       529       528       531       530       528       531
       528       531       532       528       531       533       528       531       534
       532       531       533       532       531       534       533       531       534
       531       534       535       531       534       536       531       534       540
       535       534       536       535       534       540       536       534       540
       534       536       537       534       536       538       534       536       539
       537       536       538       537       536       539       538       536       539
       534       540       541       534       540       542       534       540       543
       541       540       542       541       540       543       542       540       543
       545       544       546       545       544       548       545       544       590
       546       544       548       546       544       590       548       544       590
       544       546       547       544       548       549       544       548       550
       544       548       551       549       548       550       549       548       551
       550       548       551       548       551       552       548       551       582
       552       551       582       551       552       553       551       552       554
       553       552       554       552       554       555       552       554       556
       552       554       557       555       554       556       555       554       557
       556       554       557       554       557       558       554       557       559
       554       557       580       558       557       559       558       557       580
       559       557       580       557       559       560       557       559       561
       557       559       569       560       559       561       560       559       569
       561       559       569       559       561       562       559       561       563
       559       561       564       562       561       563       562       561       564
       563       561       564       561       564       565       561       564       566
       561       564       567       565       564       566       565       564       567
       566       564       567       564       567       568       564       567       569
       564       567       593       568       567       569       568       567       593
       569       567       593       559       569       567       559       569       570
       559       569       574       567       569       570       567       569       574
       570       569       574       569       570       571       569       570       572
       569       570       573       571       570       572       571       570       573
       572       570       573       569       574       575       569       574       576
       569       574       577       575       574       576       575       574       577
       576       574       577       574       577       578       574       577       579
       574       577       580       578       577       579       578       577       580
       579       577       580       557       580       577       557       580       581
       557       580       582       577       580       581       577       580       582
       581       580       582       551       582       580       551       582       583
       551       582       587       580       582       583       580       582       587
       583       582       587       582       583       584       582       583       585
       582       583       586       584       583       585       584       583       586
       585       583       586       582       587       588       582       587       589
       582       587       590       588       587       589       588       587       590
       589       587       590       544       590       587       544       590       591
       544       590       592       587       590       591       587       590       592
       591       590       592       567       593       594       567       593       595
       567       593       599       594       593       595       594       593       599
       595       593       599       593       595       596       593       595       597
       593       595       598       596       595       597       596       595       598
       597       595       598       593       599       600       593       599       601
       593       599       602       600       599       601       600       599       602
       601       599       602       599       602       603       599       602       604
       599       602       605       603       602       604       603       602       605
       604       602       605       602       605       606       602       605       607
       602       605       608       606       605       607       606       605       608
       607       605       608       605       608       609       605       608       610
       605       608       614       609       608       610       609       608       614
       610       608       614       608       610       611       608       610       612
       608       610       613       611       610       612       611       610       613
       612       610       613       608       614       615       608       614       616
       608       614       617       615       614       616       615       614       617
       616       614       617       619       618       620       619       618       622
       619       618       664       620       618       622       620       618       664
       622       618       664       618       620       621       618       622       623
       618       622       624       618       622       625       623       622       624
       623       622       625       624       622       625       622       625       626
       622       625       656       626       625       656       625       626       627
       625       626       628       627       626       628       626       628       629
       626       628       630       626       628       631       629       628       630
       629       628       631       630       628       631       628       631       632
       628       631       633       628       631       654       632       631       633
       632       631       654       633       631       654       631       633       634
       631       633       635       631       633       643       634       633       635
       634       633       643       635       633       643       633       635       636
       633       635       637       633       635       638       636       635       637
       636       635       638       637       635       638       635       638       639
       635       638       640       635       638       641       639       638       640
       639       638       641       640       638       641       638       641       642
       638       641       643       638       641       667       642       641       643
       642       641       667       643       641       667       633       643       641
       633       643       644       633       643       648       641       643       644
       641       643       648       644       643       648       643       644       645
       643       644       646       643       644       647       645       644       646
       645       644       647       646       644       647       643       648       649
       643       648       650       643       648       651       649       648       650
       649       648       651       650       648       651       648       651       652
       648       651       653       648       651       654       652       651       653
       652       651       654       653       651       654       631       654       651
       631       654       655       631       654       656       651       654       655
       651       654       656       655       654       656       625       656       654
       625       656       657       625       656       661       654       656       657
       654       656       661       657       656       661       656       657       658
       656       657       659       656       657       660       658       657       659
       658       657       660       659       657       660       656       661       662
       656       661       663       656       661       664       662       661       663
       662       661       664       663       661       664       618       664       661
       618       664       665       618       664       666       661       664       665
       661       664       666       665       664       666       641       667       668
       641       667       669       641       667       673       668       667       669
       668       667       673       669       667       673       667       669       670
       667       669       671       667       669       672       670       669       671
       670       669       672       671       669       672       667       673       674
       667       673       675       667       673       676       674       673       675
       674       673       676       675       673       676       673       676       677
       673       676       678       673       676       679       677       676       678
       677       676       679       678       676       679       676       679       680
       676       679       681       676       679       682       680       679       681
       680       679       682       681       679       682       679       682       683
       679       682       684       679       682       688       683       682       684
       683       682       688       684       682       688       682       684       685
       682       684       686       682       684       687       685       684       686
       685       684       687       686       684       687       682       688       689
       682       688       690       682       688       691       689       688       690
       689       688       691       690       688       691       693       692       694
       693       692       696       693       692       738       694       692       696
       694       692       738       696       692       738       692       694       695
       692       696       697       692       696       698       692       696       699
       697       696       698       697       696       699       698       696       699
       696       699       700       696       699       730       700       699       730
       699       700       701       699       700       702       701       700       702
       700       702       703       700       702       704       700       702       705
       703       702       704       703       702       705       704       702       705
       702       705       706       702       705       707       702       705       728
       706       705       707       706       705       728       707       705       728
       705       707       708       705       707       709       705       707       717
       708       707       709       708       707       717       709       707       717
       707       709       710       707       709       711       707       709       712
       710       709       711       710       709       712       711       709       712
       709       712       713       709       712       714       709       712       715
       713       712       714       713       712       715       714       712       715
       712       715       716       712       715       717       712       715       741
       716       715       717       716       715       741       717       715       741
       707       717       715       707       717       718       707       717       722
       715       717       718       715       717       722       718       717       722
       717       718       719       717       718       720       717       718       721
       719       718       720       719       718       721       720       718       721
       717       722       723       717       722       724       717       722       725
       723       722       724       723       722       725       724       722       725
       722       725       726       722       725       727       722       725       728
       726       725       727       726       725       728       727       725       728
       705       728       725       705       728       729       705       728       730
       725       728       729       725       728       730       729       728       730
       699       730       728       699       730       731       699       730       735
       728       730       731       728       730       735       731       730       735
       730       731       732       730       731       733       730       731       734
       732       731       733       732       731       734       733       731       734
       730       735       736       730       735       737       730       735       738
       736       735       737       736       735       738       737       735       738
       692       738       735       692       738       739       692       738       740
       735       738       739       735       738       740       739       738       740
       715       741       742       715       741       743       715       741       747
       742       741       743       742       741       747       743       741       747
       741       743       744       741       743       745       741       743       746
       744       743       745       744       743       746       745       743       746
       741       747       748       741       747       749       741       747       750
       748       747       749       748       747       750       749       747       750
       747       750       751       747       750       752       747       750       753
       751       750       752       751       750       753       752       750       753
       750       753       754       750       753       755       750       753       756
       754       753       755       754       753       756       755       753       756
       753       756       757       753       756       758       753       756       762
       757       756       758       757       756       762       758       756       762
       756       758       759       756       758       760       756       758       761
       759       758       760       759       758       761       760       758       761
       756       762       763       756       762       764       756       762       765
       763       762       764       763       762       765       764       762       765
       767       766       768       767       766       770       767       766       812
       768       766       770       768       766       812       770       766       812
       766       768       769       766       770       771       766       770       772
       766       770       773       771       770       772       771       770       773
       772       770       773       770       773       774       770       773       804
       774       773       804       773       774       775       773       774       776
       775       774       776       774       776       777       774       776       778
       774       776       779       777       776       778       777       776       779
       778       776       779       776       779       780       776       779       781
       776       779       802       780       779       781       780       779       802
       781       779       802       779       781       782       779       781       783
       779       781       791       782       781       783       782       781       791
       783       781       791       781       783       784       781       783       785
       781       783       786       784       783       785       784       783       786
       785       783       786       783       786       787       783       786       788
       783       786       789       787       786       788       787       786       789
       788       786       789       786       789       790       786       789       791
       786       789       815       790       789       791       790       789       815
       791       789       815       781       791       789       781       791       792
       781       791       796       789       791       792       789       791       796
       792       791       796       791       792       793       791       792       794
       791       792       795       793       792       794       793       792       795
       794       792       795       791       796       797       791       796       798
       791       796       799       797       796       798       797       796       799
       798       796       799       796       799       800       796       799       801
       796       799       802       800       799       801       800       799       802
       801       799       802       779       802       799       779       802       803
       779       802       804       799       802       803       799       802       804
       803       802       804       773       804       802       773       804       805
       773       804       809       802       804       805       802       804       809
       805       804       809       804       805       806       804       805       807
       804       805       808       806       805       807       806       805       808
       807       805       808       804       809       810       804       809       811
       804       809       812       810       809       811       810       809       812
       811       809       812       766       812       809       766       812       813
       766       812       814       809       812       813       809       812       814
       813       812       814       789       815       816       789       815       817
       789       815       821       816       815       817       816       815       821
       817       815       821       815       817       818       815       817       819
       815       817       820       818       817       819       818       817       820
       819       817       820       815       821       822       815       821       823
       815       821       824       822       821       823       822       821       824
       823       821       824       821       824       825       821       824       826
       821       824       827       825       824       826       825       824       827
       826       824       827       824       827       828       824       827       829
       824       827       830       828       827       829       828       827       830
       829       827       830       827       830       831       827       830       832
       827       830       836       831       830       832       831       830       836
       832       830       836       830       832       833       830       832       834
       830       832       835       833       832       834       833       832       835
       834       832       835       830       836       837       830       836       838
       830       836       839       837       836       838       837       836       839
       838       836       839       841       840       842       841       840       844
       841       840       886       842       840       844       842       840       886
       844       840       886       840       842       843       840       844       845
       840       844       846       840       844       847       845       844       846
       845       844       847       846       844       847       844       847       848
       844       847       878       848       847       878       847       848       849
       847       848       850       849       848       850       848       850       851
       848       850       852       848       850       853       851       850       852
       851       850       853       852       850       853       850       853       854
       850       853       855       850       853       876       854       853       855
       854       853       876       855       853       876       853       855       856
       853       855       857       853       855       865       856       855       857
       856       855       865       857       855       865       855       857       858
       855       857       859       855       857       860       858       857       859
       858       857       860       859       857       860       857       860       861
       857       860       862       857       860       863       861       860       862
       861       860       863       862       860       863       860       863       864
       860       863       865       860       863       889       864       863       865
       864       863       889       865       863       889       855       865       863
       855       865       866       855       865       870       863       865       866
       863       865       870       866       865       870       865       866       867
       865       866       868       865       866       869       867       866       868
       867       866       869       868       866       869       865       870       871
       865       870       872       865       870       873       871       870       872
       871       870       873       872       870       873       870       873       874
       870       873       875       870       873       876       874       873       875
       874       873       876       875       873       876       853       876       873
       853       876       877       853       876       878       873       876       877
       873       876       878       877       876       878       847       878       876
       847       878       879       847       878       883       876       878       879
       876       878       883       879       878       883       878       879       880
       878       879       881       878       879       882       880       879       881
       880       879       882       881       879       882       878       883       884
       878       883       885       878       883       886       884       883       885
       884       883       886       885       883       886       840       886       883
       840       886       887       840       886       888       883       886       887
       883       886       888       887       886       888       863       889       890
       863       889       891       863       889       895       890       889       891
       890       889       895       891       889       895       889       891       892
       889       891       893       889       891       894       892       891       893
       892       891       894       893       891       894       889       895       896
       889       895       897       889       895       898       896       895       897
       896       895       898       897       895       898       895       898       899
       895       898       900       895       898       901       899       898       900
       899       898       901       900       898       901       898       901       902
       898       901       903       898       901       904       902       901       903
       902       901       904       903       901       904       901       904       905
       901       904       906       901       904       910       905       904       906
       905       904       910       906       904       910       904       906       907
       904       906       908       904       906       909       907       906       908
       907       906       909       908       906       909       904       910       911
       904       910       912       904       910       913       911       910       912
       911       910       913       912       910       913       915       914       916
       915       914       918       915       914       960       916       914       918
       916       914       960       918       914       960       914       916       917
       914       918       919       914       918       920       914       918       921
       919       918       920       919       918       921       920       918       921
       918       921       922       918       921       952       922       921       952
       921       922       923       921       922       924       923       922       924
       922       924       925       922       924       926       922       924       927
       925       924       926       925       924       927       926       924       927
       924       927       928       924       927       929       924       927       950
       928       927       929       928       927       950       929       927       950
       927       929       930       927       929       931       927       929       939
       930       929       931       930       929       939       931       929       939
       929       931       932       929       931       933       929       931       934
       932       931       933       932       931       934       933       931       934
       931       934       935       931       934       936       931       934       937
       935       934       936       935       934       937       936       934       937
       934       937       938       934       937       939       934       937       963
       938       937       939       938       937       963       939       937       963
       929       939       937       929       939       940       929       939       944
       937       939       940       937       939       944       940       939       944
       939       940       941       939       940       942       939       940       943
       941       940       942       941       940       943       942       940       943
       939       944       945       939       944       946       939       944       947
       945       944       946       945       944       947       946       944       947
       944       947       948       944       947       949       944       947       950
       948       947       949       948       947       950       949       947       950
       927       950       947       927       950       951       927       950       952
       947       950       951       947       950       952       951       950       952
       921       952       950       921       952       953       921       952       957
       950       952       953       950       952       957       953       952       957
       952       953       954       952       953       955       952       953       956
       954       953       955       954       953       956       955       953       956
       952       957       958       952       957       959       952       957       960
       958       957       959       958       957       960       959       957       960
       914       960       957       914       960       961       914       960       962
       957       960       961       957       960       962       961       960       962
       937       963       964       937       963       965       937       963       969
       964       963       965       964       963       969       965       963       969
       963       965       966       963       965       967       963       965       968
       966       965       967       966       965       968       967       965       968
       963       969       970       963       969       971       963       969       972
       970       969       971       970       969       972       971       969       972
       969       972       973       969       972       974       969       972       975
       973       972       974       973       972       975       974       972       975
       972       975       976       972       975       977       972       975       978
       976       975       977       976       975       978       977       975       978
       975       978       979       975       978       980       975       978       984
       979       978       980       979       978       984       980       978       984
       978       980       981       978       980       982       978       980       983
       981       980       982       981       980       983       982       980       983
       978       984       985       978       984       986       978       984       987
       985       984       986       985       984       987       986       984       987
       989       988       990       989       988       992       989       988      1034
       990       988       992       990       988      1034       992       988      1034
       988       990       991       988       992       993       988       992       994
       988       992       995       993       992       994       993       992       995
       994       992       995       992       995       996       992       995      1026
       996       995      1026       995       996       997       995       996       998
       997       996       998       996       998       999       996       998      1000
       996       998      1001       999       998      1000       999       998      1001
      1000       998      1001       998      1001      1002       998      1001      1003
       998      1001      1024      1002      1001      1003      1002      1001      1024
      1003      1001      1024      1001      1003      1004      1001      1003      1005
      1001      1003      1013      1004      1003      1005      1004      1003      1013
      1005      1003      1013      1003      1005      1006      1003      1005      1007
      1003      1005      1008      1006      1005      1007      1006      1005      1008
      1007      1005      1008      1005      1008      1009      1005      1008      1010
      1005      1008      1011      1009      1008      1010      1009      1008      1011
      1010      1008      1011      1008      1011      1012      1008      1011      1013
      1008      1011      1037      1012      1011      1013      1012      1011      1037
      1013      1011      1037      1003      1013      1011      1003      1013      1014
      1003      1013      1018      1011      1013      1014      1011      1013      1018
      1014      1013      1018      1013      1014      1015      1013      1014      1016
      1013      1014      1017      1015      1014      1016      1015      1014      1017
      1016      1014      1017      1013      1018      1019      1013      1018      1020
      1013      1018      1021      1019      1018      1020      1019      1018      1021
      1020      1018      1021      1018      1021      1022      1018      1021      1023
      1018      1021      1024      1022      1021      1023      1022      1021      1024
      1023      1021      1024      1001      1024      1021      1001      1024      1025
      1001      1024      1026      1021      1024      1025      1021      1024      1026
      1025      1024      1026       995      1026      1024       995      1026      1027
       995      1026      1031      1024      1026      1027      1024      1026      1031
      1027      1026      1031      1026      1027      1028      1026      1027      1029
      1026      1027      1030      1028      1027      1029      1028      1027      1030
      1029      1027      1030      1026      1031      1032      1026      1031      1033
      1026      1031      1034      1032      1031      1033      1032      1031      1034
      1033      1031      1034       988      1034      1031       988      1034      1035
       988      1034      1036      1031      1034      1035      1031      1034      1036
      1035      1034      1036      1011      1037      1038      1011      1037      1039
      1011      1037      1043      1038      1037      1039      1038      1037      1043
      1039      1037      1043      1037      1039      1040      1037      1039      1041
      1037      1039      1042      1040      1039      1041      1040      1039      1042
      1041      1039      1042      1037      1043      1044      1037      1043      1045
      1037      1043      1046      1044      1043      1045      1044      1043      1046
      1045      1043      1046      1043      1046      1047      1043      1046      1048
      1043      1046      1049      1047      1046      1048      1047      1046      1049
      1048      1046      1049      1046      1049      1050      1046      1049      1051
      1046      1049      1052      1050      1049      1051      1050      1049      1052
      1051      1049      1052      1049      1052      1053      1049      1052      1054
      1049      1052      1058      1053      1052      1054      1053      1052      1058
      1054      1052      1058      1052      1054      1055      1052      1054      1056
      1052      1054      1057      1055      1054      1056      1055      1054      1057
      1056      1054      1057      1052      1058      1059      1052      1058      1060
      1052      1058      1061      1059      1058      1060      1059      1058      1061
      1060      1058      1061      1063      1062      1064      1063      1062      1066
      1063      1062      1108      1064      1062      1066      1064      1062      1108
      1066      1062      1108      1062      1064      1065      1062      1066      1067
      1062      1066      1068      1062      1066      1069      1067      1066      1068
      1067      1066      1069      1068      1066      1069      1066      1069      1070
      1066      1069      1100      1070      1069      1100      1069      1070      1071
      1069      1070      1072      1071      1070      1072      1070      1072      1073
      1070      1072      1074      1070      1072      1075      1073      1072      1074
      1073      1072      1075      1074      1072      1075      1072      1075      1076
      1072      1075      1077      1072      1075      1098      1076      1075      1077
      1076      1075      1098      1077      1075      1098      1075      1077      1078
      1075      1077      1079      1075      1077      1087      1078      1077      1079
      1078      1077      1087      1079      1077      1087      1077      1079      1080
      1077      1079      1081      1077      1079      1082      1080      1079      1081
      1080      1079      1082      1081      1079      1082      1079      1082      1083
      1079      1082      1084      1079      1082      1085      1083      1082      1084
      1083      1082      1085      1084      1082      1085      1082      1085      1086
      1082      1085      1087      1082      1085      1111      1086      1085      1087
      1086      1085      1111      1087      1085      1111      1077      1087      1085
      1077      1087      1088      1077      1087      1092      1085      1087      1088
      1085      1087      1092      1088      1087      1092      1087      1088      1089
      1087      1088      1090      1087      1088      1091      1089      1088      1090
      1089      1088      1091      1090      1088      1091      1087      1092      1093
      1087      1092      1094      1087      1092      1095      1093      1092      1094
      1093      1092      1095      1094      1092      1095      1092      1095      1096
      1092      1095      1097      1092      1095      1098      1096      1095      1097
      1096      1095      1098      1097      1095      1098      1075      1098      1095
      1075      1098      1099      1075      1098      1100      1095      1098      1099
      1095      1098      1100      1099      1098      1100      1069      1100      1098
      1069      1100      1101      1069      1100      1105      1098      1100      1101
      1098      1100      1105      1101      1100      1105      1100      1101      1102
      1100      1101      1103      1100      1101      1104      1102      1101      1103
      1102      1101      1104      1103      1101      1104      1100      1105      1106
      1100      1105      1107      1100      1105      1108      1106      1105      1107
      1106      1105      1108      1107      1105      1108      1062      1108      1105
      1062      1108      1109      1062      1108      1110      1105      1108      1109
      1105      1108      1110      1109      1108      1110      1085      1111      1112
      1085      1111      1113      1085      1111      1117      1112      1111      1113
      1112      1111      1117      1113      1111      1117      1111      1113      1114
      1111      1113      1115      1111      1113      1116      1114      1113      1115
      1114      1113      1116      1115      1113      1116      1111      1117      1118
      1111      1117      1119      1111      1117      1120      1118      1117      1119
      1118      1117      1120      1119      1117      1120      1117      1120      1121
      1117      1120      1122      1117      1120      1123      1121      1120      1122
      1121      1120      1123      1122      1120      1123      1120      1123      1124
      1120      1123      1125      1120      1123      1126      1124      1123      1125
      1124      1123      1126      1125      1123      1126      1123      1126      1127
      1123      1126      1128      1123      1126      1132      1127      1126      1128
      1127      1126      1132      1128      1126      1132      1126      1128      1129
      1126      1128      1130      1126      1128      1131      1129      1128      1130
      1129      1128      1131      1130      1128      1131      1126      1132      1133
      1126      1132      1134      1126      1132      1135      1133      1132      1134
      1133      1132      1135      1134      1132      1135      1137      1136      1138
      1137      1136      1140      1137      1136      1182      1138      1136      1140
      1138      1136      1182      1140      1136      1182      1136      1138      1139
      1136      1140      1141      1136      1140      1142      1136      1140      1143
      1141      1140      1142      1141      1140      1143      1142      1140      1143
      1140      1143      1144      1140      1143      1174      1144      1143      1174
      1143      1144      1145      1143      1144      1146      1145      1144      1146
      1144      1146      1147      1144      1146      1148      1144      1146      1149
      1147      1146      1148      1147      1146      1149      1148      1146      1149
      1146      1149      1150      1146      1149      1151      1146      1149      1172
      1150      1149      1151      1150      1149      1172      1151      1149      1172
      1149      1151      1152      1149      1151      1153      1149      1151      1161
      1152      1151      1153      1152      1151      1161      1153      1151      1161
      1151      1153      1154      1151      1153      1155      1151      1153      1156
      1154      1153      1155      1154      1153      1156      1155      1153      1156
      1153      1156      1157      1153      1156      1158      1153      1156      1159
      1157      1156      1158      1157      1156      1159      1158      1156      1159
      1156      1159      1160      1156      1159      1161      1156      1159      1185
      1160      1159      1161      1160      1159      1185      1161      1159      1185
      1151      1161      1159      1151      1161      1162      1151      1161      1166
      1159      1161      1162      1159      1161      1166      1162      1161      1166
      1161      1162      1163      1161      1162      1164      1161      1162      1165
      1163      1162      1164      1163      1162      1165      1164      1162      1165
      1161      1166      1167      1161      1166      1168      1161      1166      1169
      1167      1166      1168      1167      1166      1169      1168      1166      1169
      1166      1169      1170      1166      1169      1171      1166      1169      1172
      1170      1169      1171      1170      1169      1172      1171      1169      1172
      1149      1172      1169      1149      1172      1173      1149      1172      1174
      1169      1172      1173      1169      1172      1174      1173      1172      1174
      1143      1174      1172      1143      1174      1175      1143      1174      1179
      1172      1174      1175      1172      1174      1179      1175      1174      1179
      1174      1175      1176      1174      1175      1177      1174      1175      1178
      1176      1175      1177      1176      1175      1178      1177      1175      1178
      1174      1179      1180      1174      1179      1181      1174      1179      1182
      1180      1179      1181      1180      1179      1182      1181      1179      1182
      1136      1182      1179      1136      1182      1183      1136      1182      1184
      1179      1182      1183      1179      1182      1184      1183      1182      1184
      1159      1185      1186      1159      1185      1187      1159      1185      1191
      1186      1185      1187      1186      1185      1191      1187      1185      1191
      1185      1187      1188      1185      1187      1189      1185      1187      1190
      1188      1187      1189      1188      1187      1190      1189      1187      1190
      1185      1191      1192      1185      1191      1193      1185      1191      1194
      1192      1191      1193      1192      1191      1194      1193      1191      1194
      1191      1194      1195      1191      1194      1196      1191      1194      1197
      1195      1194      1196      1195      1194      1197      1196      1194      1197
      1194      1197      1198      1194      1197      1199      1194      1197      1200
      1198      1197      1199      1198      1197      1200      1199      1197      1200
      1197      1200      1201      1197      1200      1202      1197      1200      1206
      1201      1200      1202      1201      1200      1206      1202      1200      1206
      1200      1202      1203      1200      1202      1204      1200      1202      1205
      1203      1202      1204      1203      1202      1205      1204      1202      1205
      1200      1206      1207      1200      1206      1208      1200      1206      1209
      1207      1206      1208      1207      1206      1209      1208      1206      1209
      1211      1210      1212      1211      1210      1214      1211      1210      1256
      1212      1210      1214      1212      1210      1256      1214      1210      1256
      1210      1212      1213      1210      1214      1215      1210      1214      1216
      1210      1214      1217      1215      1214      1216      1215      1214      1217
      1216      1214      1217      1214      1217      1218      1214      1217      1248
      1218      1217      1248      1217      1218      1219      1217      1218      1220
      1219      1218      1220      1218      1220      1221      1218      1220      1222
      1218      1220      1223      1221      1220      1222      1221      1220      1223
      1222      1220      1223      1220      1223      1224      1220      1223      1225
      1220      1223      1246      1224      1223      1225      1224      1223      1246
      1225      1223      1246      1223      1225      1226      1223      1225      1227
      1223      1225      1235      1226      1225      1227      1226      1225      1235
      1227      1225      1235      1225      1227      1228      1225      1227      1229
      1225      1227      1230      1228      1227      1229      1228      1227      1230
      1229      1227      1230      1227      1230      1231      1227      1230      1232
      1227      1230      1233      1231      1230      1232      1231      1230      1233
      1232      1230      1233      1230      1233      1234      1230      1233      1235
      1230      1233      1259      1234      1233      1235      1234      1233      1259
      1235      1233      1259      1225      1235      1233      1225      1235      1236
      1225      1235      1240      1233      1235      1236      1233      1235      1240
      1236      1235      1240      1235      1236      1237      1235      1236      1238
      1235      1236      1239      1237      1236      1238      1237      1236      1239
      1238      1236      1239      1235      1240      1241      1235      1240      1242
      1235      1240      1243      1241      1240      1242      1241      1240      1243
      1242      1240      1243      1240      1243      1244      1240      1243      1245
      1240      1243      1246      1244      1243      1245      1244      1243      1246
      1245      1243      1246      1223      1246      1243      1223      1246      1247
      1223      1246      1248      1243      1246      1247      1243      1246      1248
      1247      1246      1248      1217      1248      1246      1217      1248      1249
      1217      1248      1253      1246      1248      1249      1246      1248      1253
      1249      1248      1253      1248      1249      1250      1248      1249      1251
      1248      1249      1252      1250      1249      1251      1250      1249      1252
      1251      1249      1252      1248      1253      1254      1248      1253      1255
      1248      1253      1256      1254      1253      1255      1254      1253      1256
      1255      1253      1256      1210      1256      1253      1210      1256      1257
      1210      1256      1258      1253      1256      1257      1253      1256      1258
      1257      1256      1258      1233      1259      1260      1233      1259      1261
      1233      1259      1265      1260      1259      1261      1260      1259      1265
      1261      1259      1265      1259      1261      1262      1259      1261      1263
      1259      1261      1264      1262      1261      1263      1262      1261      1264
      1263      1261      1264      1259      1265      1266      1259      1265      1267
      1259      1265      1268      1266      1265      1267      1266      1265      1268
      1267      1265      1268      1265      1268      1269      1265      1268      1270
      1265      1268      1271      1269      1268      1270      1269      1268      1271
      1270      1268      1271      1268      1271      1272      1268      1271      1273
      1268      1271      1274      1272      1271      1273      1272      1271      1274
      1273      1271      1274      1271      1274      1275      1271      1274      1276
      1271      1274      1280      1275      1274      1276      1275      1274      1280
      1276      1274      1280      1274      1276      1277      1274      1276      1278
      1274      1276      1279      1277      1276      1278      1277      1276      1279
      1278      1276      1279      1274      1280      1281      1274      1280      1282
      1274      1280      1283      1281      1280      1282      1281      1280      1283
      1282      1280      1283      1285      1284      1286      1285      1284      1288
      1285      1284      1330      1286      1284      1288      1286      1284      1330
      1288      1284      1330      1284      1286      1287      1284      1288      1289
      1284      1288      1290      1284      1288      1291      1289      1288      1290
      1289      1288      1291      1290      1288      1291      1288      1291      1292
      1288      1291      1322      1292      1291      1322      1291      1292      1293
      1291      1292      1294      1293      1292      1294      1292      1294      1295
      1292      1294      1296      1292      1294      1297      1295      1294      1296
      1295      1294      1297      1296      1294      1297      1294      1297      1298
      1294      1297      1299      1294      1297      1320      1298      1297      1299
      1298      1297      1320      1299      1297      1320      1297      1299      1300
      1297      1299      1301      1297      1299      1309      1300      1299      1301
      1300      1299      1309      1301      1299      1309      1299      1301      1302
      1299      1301      1303      1299      1301      1304      1302      1301      1303
      1302      1301      1304      1303      1301      1304      1301      1304      1305
      1301      1304      1306      1301      1304      1307      1305      1304      1306
      1305      1304      1307      1306      1304      1307      1304      1307      1308
      1304      1307      1309      1304      1307      1333      1308      1307      1309
      1308      1307      1333      1309      1307      1333      1299      1309      1307
      1299      1309      1310      1299      1309      1314      1307      1309      1310
      1307      1309      1314      1310      1309      1314      1309      1310      1311
      1309      1310      1312      1309      1310      1313      1311      1310      1312
      1311      1310      1313      1312      1310      1313      1309      1314      1315
      1309      1314      1316      1309      1314      1317      1315      1314      1316
      1315      1314      1317      1316      1314      1317      1314      1317      1318
      1314      1317      1319      1314      1317      1320      1318      1317      1319
      1318      1317      1320      1319      1317      1320      1297      1320      1317
      1297      1320      1321      1297      1320      1322      1317      1320      1321
      1317      1320      1322      1321      1320      1322      1291      1322      1320
      1291      1322      1323      1291      1322      1327      1320      1322      1323
      1320      1322      1327      1323      1322      1327      1322      1323      1324
      1322      1323      1325      1322      1323      1326      1324      1323      1325
      1324      1323      1326      1325      1323      1326      1322      1327      1328
      1322      1327      1329      1322      1327      1330      1328      1327      1329
      1328      1327      1330      1329      1327      1330      1284      1330      1327
      1284      1330      1331      1284      1330      1332      1327      1330      1331
      1327      1330      1332      1331      1330      1332      1307      1333      1334
      1307      1333      1335      1307      1333      1339      1334      1333      1335
      1334      1333      1339      1335      1333      1339      1333      1335      1336
      1333      1335      1337      1333      1335      1338      1336      1335      1337
      1336      1335      1338      1337      1335      1338      1333      1339      1340
      1333      1339      1341      1333      1339      1342      1340      1339      1341
      1340      1339      1342      1341      1339      1342      1339      1342      1343
      1339      1342      1344      1339      1342      1345      1343      1342      1344
      1343      1342      1345      1344      1342      1345      1342      1345      1346
      1342      1345      1347      1342      1345      1348      1346      1345      1347
      1346      1345      1348      1347      1345      1348      1345      1348      1349
      1345      1348      1350      1345      1348      1354      1349      1348      1350
      1349      1348      1354      1350      1348      1354      1348      1350      1351
      1348      1350      1352      1348      1350      1353      1351      1350      1352
      1351      1350      1353      1352      1350      1353      1348      1354      1355
      1348      1354      1356      1348      1354      1357      1355      1354      1356
      1355      1354      1357      1356      1354      1357      1359      1358      1360
      1359      1358      1362      1359      1358      1404      1360      1358      1362
      1360      1358      1404      1362      1358      1404      1358      1360      1361
      1358      1362      1363      1358      1362      1364      1358      1362      1365
      1363      1362      1364      1363      1362      1365      1364      1362      1365
      1362      1365      1366      1362      1365      1396      1366      1365      1396
      1365      1366      1367      1365      1366      1368      1367      1366      1368
      1366      1368      1369      1366      1368      1370      1366      1368      1371
      1369      1368      1370      1369      1368      1371      1370      1368      1371
      1368      1371      1372      1368      1371      1373      1368      1371      1394
      1372      1371      1373      1372      1371      1394      1373      1371      1394
      1371      1373      1374      1371      1373      1375      1371      1373      1383
      1374      1373      1375      1374      1373      1383      1375      1373      1383
      1373      1375      1376      1373      1375      1377      1373      1375      1378
      1376      1375      1377      1376      1375      1378      1377      1375      1378
      1375      1378      1379      1375      1378      1380      1375      1378      1381
      1379      1378      1380      1379      1378      1381      1380      1378      1381
      1378      1381      1382      1378      1381      1383      1378      1381      1407
      1382      1381      1383      1382      1381      1407      1383      1381      1407
      1373      1383      1381      1373      1383      1384      1373      1383      1388
      1381      1383      1384      1381      1383      1388      1384      1383      1388
      1383      1384      1385      1383      1384      1386      1383      1384      1387
      1385      1384      1386      1385      1384      1387      1386      1384      1387
      1383      1388      1389      1383      1388      1390      1383      1388      1391
      1389      1388      1390      1389      1388      1391      1390      1388      1391
      1388      1391      1392      1388      1391      1393      1388      1391      1394
      1392      1391      1393      1392      1391      1394      1393      1391      1394
      1371      1394      1391      1371      1394      1395      1371      1394      1396
      1391      1394      1395      1391      1394      1396      1395      1394      1396
      1365      1396      1394      1365      1396      1397      1365      1396      1401
      1394      1396      1397      1394      1396      1401      1397      1396      1401
      1396      1397      1398      1396      1397      1399      1396      1397      1400
      1398      1397      1399      1398      1397      1400      1399      1397      1400
      1396      1401      1402      1396      1401      1403      1396      1401      1404
      1402      1401      1403      1402      1401      1404      1403      1401      1404
      1358      1404      1401      1358      1404      1405      1358      1404      1406
      1401      1404      1405      1401      1404      1406      1405      1404      1406
      1381      1407      1408      1381      1407      1409      1381      1407      1413
      1408      1407      1409      1408      1407      1413      1409      1407      1413
      1407      1409      1410      1407      1409      1411      1407      1409      1412
      1410      1409      1411      1410      1409      1412      1411      1409      1412
      1407      1413      1414      1407      1413      1415      1407      1413      1416
      1414      1413      1415      1414      1413      1416      1415      1413      1416
      1413      1416      1417      1413      1416      1418      1413      1416      1419
      1417      1416      1418      1417      1416      1419      1418      1416      1419
      1416      1419      1420      1416      1419      1421      1416      1419      1422
      1420      1419      1421      1420      1419      1422      1421      1419      1422
      1419      1422      1423      1419      1422      1424      1419      1422      1428
      1423      1422      1424      1423      1422      1428      1424      1422      1428
      1422      1424      1425      1422      1424      1426      1422      1424      1427
      1425      1424      1426      1425      1424      1427      1426      1424      1427
      1422      1428      1429      1422      1428      1430      1422      1428      1431
      1429      1428      1430      1429      1428      1431      1430      1428      1431
      1433      1432      1434      1433      1432      1436      1433      1432      1478
      1434      1432      1436      1434      1432      1478      1436      1432      1478
      1432      1434      1435      1432      1436      1437      1432      1436      1438
      1432      1436      1439      1437      1436      1438      1437      1436      1439
      1438      1436      1439      1436      1439      1440      1436      1439      1470
      1440      1439      1470      1439      1440      1441      1439      1440      1442
      1441      1440      1442      1440      1442      1443      1440      1442      1444
      1440      1442      1445      1443      1442      1444      1443      1442      1445
      1444      1442      1445      1442      1445      1446      1442      1445      1447
      1442      1445      1468      1446      1445      1447      1446      1445      1468
      1447      1445      1468      1445      1447      1448      1445      1447      1449
      1445      1447      1457      1448      1447      1449      1448      1447      1457
      1449      1447      1457      1447      1449      1450      1447      1449      1451
      1447      1449      1452      1450      1449      1451      1450      1449      1452
      1451      1449      1452      1449      1452      1453      1449      1452      1454
      1449      1452      1455      1453      1452      1454      1453      1452      1455
      1454      1452      1455      1452      1455      1456      1452      1455      1457
      1452      1455      1481      1456      1455      1457      1456      1455      1481
      1457      1455      1481      1447      1457      1455      1447      1457      1458
      1447      1457      1462      1455      1457      1458      1455      1457      1462
      1458      1457      1462      1457      1458      1459      1457      1458      1460
      1457      1458      1461      1459      1458      1460      1459      1458      1461
      1460      1458      1461      1457      1462      1463      1457      1462      1464
      1457      1462      1465      1463      1462      1464      1463      1462      1465
      1464      1462      1465      1462      1465      1466      1462      1465      1467
      1462      1465      1468      1466      1465      1467      1466      1465      1468
      1467      1465      1468      1445      1468      1465      1445      1468      1469
      1445      1468      1470      1465      1468      1469      1465      1468      1470
      1469      1468      1470      1439      1470      1468      1439      1470      1471
      1439      1470      1475      1468      1470      1471      1468      1470      1475
      1471      1470      1475      1470      1471      1472      1470      1471      1473
      1470      1471      1474      1472      1471      1473      1472      1471      1474
      1473      1471      1474      1470      1475      1476      1470      1475      1477
      1470      1475      1478      1476      1475      1477      1476      1475      1478
      1477      1475      1478      1432      1478      1475      1432      1478      1479
      1432      1478      1480      1475      1478      1479      1475      1478      1480
      1479      1478      1480      1455      1481      1482      1455      1481      1483
      1455      1481      1487      1482      1481      1483      1482      1481      1487
      1483      1481      1487      1481      1483      1484      1481      1483      1485
      1481      1483      1486      1484      1483      1485      1484      1483      1486
      1485      1483      1486      1481      1487      1488      1481      1487      1489
      1481      1487      1490      1488      1487      1489      1488      1487      1490
      1489      1487      1490      1487      1490      1491      1487      1490      1492
      1487      1490      1493      1491      1490      1492      1491      1490      1493
      1492      1490      1493      1490      1493      1494      1490      1493      1495
      1490      1493      1496      1494      1493      1495      1494      1493      1496
      1495      1493      1496      1493      1496      1497      1493      1496      1498
      1493      1496      1502      1497      1496      1498      1497      1496      1502
      1498      1496      1502      1496      1498      1499      1496      1498      1500
      1496      1498      1501      1499      1498      1500      1499      1498      1501
      1500      1498      1501      1496      1502      1503      1496      1502      1504
      1496      1502      1505      1503      1502      1504      1503      1502      1505
      1504      1502      1505      1507      1506      1508      1507      1506      1510
      1507      1506      1552      1508      1506      1510      1508      1506      1552
      1510      1506      1552      1506      1508      1509      1506      1510      1511
      1506      1510      1512      1506      1510      1513      1511      1510      1512
      1511      1510      1513      1512      1510      1513      1510      1513      1514
      1510      1513      1544      1514      1513      1544      1513      1514      1515
      1513      1514      1516      1515      1514      1516      1514      1516      1517
      1514      1516      1518      1514      1516      1519      1517      1516      1518
      1517      1516      1519      1518      1516      1519      1516      1519      1520
      1516      1519      1521      1516      1519      1542      1520      1519      1521
      1520      1519      1542      1521      1519      1542      1519      1521      1522
      1519      1521      1523      1519      1521      1531      1522      1521      1523
      1522      1521      1531      1523      1521      1531      1521      1523      1524
      1521      1523      1525      1521      1523      1526      1524      1523      1525
      1524      1523      1526      1525      1523      1526      1523      1526      1527
      1523      1526      1528      1523      1526      1529      1527      1526      1528
      1527      1526      1529      1528      1526      1529      1526      1529      1530
      1526      1529      1531      1526      1529      1555      1530      1529      1531
      1530      1529      1555      1531      1529      1555      1521      1531      1529
      1521      1531      1532      1521      1531      1536      1529      1531      1532
      1529      1531      1536      1532      1531      1536      1531      1532      1533
      1531      1532      1534      1531      1532      1535      1533      1532      1534
      1533      1532      1535      1534      1532      1535      1531      1536      1537
      1531      1536      1538      1531      1536      1539      1537      1536      1538
      1537      1536      1539      1538      1536      1539      1536      1539      1540
      1536      1539      1541      1536      1539      1542      1540      1539      1541
      1540      1539      1542      1541      1539      1542      1519      1542      1539
      1519      1542      1543      1519      1542      1544      1539      1542      1543
      1539      1542      1544      1543      1542      1544      1513      1544      1542
      1513      1544      1545      1513      1544      1549      1542      1544      1545
      1542      1544      1549      1545      1544      1549      1544      1545      1546
      1544      1545      1547      1544      1545      1548      1546      1545      1547
      1546      1545      1548      1547      1545      1548      1544      1549      1550
      1544      1549      1551      1544      1549      1552      1550      1549      1551
      1550      1549      1552      1551      1549      1552      1506      1552      1549
      1506      1552      1553      1506      1552      1554      1549      1552      1553
      1549      1552      1554      1553      1552      1554      1529      1555      1556
      1529      1555      1557      1529      1555      1561      1556      1555      1557
      1556      1555      1561      1557      1555      1561      1555      1557      1558
      1555      1557      1559      1555      1557      1560      1558      1557      1559
      1558      1557      1560      1559      1557      1560      1555      1561      1562
      1555      1561      1563      1555      1561      1564      1562      1561      1563
      1562      1561      1564      1563      1561      1564      1561      1564      1565
      1561      1564      1566      1561      1564      1567      1565      1564      1566
      1565      1564      1567      1566      1564      1567      1564      1567      1568
      1564      1567      1569      1564      1567      1570      1568      1567      1569
      1568      1567      1570      1569      1567      1570      1567      1570      1571
      1567      1570      1572      1567      1570      1576      1571      1570      1572
      1571      1570      1576      1572      1570      1576      1570      1572      1573
      1570      1572      1574      1570      1572      1575      1573      1572      1574
      1573      1572      1575      1574      1572      1575      1570      1576      1577
      1570      1576      1578      1570      1576      1579      1577      1576      1578
      1577      1576      1579      1578      1576      1579      1581      1580      1582
      1581      1580      1584      1581      1580      1626      1582      1580      1584
      1582      1580      1626      1584      1580      1626      1580      1582      1583
      1580      1584      1585      1580      1584      1586      1580      1584      1587
      1585      1584      1586      1585      1584      1587      1586      1584      1587
      1584      1587      1588      1584      1587      1618      1588      1587      1618
      1587      1588      1589      1587      1588      1590      1589      1588      1590
      1588      1590      1591      1588      1590      1592      1588      1590      1593
      1591      1590      1592      1591      1590      1593      1592      1590      1593
      1590      1593      1594      1590      1593      1595      1590      1593      1616
      1594      1593      1595      1594      1593      1616      1595      1593      1616
      1593      1595      1596      1593      1595      1597      1593      1595      1605
      1596      1595      1597      1596      1595      1605      1597      1595      1605
      1595      1597      1598      1595      1597      1599      1595      1597      1600
      1598      1597      1599      1598      1597      1600      1599      1597      1600
      1597      1600      1601      1597      1600      1602      1597      1600      1603
      1601      1600      1602      1601      1600      1603      1602      1600      1603
      1600      1603      1604      1600      1603      1605      1600      1603      1629
      1604      1603      1605      1604      1603      1629      1605      1603      1629
      1595      1605      1603      1595      1605      1606      1595      1605      1610
      1603      1605      1606      1603      1605      1610      1606      1605      1610
      1605      1606      1607      1605      1606      1608      1605      1606      1609
      1607      1606      1608      1607      1606      1609      1608      1606      1609
      1605      1610      1611      1605      1610      1612      1605      1610      1613
      1611      1610      1612      1611      1610      1613      1612      1610      1613
      1610      1613      1614      1610      1613      1615      1610      1613      1616
      1614      1613      1615      1614      1613      1616      1615      1613      1616
      1593      1616      1613      1593      1616      1617      1593      1616      1618
      1613      1616      1617      1613      1616      1618      1617      1616      1618
      1587      1618      1616      1587      1618      1619      1587      1618      1623
      1616      1618      1619      1616      1618      1623      1619      1618      1623
      1618      1619      1620      1618      1619      1621      1618      1619      1622
      1620      1619      1621      1620      1619      1622      1621      1619      1622
      1618      1623      1624      1618      1623      1625      1618      1623      1626
      1624      1623      1625      1624      1623      1626      1625      1623      1626
      1580      1626      1623      1580      1626      1627      1580      1626      1628
      1623      1626      1627      1623      1626      1628      1627      1626      1628
      1603      1629      1630      1603      1629      1631      1603      1629      1635
      1630      1629      1631      1630      1629      1635      1631      1629      1635
      1629      1631      1632      1629      1631      1633      1629      1631      1634
      1632      1631      1633      1632      1631      1634      1633      1631      1634
      1629      1635      1636      1629      1635      1637      1629      1635      1638
      1636      1635      1637      1636      1635      1638      1637      1635      1638
      1635      1638      1639      1635      1638      1640      1635      1638      1641
      1639      1638      1640      1639      1638      1641      1640      1638      1641
      1638      1641      1642      1638      1641      1643      1638      1641      1644
      1642      1641      1643      1642      1641      1644      1643      1641      1644
      1641      1644      1645      1641      1644      1646      1641      1644      1650
      1645      1644      1646      1645      1644      1650      1646      1644      1650
      1644      1646      1647      1644      1646      1648      1644      1646      1649
      1647      1646      1648      1647      1646      1649      1648      1646      1649
      1644      1650      1651      1644      1650      1652      1644      1650      1653
      1651      1650      1652      1651      1650      1653      1652      1650      1653
      1655      1654      1656      1655      1654      1658      1655      1654      1700
      1656      1654      1658      1656      1654      1700      1658      1654      1700
      1654      1656      1657      1654      1658      1659      1654      1658      1660
      1654      1658      1661      1659      1658      1660      1659      1658      1661
      1660      1658      1661      1658      1661      1662      1658      1661      1692
      1662      1661      1692      1661      1662      1663      1661      1662      1664
      1663      1662      1664      1662      1664      1665      1662      1664      1666
      1662      1664      1667      1665      1664      1666      1665      1664      1667
      1666      1664      1667      1664      1667      1668      1664      1667      1669
      1664      1667      1690      1668      1667      1669      1668      1667      1690
      1669      1667      1690      1667      1669      1670      1667      1669      1671
      1667      1669      1679      1670      1669      1671      1670      1669      1679
      1671      1669      1679      1669      1671      1672      1669      1671      1673
      1669      1671      1674      1672      1671      1673      1672      1671      1674
      1673      1671      1674      1671      1674      1675      1671      1674      1676
      1671      1674      1677      1675      1674      1676      1675      1674      1677
      1676      1674      1677      1674      1677      1678      1674      1677      1679
      1674      1677      1703      1678      1677      1679      1678      1677      1703
      1679      1677      1703      1669      1679      1677      1669      1679      1680
      1669      1679      1684      1677      1679      1680      1677      1679      1684
      1680      1679      1684      1679      1680      1681      1679      1680      1682
      1679      1680      1683      1681      1680      1682      1681      1680      1683
      1682      1680      1683      1679      1684      1685      1679      1684      1686
      1679      1684      1687      1685      1684      1686      1685      1684      1687
      1686      1684      1687      1684      1687      1688      1684      1687      1689
      1684      1687      1690      1688      1687      1689      1688      1687      1690
      1689      1687      1690      1667      1690      1687      1667      1690      1691
      1667      1690      1692      1687      1690      1691      1687      1690      1692
      1691      1690      1692      1661      1692      1690      1661      1692      1693
      1661      1692      1697      1690      1692      1693      1690      1692      1697
      1693      1692      1697      1692      1693      1694      1692      1693      1695
      1692      1693      1696      1694      1693      1695      1694      1693      1696
      1695      1693      1696      1692      1697      1698      1692      1697      1699
      1692      1697      1700      1698      1697      1699      1698      1697      1700
      1699      1697      1700      1654      1700      1697      1654      1700      1701
      1654      1700      1702      1697      1700      1701      1697      1700      1702
      1701      1700      1702      1677      1703      1704      1677      1703      1705
      1677      1703      1709      1704      1703      1705      1704      1703      1709
      1705      1703      1709      1703      1705      1706      1703      1705      1707
      1703      1705      1708      1706      1705      1707      1706      1705      1708
      1707      1705      1708      1703      1709      1710      1703      1709      1711
      1703      1709      1712      1710      1709      1711      1710      1709      1712
      1711      1709      1712      1709      1712      1713      1709      1712      1714
      1709      1712      1715      1713      1712      1714      1713      1712      1715
      1714      1712      1715      1712      1715      1716      1712      1715      1717
      1712      1715      1718      1716      1715      1717      1716      1715      1718
      1717      1715      1718      1715      1718      1719      1715      1718      1720
      1715      1718      1724      1719      1718      1720      1719      1718      1724
      1720      1718      1724      1718      1720      1721      1718      1720      1722
      1718      1720      1723      1721      1720      1722      1721      1720      1723
      1722      1720      1723      1718      1724      1725      1718      1724      1726
      1718      1724      1727      1725      1724      1726      1725      1724      1727
      1726      1724      1727      1729      1728      1730      1729      1728      1732
      1729      1728      1774      1730      1728      1732      1730      1728      1774
      1732      1728      1774      1728      1730      1731      1728      1732      1733
      1728      1732      1734      1728      1732      1735      1733      1732      1734
      1733      1732      1735      1734      1732      1735      1732      1735      1736
      1732      1735      1766      1736      1735      1766      1735      1736      1737
      1735      1736      1738      1737      1736      1738      1736      1738      1739
      1736      1738      1740      1736      1738      1741      1739      1738      1740
      1739      1738      1741      1740      1738      1741      1738      1741      1742
      1738      1741      1743      1738      1741      1764      1742      1741      1743
      1742      1741      1764      1743      1741      1764      1741      1743      1744
      1741      1743      1745      1741      1743      1753      1744      1743      1745
      1744      1743      1753      1745      1743      1753      1743      1745      1746
      1743      1745      1747      1743      1745      1748      1746      1745      1747
      1746      1745      1748      1747      1745      1748      1745      1748      1749
      1745      1748      1750      1745      1748      1751      1749      1748      1750
      1749      1748      1751      1750      1748      1751      1748      1751      1752
      1748      1751      1753      1748      1751      1777      1752      1751      1753
      1752      1751      1777      1753      1751      1777      1743      1753      1751
      1743      1753      1754      1743      1753      1758      1751      1753      1754
      1751      1753      1758      1754      1753      1758      1753      1754      1755
      1753      1754      1756      1753      1754      1757      1755      1754      1756
      1755      1754      1757      1756      1754      1757      1753      1758      1759
      1753      1758      1760      1753      1758      1761      1759      1758      1760
      1759      1758      1761      1760      1758      1761      1758      1761      1762
      1758      1761      1763      1758      1761      1764      1762      1761      1763
      1762      1761      1764      1763      1761      1764      1741      1764      1761
      1741      1764      1765      1741      1764      1766      1761      1764      1765
      1761      1764      1766      1765      1764      1766      1735      1766      1764
      1735      1766      1767      1735      1766      1771      1764      1766      1767
      1764      1766      1771      1767      1766      1771      1766      1767      1768
      1766      1767      1769      1766      1767      1770      1768      1767      1769
      1768      1767      1770      1769      1767      1770      1766      1771      1772
      1766      1771      1773      1766      1771      1774      1772      1771      1773
      1772      1771      1774      1773      1771      1774      1728      1774      1771
      1728      1774      1775      1728      1774      1776      1771      1774      1775
      1771      1774      1776      1775      1774      1776      1751      1777      1778
      1751      1777      1779      1751      1777      1783      1778      1777      1779
      1778      1777      1783      1779      1777      1783      1777      1779      1780
      1777      1779      1781      1777      1779      1782      1780      1779      1781
      1780      1779      1782      1781      1779      1782      1777      1783      1784
      1777      1783      1785      1777      1783      1786      1784      1783      1785
      1784      1783      1786      1785      1783      1786      1783      1786      1787
      1783      1786      1788      1783      1786      1789      1787      1786      1788
      1787      1786      1789      1788      1786      1789      1786      1789      1790
      1786      1789      1791      1786      1789      1792      1790      1789      1791
      1790      1789      1792      1791      1789      1792      1789      1792      1793
      1789      1792      1794      1789      1792      1798      1793      1792      1794
      1793      1792      1798      1794      1792      1798      1792      1794      1795
      1792      1794      1796      1792      1794      1797      1795      1794      1796
      1795      1794      1797      1796      1794      1797      1792      1798      1799
      1792      1798      1800      1792      1798      1801      1799      1798      1800
      1799      1798      1801      1800      1798      1801      1803      1802      1807
      1803      1802      1811      1803      1802      1815      1807      1802      1811
      1807      1802      1815      1811      1802      1815      1802      1803      1804
      1802      1803      1805      1802      1803      1806      1804      1803      1805
      1804      1803      1806      1805      1803      1806      1802      1807      1808
      1802      1807      1809      1802      1807      1810      1808      1807      1809
      1808      1807      1810      1809      1807      1810      1802      1811      1812
      1802      1811      1813      1802      1811      1814      1812      1811      1813
      1812      1811      1814      1813      1811      1814      1802      1815      1816
      1802      1815      1817      1802      1815      1818      1816      1815      1817
      1816      1815      1818      1817      1815      1818      1815      1818      1819
      1815      1818      1820      1815      1818      1825      1819      1818      1820
      1819      1818      1825      1820      1818      1825      1822      1821      1823
      1822      1821      1824      1822      1821      1825      1823      1821      1824
      1823      1821      1825      1824      1821      1825      1821      1824      1826
      1818      1825      1821      1824      1826      1827      1824      1826      1828
      1824      1826      1831      1827      1826      1828      1827      1826      1831
      1828      1826      1831      1830      1829      1831      1830      1829      1881
      1831      1829      1881      1826      1831      1829      1826      1831      1832
      1826      1831      1833      1829      1831      1832      1829      1831      1833
      1832      1831      1833      1831      1833      1834      1831      1833      1835
      1831      1833      1837      1834      1833      1835      1834      1833      1837
      1835      1833      1837      1833      1835      1836      1833      1837      1838
      1833      1837      1839      1838      1837      1839      1837      1839      1840
      1837      1839      1841      1840      1839      1841      1839      1841      1842
      1839      1841      1843      1839      1841      1844      1842      1841      1843
      1842      1841      1844      1843      1841      1844      1841      1844      1845
      1841      1844      1846      1841      1844      1847      1845      1844      1846
      1845      1844      1847      1846      1844      1847      1844      1847      1848
      1844      1847      1849      1844      1847      1850      1848      1847      1849
      1848      1847      1850      1849      1847      1850      1847      1850      1851
      1847      1850      1852      1847      1850      1853      1851      1850      1852
      1851      1850      1853      1852      1850      1853      1850      1853      1854
      1850      1853      1855      1850      1853      1856      1854      1853      1855
      1854      1853      1856      1855      1853      1856      1853      1856      1857
      1853      1856      1858      1853      1856      1859      1857      1856      1858
      1857      1856      1859      1858      1856      1859      1856      1859      1860
      1856      1859      1861      1856      1859      1862      1860      1859      1861
      1860      1859      1862      1861      1859      1862      1859      1862      1863
      1859      1862      1864      1859      1862      1865      1863      1862      1864
      1863      1862      1865      1864      1862      1865      1862      1865      1866
      1862      1865      1867      1862      1865      1868      1866      1865      1867
      1866      1865      1868      1867      1865      1868      1865      1868      1869
      1865      1868      1870      1865      1868      1871      1869      1868      1870
      1869      1868      1871      1870      1868      1871      1868      1871      1872
      1868      1871      1873      1868      1871      1874      1872      1871      1873
      1872      1871      1874      1873      1871      1874      1871      1874      1875
      1871      1874      1876      1871      1874      1877      1875      1874      1876
      1875      1874      1877      1876      1874      1877      1874      1877      1878
      1874      1877      1879      1874      1877      1880      1878      1877      1879
      1878      1877      1880      1879      1877      1880      1829      1881      1882
      1829      1881      1883      1882      1881      1883      1881      1883      1884
      1881      1883      1885      1881      1883      1886      1884      1883      1885
      1884      1883      1886      1885      1883      1886      1883      1886      1887
      1883      1886      1888      1883      1886      1889      1887      1886      1888
      1887      1886      1889      1888      1886      1889      1886      1889      1890
      1886      1889      1891      1886      1889      1892      1890      1889      1891
      1890      1889      1892      1891      1889      1892      1889      1892      1893
      1889      1892      1894      1889      1892      1895      1893      1892      1894
      1893      1892      1895      1894      1892      1895      1892      1895      1896
      1892      1895      1897      1892      1895      1898      1896      1895      1897
      1896      1895      1898      1897      1895      1898      1895      1898      1899
      1895      1898      1900      1895      1898      1901      1899      1898      1900
      1899      1898      1901      1900      1898      1901      1898      1901      1902
      1898      1901      1903      1898      1901      1904      1902      1901      1903
      1902      1901      1904      1903      1901      1904      1901      1904      1905
      1901      1904      1906      1901      1904      1907      1905      1904      1906
      1905      1904      1907      1906      1904      1907      1904      1907      1908
      1904      1907      1909      1904      1907      1910      1908      1907      1909
      1908      1907      1910      1909      1907      1910      1907      1910      1911
      1907      1910      1912      1907      1910      1913      1911      1910      1912
      1911      1910      1913      1912      1910      1913      1910      1913      1914
      1910      1913      1915      1910      1913      1916      1914      1913      1915
      1914      1913      1916      1915      1913      1916      1913      1916      1917
      1913      1916      1918      1913      1916      1919      1917      1916      1918
      1917      1916      1919      1918      1916      1919      1916      1919      1920
      1916      1919      1921      1916      1919      1922      1920      1919      1921
      1920      1919      1922      1921      1919      1922      1919      1922      1923
      1919      1922      1924      1919      1922      1925      1923      1922      1924
      1923      1922      1925      1924      1922      1925      1922      1925      1926
      1922      1925      1927      1922      1925      1928      1926      1925      1927
      1926      1925      1928      1927      1925      1928      1930      1929      1933
      1930      1929      1937      1930      1929      1941      1933      1929      1937
      1933      1929      1941      1937      1929      1941      1929      1930      1931
      1929      1930      1932      1929      1930      1945      1931      1930      1932
      1931      1930      1945      1932      1930      1945      1929      1933      1934
      1929      1933      1935      1929      1933      1936      1934      1933      1935
      1934      1933      1936      1935      1933      1936      1929      1937      1938
      1929      1937      1939      1929      1937      1940      1938      1937      1939
      1938      1937      1940      1939      1937      1940      1929      1941      1942
      1929      1941      1943      1929      1941      1944      1942      1941      1943
      1942      1941      1944      1943      1941      1944      1930      1945      1946
      1930      1945      1947      1930      1945      1951      1946      1945      1947
      1946      1945      1951      1947      1945      1951      1949      1948      1950
      1949      1948      1951      1949      1948      1952      1950      1948      1951
      1950      1948      1952      1951      1948      1952      1945      1951      1948
      1948      1952      1953      1952      1953      1954      1952      1953      1955
      1952      1953      1956      1954      1953      1955      1954      1953      1956
      1955      1953      1956      1953      1956      1957      1953      1956      1958
      1953      1956      1964      1957      1956      1958      1957      1956      1964
      1958      1956      1964      1956      1958      1959      1958      1959      1960
      1958      1959      1961      1960      1959      1961      1959      1961      1962
      1959      1961      1963      1959      1961      1973      1962      1961      1963
      1962      1961      1973      1963      1961      1973      1956      1964      1965
      1956      1964      1966      1956      1964      1967      1965      1964      1966
      1965      1964      1967      1966      1964      1967      1964      1967      1968
      1967      1968      1969      1967      1968      1970      1969      1968      1970
      1968      1970      1971      1968      1970      1972      1968      1970      2020
      1971      1970      1972      1971      1970      2020      1972      1970      2020
      1961      1973      1974      1961      1973      1975      1961      1973      1976
      1974      1973      1975      1974      1973      1976      1975      1973      1976
      1973      1976      1977      1973      1976      1978      1973      1976      1979
      1977      1976      1978      1977      1976      1979      1978      1976      1979
      1976      1979      1980      1976      1979      1981      1976      1979      1982
      1980      1979      1981      1980      1979      1982      1981      1979      1982
      1979      1982      1983      1979      1982      1984      1979      1982      1985
      1983      1982      1984      1983      1982      1985      1984      1982      1985
      1982      1985      1986      1982      1985      1987      1982      1985      1988
      1986      1985      1987      1986      1985      1988      1987      1985      1988
      1985      1988      1989      1985      1988      1990      1985      1988      1991
      1989      1988      1990      1989      1988      1991      1990      1988      1991
      1988      1991      1992      1988      1991      1993      1992      1991      1993
      1991      1993      1994      1991      1993      1995      1994      1993      1995
      1993      1995      1996      1993      1995      1997      1993      1995      1998
      1996      1995      1997      1996      1995      1998      1997      1995      1998
      1995      1998      1999      1995      1998      2000      1995      1998      2001
      1999      1998      2000      1999      1998      2001      2000      1998      2001
      1998      2001      2002      1998      2001      2003      1998      2001      2004
      2002      2001      2003      2002      2001      2004      2003      2001      2004
      2001      2004      2005      2001      2004      2006      2001      2004      2007
      2005      2004      2006      2005      2004      2007      2006      2004      2007
      2004      2007      2008      2004      2007      2009      2004      2007      2010
      2008      2007      2009      2008      2007      2010      2009      2007      2010
      2007      2010      2011      2007      2010      2012      2007      2010      2013
      2011      2010      2012      2011      2010      2013      2012      2010      2013
      2010      2013      2014      2010      2013      2015      2010      2013      2016
      2014      2013      2015      2014      2013      2016      2015      2013      2016
      2013      2016      2017      2013      2016      2018      2013      2016      2019
      2017      2016      2018      2017      2016      2019      2018      2016      2019
      1970      2020      2021      1970      2020      2022      1970      2020      2023
      2021      2020      2022      2021      2020      2023      2022      2020      2023
      2020      2023      2024      2020      2023      2025      2020      2023      2026
      2024      2023      2025      2024      2023      2026      2025      2023      2026
      2023      2026      2027      2023      2026      2028      2023      2026      2029
      2027      2026      2028      2027      2026      2029      2028      2026      2029
      2026      2029      2030      2026      2029      2031      2026      2029      2032
      2030      2029      2031      2030      2029      2032      2031      2029      2032
      2029      2032      2033      2029      2032      2034      2029      2032      2035
      2033      2032      2034      2033      2032      2035      2034      2032      2035
      2032      2035      2036      2032      2035      2037      2032      2035      2038
      2036      2035      2037      2036      2035      2038      2037      2035      2038
      2035      2038      2039      2035      2038      2040      2035      2038      2041
      2039      2038      2040      2039      2038      2041      2040      2038      2041
      2038      2041      2042      2038      2041      2043      2038      2041      2044
      2042      2041      2043      2042      2041      2044      2043      2041      2044
      2041      2044      2045      2041      2044      2046      2041      2044      2047
      2045      2044      2046      2045      2044      2047      2046      2044      2047
      2044      2047      2048      2044      2047      2049      2044      2047      2050
      2048      2047      2049      2048      2047      2050      2049      2047      2050
      2047      2050      2051      2047      2050      2052      2047      2050      2053
      2051      2050      2052      2051      2050      2053      2052      2050      2053
      2050      2053      2054      2050      2053      2055      2050      2053      2056
      2054      2053      2055      2054      2053      2056      2055      2053      2056
      2053      2056      2057      2053      2056      2058      2053      2056      2059
      2057      2056      2058      2057      2056      2059      2058      2056      2059
      2056      2059      2060      2056      2059      2061      2056      2059      2062
      2060      2059      2061      2060      2059      2062      2061      2059      2062
      2064      2063      2065      2064      2063      2066      2064      2063      2067
      2065      2063      2066      2065      2063      2067      2066      2063      2067
      2063      2067      2068      2063      2067      2069      2063      2067      2072
      2068      2067      2069      2068      2067      2072      2069      2067      2072
      2067      2069      2070      2067      2069      2071      2070      2069      2071
      2067      2072      2073      2067      2072      2074      2067      2072      2078
      2073      2072      2074      2073      2072      2078      2074      2072      2078
      2076      2075      2077      2076      2075      2078      2076      2075      2079
      2077      2075      2078      2077      2075      2079      2078      2075      2079
      2072      2078      2075      2075      2079      2080      2079      2080      2081
      2079      2080      2082      2079      2080      2083      2081      2080      2082
      2081      2080      2083      2082      2080      2083      2080      2083      2084
      2080      2083      2085      2080      2083      2091      2084      2083      2085
      2084      2083      2091      2085      2083      2091      2083      2085      2086
      2085      2086      2087      2085      2086      2088      2087      2086      2088
      2086      2088      2089      2086      2088      2090      2086      2088      2100
      2089      2088      2090      2089      2088      2100      2090      2088      2100
      2083      2091      2092      2083      2091      2093      2083      2091      2094
      2092      2091      2093      2092      2091      2094      2093      2091      2094
      2091      2094      2095      2094      2095      2096      2094      2095      2097
      2096      2095      2097      2095      2097      2098      2095      2097      2099
      2095      2097      2147      2098      2097      2099      2098      2097      2147
      2099      2097      2147      2088      2100      2101      2088      2100      2102
      2088      2100      2103      2101      2100      2102      2101      2100      2103
      2102      2100      2103      2100      2103      2104      2100      2103      2105
      2100      2103      2106      2104      2103      2105      2104      2103      2106
      2105      2103      2106      2103      2106      2107      2103      2106      2108
      2103      2106      2109      2107      2106      2108      2107      2106      2109
      2108      2106      2109      2106      2109      2110      2106      2109      2111
      2106      2109      2112      2110      2109      2111      2110      2109      2112
      2111      2109      2112      2109      2112      2113      2109      2112      2114
      2109      2112      2115      2113      2112      2114      2113      2112      2115
      2114      2112      2115      2112      2115      2116      2112      2115      2117
      2112      2115      2118      2116      2115      2117      2116      2115      2118
      2117      2115      2118      2115      2118      2119      2115      2118      2120
      2119      2118      2120      2118      2120      2121      2118      2120      2122
      2121      2120      2122      2120      2122      2123      2120      2122      2124
      2120      2122      2125      2123      2122      2124      2123      2122      2125
      2124      2122      2125      2122      2125      2126      2122      2125      2127
      2122      2125      2128      2126      2125      2127      2126      2125      2128
      2127      2125      2128      2125      2128      2129      2125      2128      2130
      2125      2128      2131      2129      2128      2130      2129      2128      2131
      2130      2128      2131      2128      2131      2132      2128      2131      2133
      2128      2131      2134      2132      2131      2133      2132      2131      2134
      2133      2131      2134      2131      2134      2135      2131      2134      2136
      2131      2134      2137      2135      2134      2136      2135      2134      2137
      2136      2134      2137      2134      2137      2138      2134      2137      2139
      2134      2137      2140      2138      2137      2139      2138      2137      2140
      2139      2137      2140      2137      2140      2141      2137      2140      2142
      2137      2140      2143      2141      2140      2142      2141      2140      2143
      2142      2140      2143      2140      2143      2144      2140      2143      2145
      2140      2143      2146      2144      2143      2145      2144      2143      2146
      2145      2143      2146      2097      2147      2148      2097      2147      2149
      2097      2147      2150      2148      2147      2149      2148      2147      2150
      2149      2147      2150      2147      2150      2151      2147      2150      2152
      2147      2150      2153      2151      2150      2152      2151      2150      2153
      2152      2150      2153      2150      2153      2154      2150      2153      2155
      2150      2153      2156      2154      2153      2155      2154      2153      2156
      2155      2153      2156      2153      2156      2157      2153      2156      2158
      2153      2156      2159      2157      2156      2158      2157      2156      2159
      2158      2156      2159      2156      2159      2160      2156      2159      2161
      2156      2159      2162      2160      2159      2161      2160      2159      2162
      2161      2159      2162      2159      2162      2163      2159      2162      2164
      2159      2162      2165      2163      2162      2164      2163      2162      2165
      2164      2162      2165      2162      2165      2166      2162      2165      2167
      2162      2165      2168      2166      2165      2167      2166      2165      2168
      2167      2165      2168      2165      2168      2169      2165      2168      2170
      2165      2168      2171      2169      2168      2170      2169      2168      2171
      2170      2168      2171      2168      2171      2172      2168      2171      2173
      2168      2171      2174      2172      2171      2173      2172      2171      2174
      2173      2171      2174      2171      2174      2175      2171      2174      2176
      2171      2174      2177      2175      2174      2176      2175      2174      2177
      2176      2174      2177      2174      2177      2178      2174      2177      2179
      2174      2177      2180      2178      2177      2179      2178      2177      2180
      2179      2177      2180      2177      2180      2181      2177      2180      2182
      2177      2180      2183      2181      2180      2182      2181      2180      2183
      2182      2180      2183      2180      2183      2184      2180      2183      2185
      2180      2183      2186      2184      2183      2185      2184      2183      2186
      2185      2183      2186      2183      2186      2187      2183      2186      2188
      2183      2186      2189      2187      2186      2188      2187      2186      2189
      2188      2186      2189      2191      2190      2195      2191      2190      2199
      2191      2190      2203      2195      2190      2199      2195      2190      2203
      2199      2190      2203      2190      2191      2192      2190      2191      2193
      2190      2191      2194      2192      2191      2193      2192      2191      2194
      2193      2191      2194      2190      2195      2196      2190      2195      2197
      2190      2195      2198      2196      2195      2197      2196      2195      2198
      2197      2195      2198      2190      2199      2200      2190      2199      2201
      2190      2199      2202      2200      2199      2201      2200      2199      2202
      2201      2199      2202      2190      2203      2204      2190      2203      2205
      2190      2203      2206      2204      2203      2205      2204      2203      2206
      2205      2203      2206      2203      2206      2207      2203      2206      2208
      2203      2206      2213      2207      2206      2208      2207      2206      2213
      2208      2206      2213      2210      2209      2211      2210      2209      2212
      2210      2209      2213      2211      2209      2212      2211      2209      2213
      2212      2209      2213      2209      2212      2214      2206      2213      2209
      2212      2214      2215      2212      2214      2216      2212      2214      2219
      2215      2214      2216      2215      2214      2219      2216      2214      2219
      2218      2217      2219      2218      2217      2269      2219      2217      2269
      2214      2219      2217      2214      2219      2220      2214      2219      2221
      2217      2219      2220      2217      2219      2221      2220      2219      2221
      2219      2221      2222      2219      2221      2223      2219      2221      2225
      2222      2221      2223      2222      2221      2225      2223      2221      2225
      2221      2223      2224      2221      2225      2226      2221      2225      2227
      2226      2225      2227      2225      2227      2228      2225      2227      2229
      2228      2227      2229      2227      2229      2230      2227      2229      2231
      2227      2229      2232      2230      2229      2231      2230      2229      2232
      2231      2229      2232      2229      2232      2233      2229      2232      2234
      2229      2232      2235      2233      2232      2234      2233      2232      2235
      2234      2232      2235      2232      2235      2236      2232      2235      2237
      2232      2235      2238      2236      2235      2237      2236      2235      2238
      2237      2235      2238      2235      2238      2239      2235      2238      2240
      2235      2238      2241      2239      2238      2240      2239      2238      2241
      2240      2238      2241      2238      2241      2242      2238      2241      2243
      2238      2241      2244      2242      2241      2243      2242      2241      2244
      2243      2241      2244      2241      2244      2245      2241      2244      2246
      2241      2244      2247      2245      2244      2246      2245      2244      2247
      2246      2244      2247      2244      2247      2248      2244      2247      2249
      2244      2247      2250      2248      2247      2249      2248      2247      2250
      2249      2247      2250      2247      2250      2251      2247      2250      2252
      2247      2250      2253      2251      2250      2252      2251      2250      2253
      2252      2250      2253      2250      2253      2254      2250      2253      2255
      2250      2253      2256      2254      2253      2255      2254      2253      2256
      2255      2253      2256      2253      2256      2257      2253      2256      2258
      2253      2256      2259      2257      2256      2258      2257      2256      2259
      2258      2256      2259      2256      2259      2260      2256      2259      2261
      2256      2259      2262      2260      2259      2261      2260      2259      2262
      2261      2259      2262      2259      2262      2263      2259      2262      2264
      2259      2262      2265      2263      2262      2264      2263      2262      2265
      2264      2262      2265      2262      2265      2266      2262      2265      2267
      2262      2265      2268      2266      2265      2267      2266      2265      2268
      2267      2265      2268      2217      2269      2270      2217      2269      2271
      2270      2269      2271      2269      2271      2272      2269      2271      2273
      2269      2271      2274      2272      2271      2273      2272      2271      2274
      2273      2271      2274      2271      2274      2275      2271      2274      2276
      2271      2274      2277      2275      2274      2276      2275      2274      2277
      2276      2274      2277      2274      2277      2278      2274      2277      2279
      2274      2277      2280      2278      2277      2279      2278      2277      2280
      2279      2277      2280      2277      2280      2281      2277      2280      2282
      2277      2280      2283      2281      2280      2282      2281      2280      2283
      2282      2280      2283      2280      2283      2284      2280      2283      2285
      2280      2283      2286      2284      2283      2285      2284      2283      2286
      2285      2283      2286      2283      2286      2287      2283      2286      2288
      2283      2286      2289      2287      2286      2288      2287      2286      2289
      2288      2286      2289      2286      2289      2290      2286      2289      2291
      2286      2289      2292      2290      2289      2291      2290      2289      2292
      2291      2289      2292      2289      2292      2293      2289      2292      2294
      2289      2292      2295      2293      2292      2294      2293      2292      2295
      2294      2292      2295      2292      2295      2296      2292      2295      2297
      2292      2295      2298      2296      2295      2297      2296      2295      2298
      2297      2295      2298      2295      2298      2299      2295      2298      2300
      2295      2298      2301      2299      2298      2300      2299      2298      2301
      2300      2298      2301      2298      2301      2302      2298      2301      2303
      2298      2301      2304      2302      2301      2303      2302      2301      2304
      2303      2301      2304      2301      2304      2305      2301      2304      2306
      2301      2304      2307      2305      2304      2306      2305      2304      2307
      2306      2304      2307      2304      2307      2308      2304      2307      2309
      2304      2307      2310      2308      2307      2309      2308      2307      2310
      2309      2307      2310      2307      2310      2311      2307      2310      2312
      2307      2310      2313      2311      2310      2312      2311      2310      2313
      2312      2310      2313      2310      2313      2314      2310      2313      2315
      2310      2313      2316      2314      2313      2315      2314      2313      2316
      2315      2313      2316      2318      2317      2321      2318      2317      2325
      2318      2317      2329      2321      2317      2325      2321      2317      2329
      2325      2317      2329      2317      2318      2319      2317      2318      2320
      2317      2318      2333      2319      2318      2320      2319      2318      2333
      2320      2318      2333      2317      2321      2322      2317      2321      2323
      2317      2321      2324      2322      2321      2323      2322      2321      2324
      2323      2321      2324      2317      2325      2326      2317      2325      2327
      2317      2325      2328      2326      2325      2327      2326      2325      2328
      2327      2325      2328      2317      2329      2330      2317      2329      2331
      2317      2329      2332      2330      2329      2331      2330      2329      2332
      2331      2329      2332      2318      2333      2334      2318      2333      2335
      2318      2333      2339      2334      2333      2335      2334      2333      2339
      2335      2333      2339      2337      2336      2338      2337      2336      2339
      2337      2336      2340      2338      2336      2339      2338      2336      2340
      2339      2336      2340      2333      2339      2336      2336      2340      2341
      2340      2341      2342      2340      2341      2343      2340      2341      2344
      2342      2341      2343      2342      2341      2344      2343      2341      2344
      2341      2344      2345      2341      2344      2346      2341      2344      2352
      2345      2344      2346      2345      2344      2352      2346      2344      2352
      2344      2346      2347      2346      2347      2348      2346      2347      2349
      2348      2347      2349      2347      2349      2350      2347      2349      2351
      2347      2349      2361      2350      2349      2351      2350      2349      2361
      2351      2349      2361      2344      2352      2353      2344      2352      2354
      2344      2352      2355      2353      2352      2354      2353      2352      2355
      2354      2352      2355      2352      2355      2356      2355      2356      2357
      2355      2356      2358      2357      2356      2358      2356      2358      2359
      2356      2358      2360      2356      2358      2408      2359      2358      2360
      2359      2358      2408      2360      2358      2408      2349      2361      2362
      2349      2361      2363      2349      2361      2364      2362      2361      2363
      2362      2361      2364      2363      2361      2364      2361      2364      2365
      2361      2364      2366      2361      2364      2367      2365      2364      2366
      2365      2364      2367      2366      2364      2367      2364      2367      2368
      2364      2367      2369      2364      2367      2370      2368      2367      2369
      2368      2367      2370      2369      2367      2370      2367      2370      2371
      2367      2370      2372      2367      2370      2373      2371      2370      2372
      2371      2370      2373      2372      2370      2373      2370      2373      2374
      2370      2373      2375      2370      2373      2376      2374      2373      2375
      2374      2373      2376      2375      2373      2376      2373      2376      2377
      2373      2376      2378      2373      2376      2379      2377      2376      2378
      2377      2376      2379      2378      2376      2379      2376      2379      2380
      2376      2379      2381      2380      2379      2381      2379      2381      2382
      2379      2381      2383      2382      2381      2383      2381      2383      2384
      2381      2383      2385      2381      2383      2386      2384      2383      2385
      2384      2383      2386      2385      2383      2386      2383      2386      2387
      2383      2386      2388      2383      2386      2389      2387      2386      2388
      2387      2386      2389      2388      2386      2389      2386      2389      2390
      2386      2389      2391      2386      2389      2392      2390      2389      2391
      2390      2389      2392      2391      2389      2392      2389      2392      2393
      2389      2392      2394      2389      2392      2395      2393      2392      2394
      2393      2392      2395      2394      2392      2395      2392      2395      2396
      2392      2395      2397      2392      2395      2398      2396      2395      2397
      2396      2395      2398      2397      2395      2398      2395      2398      2399
      2395      2398      2400      2395      2398      2401      2399      2398      2400
      2399      2398      2401      2400      2398      2401      2398      2401      2402
      2398      2401      2403      2398      2401      2404      2402      2401      2403
      2402      2401      2404      2403      2401      2404      2401      2404      2405
      2401      2404      2406      2401      2404      2407      2405      2404      2406
      2405      2404      2407      2406      2404      2407      2358      2408      2409
      2358      2408      2410      2358      2408      2411      2409      2408      2410
      2409      2408      2411      2410      2408      2411      2408      2411      2412
      2408      2411      2413      2408      2411      2414      2412      2411      2413
      2412      2411      2414      2413      2411      2414      2411      2414      2415
      2411      2414      2416      2411      2414      2417      2415      2414      2416
      2415      2414      2417      2416      2414      2417      2414      2417      2418
      2414      2417      2419      2414      2417      2420      2418      2417      2419
      2418      2417      2420      2419      2417      2420      2417      2420      2421
      2417      2420      2422      2417      2420      2423      2421      2420      2422
      2421      2420      2423      2422      2420      2423      2420      2423      2424
      2420      2423      2425      2420      2423      2426      2424      2423      2425
      2424      2423      2426      2425      2423      2426      2423      2426      2427
      2423      2426      2428      2423      2426      2429      2427      2426      2428
      2427      2426      2429      2428      2426      2429      2426      2429      2430
      2426      2429      2431      2426      2429      2432      2430      2429      2431
      2430      2429      2432      2431      2429      2432      2429      2432      2433
      2429      2432      2434      2429      2432      2435      2433      2432      2434
      2433      2432      2435      2434      2432      2435      2432      2435      2436
      2432      2435      2437      2432      2435      2438      2436      2435      2437
      2436      2435      2438      2437      2435      2438      2435      2438      2439
      2435      2438      2440      2435      2438      2441      2439      2438      2440
      2439      2438      2441      2440      2438      2441      2438      2441      2442
      2438      2441      2443      2438      2441      2444      2442      2441      2443
      2442      2441      2444      2443      2441      2444      2441      2444      2445
      2441      2444      2446      2441      2444      2447      2445      2444      2446
      2445      2444      2447      2446      2444      2447      2444      2447      2448
      2444      2447      2449      2444      2447      2450      2448      2447      2449
      2448      2447      2450      2449      2447      2450      2452      2451      2453
      2452      2451      2454      2452      2451      2455      2453      2451      2454
      2453      2451      2455      2454      2451      2455      2451      2455      2456
      2451      2455      2457      2451      2455      2458      2456      2455      2457
      2456      2455      2458      2457      2455      2458      2455      2458      2459
      2455      2458      2460      2455      2458      2465      2459      2458      2460
      2459      2458      2465      2460      2458      2465      2462      2461      2463
      2462      2461      2464      2462      2461      2465      2463      2461      2464
      2463      2461      2465      2464      2461      2465      2461      2464      2466
      2458      2465      2461      2464      2466      2467      2464      2466      2468
      2464      2466      2469      2467      2466      2468      2467      2466      2469
      2468      2466      2469      2466      2469      2470      2466      2469      2471
      2466      2469      2477      2470      2469      2471      2470      2469      2477
      2471      2469      2477      2469      2471      2472      2471      2472      2473
      2471      2472      2474      2473      2472      2474      2472      2474      2475
      2472      2474      2476      2472      2474      2486      2475      2474      2476
      2475      2474      2486      2476      2474      2486      2469      2477      2478
      2469      2477      2479      2469      2477      2480      2478      2477      2479
      2478      2477      2480      2479      2477      2480      2477      2480      2481
      2480      2481      2482      2480      2481      2483      2482      2481      2483
      2481      2483      2484      2481      2483      2485      2481      2483      2533
      2484      2483      2485      2484      2483      2533      2485      2483      2533
      2474      2486      2487      2474      2486      2488      2474      2486      2489
      2487      2486      2488      2487      2486      2489      2488      2486      2489
      2486      2489      2490      2486      2489      2491      2486      2489      2492
      2490      2489      2491      2490      2489      2492      2491      2489      2492
      2489      2492      2493      2489      2492      2494      2489      2492      2495
      2493      2492      2494      2493      2492      2495      2494      2492      2495
      2492      2495      2496      2492      2495      2497      2492      2495      2498
      2496      2495      2497      2496      2495      2498      2497      2495      2498
      2495      2498      2499      2495      2498      2500      2495      2498      2501
      2499      2498      2500      2499      2498      2501      2500      2498      2501
      2498      2501      2502      2498      2501      2503      2498      2501      2504
      2502      2501      2503      2502      2501      2504      2503      2501      2504
      2501      2504      2505      2501      2504      2506      2505      2504      2506
      2504      2506      2507      2504      2506      2508      2507      2506      2508
      2506      2508      2509      2506      2508      2510      2506      2508      2511
      2509      2508      2510      2509      2508      2511      2510      2508      2511
      2508      2511      2512      2508      2511      2513      2508      2511      2514
      2512      2511      2513      2512      2511      2514      2513      2511      2514
      2511      2514      2515      2511      2514      2516      2511      2514      2517
      2515      2514      2516      2515      2514      2517      2516      2514      2517
      2514      2517      2518      2514      2517      2519      2514      2517      2520
      2518      2517      2519      2518      2517      2520      2519      2517      2520
      2517      2520      2521      2517      2520      2522      2517      2520      2523
      2521      2520      2522      2521      2520      2523      2522      2520      2523
      2520      2523      2524      2520      2523      2525      2520      2523      2526
      2524      2523      2525      2524      2523      2526      2525      2523      2526
      2523      2526      2527      2523      2526      2528      2523      2526      2529
      2527      2526      2528      2527      2526      2529      2528      2526      2529
      2526      2529      2530      2526      2529      2531      2526      2529      2532
      2530      2529      2531      2530      2529      2532      2531      2529      2532
      2483      2533      2534      2483      2533      2535      2483      2533      2536
      2534      2533      2535      2534      2533      2536      2535      2533      2536
      2533      2536      2537      2533      2536      2538      2533      2536      2539
      2537      2536      2538      2537      2536      2539      2538      2536      2539
      2536      2539      2540      2536      2539      2541      2536      2539      2542
      2540      2539      2541      2540      2539      2542      2541      2539      2542
      2539      2542      2543      2539      2542      2544      2539      2542      2545
      2543      2542      2544      2543      2542      2545      2544      2542      2545
      2542      2545      2546      2542      2545      2547      2542      2545      2548
      2546      2545      2547      2546      2545      2548      2547      2545      2548
      2545      2548      2549      2545      2548      2550      2545      2548      2551
      2549      2548      2550      2549      2548      2551      2550      2548      2551
      2548      2551      2552      2548      2551      2553      2548      2551      2554
      2552      2551      2553      2552      2551      2554      2553      2551      2554
      2551      2554      2555      2551      2554      2556      2551      2554      2557
      2555      2554      2556      2555      2554      2557      2556      2554      2557
      2554      2557      2558      2554      2557      2559      2554      2557      2560
      2558      2557      2559      2558      2557      2560      2559      2557      2560
      2557      2560      2561      2557      2560      2562      2557      2560      2563
      2561      2560      2562      2561      2560      2563      2562      2560      2563
      2560      2563      2564      2560      2563      2565      2560      2563      2566
      2564      2563      2565      2564      2563      2566      2565      2563      2566
      2563      2566      2567      2563      2566      2568      2563      2566      2569
      2567      2566      2568      2567      2566      2569      2568      2566      2569
      2566      2569      2570      2566      2569      2571      2566      2569      2572
      2570      2569      2571      2570      2569      2572      2571      2569      2572
      2569      2572      2573      2569      2572      2574      2569      2572      2575
      2573      2572      2574      2573      2572      2575      2574      2572      2575
      2577      2576      2578      2577      2576      2579      2577      2576      2580
      2578      2576      2579      2578      2576      2580      2579      2576      2580
      2576      2580      2581      2576      2580      2582      2576      2580      2585
      2581      2580      2582      2581      2580      2585      2582      2580      2585
      2580      2582      2583      2580      2582      2584      2583      2582      2584
      2580      2585      2586      2580      2585      2587      2580      2585      2591
      2586      2585      2587      2586      2585      2591      2587      2585      2591
      2589      2588      2590      2589      2588      2591      2589      2588      2592
      2590      2588      2591      2590      2588      2592      2591      2588      2592
      2585      2591      2588      2588      2592      2593      2592      2593      2594
      2592      2593      2595      2592      2593      2596      2594      2593      2595
      2594      2593      2596      2595      2593      2596      2593      2596      2597
      2593      2596      2598      2593      2596      2604      2597      2596      2598
      2597      2596      2604      2598      2596      2604      2596      2598      2599
      2598      2599      2600      2598      2599      2601      2600      2599      2601
      2599      2601      2602      2599      2601      2603      2599      2601      2613
      2602      2601      2603      2602      2601      2613      2603      2601      2613
      2596      2604      2605      2596      2604      2606      2596      2604      2607
      2605      2604      2606      2605      2604      2607      2606      2604      2607
      2604      2607      2608      2607      2608      2609      2607      2608      2610
      2609      2608      2610      2608      2610      2611      2608      2610      2612
      2608      2610      2660      2611      2610      2612      2611      2610      2660
      2612      2610      2660      2601      2613      2614      2601      2613      2615
      2601      2613      2616      2614      2613      2615      2614      2613      2616
      2615      2613      2616      2613      2616      2617      2613      2616      2618
      2613      2616      2619      2617      2616      2618      2617      2616      2619
      2618      2616      2619      2616      2619      2620      2616      2619      2621
      2616      2619      2622      2620      2619      2621      2620      2619      2622
      2621      2619      2622      2619      2622      2623      2619      2622      2624
      2619      2622      2625      2623      2622      2624      2623      2622      2625
      2624      2622      2625      2622      2625      2626      2622      2625      2627
      2622      2625      2628      2626      2625      2627      2626      2625      2628
      2627      2625      2628      2625      2628      2629      2625      2628      2630
      2625      2628      2631      2629      2628      2630      2629      2628      2631
      2630      2628      2631      2628      2631      2632      2628      2631      2633
      2632      2631      2633      2631      2633      2634      2631      2633      2635
      2634      2633      2635      2633      2635      2636      2633      2635      2637
      2633      2635      2638      2636      2635      2637      2636      2635      2638
      2637      2635      2638      2635      2638      2639      2635      2638      2640
      2635      2638      2641      2639      2638      2640      2639      2638      2641
      2640      2638      2641      2638      2641      2642      2638      2641      2643
      2638      2641      2644      2642      2641      2643      2642      2641      2644
      2643      2641      2644      2641      2644      2645      2641      2644      2646
      2641      2644      2647      2645      2644      2646      2645      2644      2647
      2646      2644      2647      2644      2647      2648      2644      2647      2649
      2644      2647      2650      2648      2647      2649      2648      2647      2650
      2649      2647      2650      2647      2650      2651      2647      2650      2652
      2647      2650      2653      2651      2650      2652      2651      2650      2653
      2652      2650      2653      2650      2653      2654      2650      2653      2655
      2650      2653      2656      2654      2653      2655      2654      2653      2656
      2655      2653      2656      2653      2656      2657      2653      2656      2658
      2653      2656      2659      2657      2656      2658      2657      2656      2659
      2658      2656      2659      2610      2660      2661      2610      2660      2662
      2610      2660      2663      2661      2660      2662      2661      2660      2663
      2662      2660      2663      2660      2663      2664      2660      2663      2665
      2660      2663      2666      2664      2663      2665      2664      2663      2666
      2665      2663      2666      2663      2666      2667      2663      2666      2668
      2663      2666      2669      2667      2666      2668      2667      2666      2669
      2668      2666      2669      2666      2669      2670      2666      2669      2671
      2666      2669      2672      2670      2669      2671      2670      2669      2672
      2671      2669      2672      2669      2672      2673      2669      2672      2674
      2669      2672      2675      2673      2672      2674      2673      2672      2675
      2674      2672      2675      2672      2675      2676      2672      2675      2677
      2672      2675      2678      2676      2675      2677      2676      2675      2678
      2677      2675      2678      2675      2678      2679      2675      2678      2680
      2675      2678      2681      2679      2678      2680      2679      2678      2681
      2680      2678      2681      2678      2681      2682      2678      2681      2683
      2678      2681      2684      2682      2681      2683      2682      2681      2684
      2683      2681      2684      2681      2684      2685      2681      2684      2686
      2681      2684      2687      2685      2684      2686      2685      2684      2687
      2686      2684      2687      2684      2687      2688      2684      2687      2689
      2684      2687      2690      2688      2687      2689      2688      2687      2690
      2689      2687      2690      2687      2690      2691      2687      2690      2692
      2687      2690      2693      2691      2690      2692      2691      2690      2693
      2692      2690      2693      2690      2693      2694      2690      2693      2695
      2690      2693      2696      2694      2693      2695      2694      2693      2696
      2695      2693      2696      2693      2696      2697      2693      2696      2698
      2693      2696      2699      2697      2696      2698      2697      2696      2699
      2698      2696      2699      2696      2699      2700      2696      2699      2701
      2696      2699      2702      2700      2699      2701      2700      2699      2702
      2701      2699      2702      2704      2703      2705      2704      2703      2706
      2704      2703      2707      2705      2703      2706      2705      2703      2707
      2706      2703      2707      2703      2707      2708      2703      2707      2709
      2703      2707      2710      2708      2707      2709      2708      2707      2710
      2709      2707      2710      2707      2710      2711      2707      2710      2712
      2707      2710      2717      2711      2710      2712      2711      2710      2717
      2712      2710      2717      2714      2713      2715      2714      2713      2716
      2714      2713      2717      2715      2713      2716      2715      2713      2717
      2716      2713      2717      2713      2716      2718      2710      2717      2713
      2716      2718      2719      2716      2718      2720      2716      2718      2721
      2719      2718      2720      2719      2718      2721      2720      2718      2721
      2718      2721      2722      2718      2721      2723      2718      2721      2729
      2722      2721      2723      2722      2721      2729      2723      2721      2729
      2721      2723      2724      2723      2724      2725      2723      2724      2726
      2725      2724      2726      2724      2726      2727      2724      2726      2728
      2724      2726      2738      2727      2726      2728      2727      2726      2738
      2728      2726      2738      2721      2729      2730      2721      2729      2731
      2721      2729      2732      2730      2729      2731      2730      2729      2732
      2731      2729      2732      2729      2732      2733      2732      2733      2734
      2732      2733      2735      2734      2733      2735      2733      2735      2736
      2733      2735      2737      2733      2735      2785      2736      2735      2737
      2736      2735      2785      2737      2735      2785      2726      2738      2739
      2726      2738      2740      2726      2738      2741      2739      2738      2740
      2739      2738      2741      2740      2738      2741      2738      2741      2742
      2738      2741      2743      2738      2741      2744      2742      2741      2743
      2742      2741      2744      2743      2741      2744      2741      2744      2745
      2741      2744      2746      2741      2744      2747      2745      2744      2746
      2745      2744      2747      2746      2744      2747      2744      2747      2748
      2744      2747      2749      2744      2747      2750      2748      2747      2749
      2748      2747      2750      2749      2747      2750      2747      2750      2751
      2747      2750      2752      2747      2750      2753      2751      2750      2752
      2751      2750      2753      2752      2750      2753      2750      2753      2754
      2750      2753      2755      2750      2753      2756      2754      2753      2755
      2754      2753      2756      2755      2753      2756      2753      2756      2757
      2753      2756      2758      2757      2756      2758      2756      2758      2759
      2756      2758      2760      2759      2758      2760      2758      2760      2761
      2758      2760      2762      2758      2760      2763      2761      2760      2762
      2761      2760      2763      2762      2760      2763      2760      2763      2764
      2760      2763      2765      2760      2763      2766      2764      2763      2765
      2764      2763      2766      2765      2763      2766      2763      2766      2767
      2763      2766      2768      2763      2766      2769      2767      2766      2768
      2767      2766      2769      2768      2766      2769      2766      2769      2770
      2766      2769      2771      2766      2769      2772      2770      2769      2771
      2770      2769      2772      2771      2769      2772      2769      2772      2773
      2769      2772      2774      2769      2772      2775      2773      2772      2774
      2773      2772      2775      2774      2772      2775      2772      2775      2776
      2772      2775      2777      2772      2775      2778      2776      2775      2777
      2776      2775      2778      2777      2775      2778      2775      2778      2779
      2775      2778      2780      2775      2778      2781      2779      2778      2780
      2779      2778      2781      2780      2778      2781      2778      2781      2782
      2778      2781      2783      2778      2781      2784      2782      2781      2783
      2782      2781      2784      2783      2781      2784      2735      2785      2786
      2735      2785      2787      2735      2785      2788      2786      2785      2787
      2786      2785      2788      2787      2785      2788      2785      2788      2789
      2785      2788      2790      2785      2788      2791      2789      2788      2790
      2789      2788      2791      2790      2788      2791      2788      2791      2792
      2788      2791      2793      2788      2791      2794      2792      2791      2793
      2792      2791      2794      2793      2791      2794      2791      2794      2795
      2791      2794      2796      2791      2794      2797      2795      2794      2796
      2795      2794      2797      2796      2794      2797      2794      2797      2798
      2794      2797      2799      2794      2797      2800      2798      2797      2799
      2798      2797      2800      2799      2797      2800      2797      2800      2801
      2797      2800      2802      2797      2800      2803      2801      2800      2802
      2801      2800      2803      2802      2800      2803      2800      2803      2804
      2800      2803      2805      2800      2803      2806      2804      2803      2805
      2804      2803      2806      2805      2803      2806      2803      2806      2807
      2803      2806      2808      2803      2806      2809      2807      2806      2808
      2807      2806      2809      2808      2806      2809      2806      2809      2810
      2806      2809      2811      2806      2809      2812      2810      2809      2811
      2810      2809      2812      2811      2809      2812      2809      2812      2813
      2809      2812      2814      2809      2812      2815      2813      2812      2814
      2813      2812      2815      2814      2812      2815      2812      2815      2816
      2812      2815      2817      2812      2815      2818      2816      2815      2817
      2816      2815      2818      2817      2815      2818      2815      2818      2819
      2815      2818      2820      2815      2818      2821      2819      2818      2820
      2819      2818      2821      2820      2818      2821      2818      2821      2822
      2818      2821      2823      2818      2821      2824      2822      2821      2823
      2822      2821      2824      2823      2821      2824      2821      2824      2825
      2821      2824      2826      2821      2824      2827      2825      2824      2826
      2825      2824      2827      2826      2824      2827      2829      2828      2830
      2829      2828      2831      2829      2828      2832      2830      2828      2831
      2830      2828      2832      2831      2828      2832      2828      2832      2833
      2828      2832      2834      2828      2832      2837      2833      2832      2834
      2833      2832      2837      2834      2832      2837      2832      2834      2835
      2832      2834      2836      2835      2834      2836      2832      2837      2838
      2832      2837      2839      2832      2837      2843      2838      2837      2839
      2838      2837      2843      2839      2837      2843      2841      2840      2842
      2841      2840      2843      2841      2840      2844      2842      2840      2843
      2842      2840      2844      2843      2840      2844      2837      2843      2840
      2840      2844      2845      2844      2845      2846      2844      2845      2847
      2844      2845      2848      2846      2845      2847      2846      2845      2848
      2847      2845      2848      2845      2848      2849      2845      2848      2850
      2845      2848      2856      2849      2848      2850      2849      2848      2856
      2850      2848      2856      2848      2850      2851      2850      2851      2852
      2850      2851      2853      2852      2851      2853      2851      2853      2854
      2851      2853      2855      2851      2853      2865      2854      2853      2855
      2854      2853      2865      2855      2853      2865      2848      2856      2857
      2848      2856      2858      2848      2856      2859      2857      2856      2858
      2857      2856      2859      2858      2856      2859      2856      2859      2860
      2859      2860      2861      2859      2860      2862      2861      2860      2862
      2860      2862      2863      2860      2862      2864      2860      2862      2912
      2863      2862      2864      2863      2862      2912      2864      2862      2912
      2853      2865      2866      2853      2865      2867      2853      2865      2868
      2866      2865      2867      2866      2865      2868      2867      2865      2868
      2865      2868      2869      2865      2868      2870      2865      2868      2871
      2869      2868      2870      2869      2868      2871      2870      2868      2871
      2868      2871      2872      2868      2871      2873      2868      2871      2874
      2872      2871      2873      2872      2871      2874      2873      2871      2874
      2871      2874      2875      2871      2874      2876      2871      2874      2877
      2875      2874      2876      2875      2874      2877      2876      2874      2877
      2874      2877      2878      2874      2877      2879      2874      2877      2880
      2878      2877      2879      2878      2877      2880      2879      2877      2880
      2877      2880      2881      2877      2880      2882      2877      2880      2883
      2881      2880      2882      2881      2880      2883      2882      2880      2883
      2880      2883      2884      2880      2883      2885      2884      2883      2885
      2883      2885      2886      2883      2885      2887      2886      2885      2887
      2885      2887      2888      2885      2887      2889      2885      2887      2890
      2888      2887      2889      2888      2887      2890      2889      2887      2890
      2887      2890      2891      2887      2890      2892      2887      2890      2893
      2891      2890      2892      2891      2890      2893      2892      2890      2893
      2890      2893      2894      2890      2893      2895      2890      2893      2896
      2894      2893      2895      2894      2893      2896      2895      2893      2896
      2893      2896      2897      2893      2896      2898      2893      2896      2899
      2897      2896      2898      2897      2896      2899      2898      2896      2899
      2896      2899      2900      2896      2899      2901      2896      2899      2902
      2900      2899      2901      2900      2899      2902      2901      2899      2902
      2899      2902      2903      2899      2902      2904      2899      2902      2905
      2903      2902      2904      2903      2902      2905      2904      2902      2905
      2902      2905      2906      2902      2905      2907      2902      2905      2908
      2906      2905      2907      2906      2905      2908      2907      2905      2908
      2905      2908      2909      2905      2908      2910      2905      2908      2911
      2909      2908      2910      2909      2908      2911      2910      2908      2911
      2862      2912      2913      2862      2912      2914      2862      2912      2915
      2913      2912      2914      2913      2912      2915      2914      2912      2915
      2912      2915      2916      2912      2915      2917      2912      2915      2918
      2916      2915      2917      2916      2915      2918      2917      2915      2918
      2915      2918      2919      2915      2918      2920      2915      2918      2921
      2919      2918      2920      2919      2918      2921      2920      2918      2921
      2918      2921      2922      2918      2921      2923      2918      2921      2924
      2922      2921      2923      2922      2921      2924      2923      2921      2924
      2921      2924      2925      2921      2924      2926      2921      2924      2927
      2925      2924      2926      2925      2924      2927      2926      2924      2927
      2924      2927      2928      2924      2927      2929      2924      2927      2930
      2928      2927      2929      2928      2927      2930      2929      2927      2930
      2927      2930      2931      2927      2930      2932      2927      2930      2933
      2931      2930      2932      2931      2930      2933      2932      2930      2933
      2930      2933      2934      2930      2933      2935      2930      2933      2936
      2934      2933      2935      2934      2933      2936      2935      2933      2936
      2933      2936      2937      2933      2936      2938      2933      2936      2939
      2937      2936      2938      2937      2936      2939      2938      2936      2939
      2936      2939      2940      2936      2939      2941      2936      2939      2942
      2940      2939      2941      2940      2939      2942      2941      2939      2942
      2939      2942      2943      2939      2942      2944      2939      2942      2945
      2943      2942      2944      2943      2942      2945      2944      2942      2945
      2942      2945      2946      2942      2945      2947      2942      2945      2948
      2946      2945      2947      2946      2945      2948      2947      2945      2948
      2945      2948      2949      2945      2948      2950      2945      2948      2951
      2949      2948      2950      2949      2948      2951      2950      2948      2951
      2948      2951      2952      2948      2951      2953      2948      2951      2954
      2952      2951      2953      2952      2951      2954      2953      2951      2954
      2956      2955      2959      2956      2955      2963      2956      2955      2967
      2959      2955      2963      2959      2955      2967      2963      2955      2967
      2955      2956      2957      2955      2956      2958      2955      2956      2971
      2957      2956      2958      2957      2956      2971      2958      2956      2971
      2955      2959      2960      2955      2959      2961      2955      2959      2962
      2960      2959      2961      2960      2959      2962      2961      2959      2962
      2955      2963      2964      2955      2963      2965      2955      2963      2966
      2964      2963      2965      2964      2963      2966      2965      2963      2966
      2955      2967      2968      2955      2967      2969      2955      2967      2970
      2968      2967      2969      2968      2967      2970      2969      2967      2970
      2956      2971      2972      2956      2971      2973      2956      2971      2977
      2972      2971      2973      2972      2971      2977      2973      2971      2977
      2975      2974      2976      2975      2974      2977      2975      2974      2978
      2976      2974      2977      2976      2974      2978      2977      2974      2978
      2971      2977      2974      2974      2978      2979      2978      2979      2980
      2978      2979      2981      2978      2979      2982      2980      2979      2981
      2980      2979      2982      2981      2979      2982      2979      2982      2983
      2979      2982      2984      2979      2982      2990      2983      2982      2984
      2983      2982      2990      2984      2982      2990      2982      2984      2985
      2984      2985      2986      2984      2985      2987      2986      2985      2987
      2985      2987      2988      2985      2987      2989      2985      2987      2999
      2988      2987      2989      2988      2987      2999      2989      2987      2999
      2982      2990      2991      2982      2990      2992      2982      2990      2993
      2991      2990      2992      2991      2990      2993      2992      2990      2993
      2990      2993      2994      2993      2994      2995      2993      2994      2996
      2995      2994      2996      2994      2996      2997      2994      2996      2998
      2994      2996      3046      2997      2996      2998      2997      2996      3046
      2998      2996      3046      2987      2999      3000      2987      2999      3001
      2987      2999      3002      3000      2999      3001      3000      2999      3002
      3001      2999      3002      2999      3002      3003      2999      3002      3004
      2999      3002      3005      3003      3002      3004      3003      3002      3005
      3004      3002      3005      3002      3005      3006      3002      3005      3007
      3002      3005      3008      3006      3005      3007      3006      3005      3008
      3007      3005      3008      3005      3008      3009      3005      3008      3010
      3005      3008      3011      3009      3008      3010      3009      3008      3011
      3010      3008      3011      3008      3011      3012      3008      3011      3013
      3008      3011      3014      3012      3011      3013      3012      3011      3014
      3013      3011      3014      3011      3014      3015      3011      3014      3016
      3011      3014      3017      3015      3014      3016      3015      3014      3017
      3016      3014      3017      3014      3017      3018      3014      3017      3019
      3018      3017      3019      3017      3019      3020      3017      3019      3021
      3020      3019      3021      3019      3021      3022      3019      3021      3023
      3019      3021      3024      3022      3021      3023      3022      3021      3024
      3023      3021      3024      3021      3024      3025      3021      3024      3026
      3021      3024      3027      3025      3024      3026      3025      3024      3027
      3026      3024      3027      3024      3027      3028      3024      3027      3029
      3024      3027      3030      3028      3027      3029      3028      3027      3030
      3029      3027      3030      3027      3030      3031      3027      3030      3032
      3027      3030      3033      3031      3030      3032      3031      3030      3033
      3032      3030      3033      3030      3033      3034      3030      3033      3035
      3030      3033      3036      3034      3033      3035      3034      3033      3036
      3035      3033      3036      3033      3036      3037      3033      3036      3038
      3033      3036      3039      3037      3036      3038      3037      3036      3039
      3038      3036      3039      3036      3039      3040      3036      3039      3041
      3036      3039      3042      3040      3039      3041      3040      3039      3042
      3041      3039      3042      3039      3042      3043      3039      3042      3044
      3039      3042      3045      3043      3042      3044      3043      3042      3045
      3044      3042      3045      2996      3046      3047      2996      3046      3048
      2996      3046      3049      3047      3046      3048      3047      3046      3049
      3048      3046      3049      3046      3049      3050      3046      3049      3051
      3046      3049      3052      3050      3049      3051      3050      3049      3052
      3051      3049      3052      3049      3052      3053      3049      3052      3054
      3049      3052      3055      3053      3052      3054      3053      3052      3055
      3054      3052      3055      3052      3055      3056      3052      3055      3057
      3052      3055      3058      3056      3055      3057      3056      3055      3058
      3057      3055      3058      3055      3058      3059      3055      3058      3060
      3055      3058      3061      3059      3058      3060      3059      3058      3061
      3060      3058      3061      3058      3061      3062      3058      3061      3063
      3058      3061      3064      3062      3061      3063      3062      3061      3064
      3063      3061      3064      3061      3064      3065      3061      3064      3066
      3061      3064      3067      3065      3064      3066      3065      3064      3067
      3066      3064      3067      3064      3067      3068      3064      3067      3069
      3064      3067      3070      3068      3067      3069      3068      3067      3070
      3069      3067      3070      3067      3070      3071      3067      3070      3072
      3067      3070      3073      3071      3070      3072      3071      3070      3073
      3072      3070      3073      3070      3073      3074      3070      3073      3075
      3070      3073      3076      3074      3073      3075      3074      3073      3076
      3075      3073      3076      3073      3076      3077      3073      3076      3078
      3073      3076      3079      3077      3076      3078      3077      3076      3079
      3078      3076      3079      3076      3079      3080      3076      3079      3081
      3076      3079      3082      3080      3079      3081      3080      3079      3082
      3081      3079      3082      3079      3082      3083      3079      3082      3084
      3079      3082      3085      3083      3082      3084      3083      3082      3085
      3084      3082      3085      3082      3085      3086      3082      3085      3087
      3082      3085      3088      3086      3085      3087      3086      3085      3088
      3087      3085      3088      3090      3089      3091      3090      3089      3092
      3090      3089      3093      3091      3089      3092      3091      3089      3093
      3092      3089      3093      3089      3093      3094      3089      3093      3095
      3089      3093      3096      3094      3093      3095      3094      3093      3096
      3095      3093      3096      3093      3096      3097      3093      3096      3098
      3093      3096      3103      3097      3096      3098      3097      3096      3103
      3098      3096      3103      3100      3099      3101      3100      3099      3102
      3100      3099      3103      3101      3099      3102      3101      3099      3103
      3102      3099      3103      3099      3102      3104      3096      3103      3099
      3102      3104      3105      3102      3104      3106      3102      3104      3107
      3105      3104      3106      3105      3104      3107      3106      3104      3107
      3104      3107      3108      3104      3107      3109      3104      3107      3115
      3108      3107      3109      3108      3107      3115      3109      3107      3115
      3107      3109      3110      3109      3110      3111      3109      3110      3112
      3111      3110      3112      3110      3112      3113      3110      3112      3114
      3110      3112      3124      3113      3112      3114      3113      3112      3124
      3114      3112      3124      3107      3115      3116      3107      3115      3117
      3107      3115      3118      3116      3115      3117      3116      3115      3118
      3117      3115      3118      3115      3118      3119      3118      3119      3120
      3118      3119      3121      3120      3119      3121      3119      3121      3122
      3119      3121      3123      3119      3121      3171      3122      3121      3123
      3122      3121      3171      3123      3121      3171      3112      3124      3125
      3112      3124      3126      3112      3124      3127      3125      3124      3126
      3125      3124      3127      3126      3124      3127      3124      3127      3128
      3124      3127      3129      3124      3127      3130      3128      3127      3129
      3128      3127      3130      3129      3127      3130      3127      3130      3131
      3127      3130      3132      3127      3130      3133      3131      3130      3132
      3131      3130      3133      3132      3130      3133      3130      3133      3134
      3130      3133      3135      3130      3133      3136      3134      3133      3135
      3134      3133      3136      3135      3133      3136      3133      3136      3137
      3133      3136      3138      3133      3136      3139      3137      3136      3138
      3137      3136      3139      3138      3136      3139      3136      3139      3140
      3136      3139      3141      3136      3139      3142      3140      3139      3141
      3140      3139      3142      3141      3139      3142      3139      3142      3143
      3139      3142      3144      3143      3142      3144      3142      3144      3145
      3142      3144      3146      3145      3144      3146      3144      3146      3147
      3144      3146      3148      3144      3146      3149      3147      3146      3148
      3147      3146      3149      3148      3146      3149      3146      3149      3150
      3146      3149      3151      3146      3149      3152      3150      3149      3151
      3150      3149      3152      3151      3149      3152      3149      3152      3153
      3149      3152      3154      3149      3152      3155      3153      3152      3154
      3153      3152      3155      3154      3152      3155      3152      3155      3156
      3152      3155      3157      3152      3155      3158      3156      3155      3157
      3156      3155      3158      3157      3155      3158      3155      3158      3159
      3155      3158      3160      3155      3158      3161      3159      3158      3160
      3159      3158      3161      3160      3158      3161      3158      3161      3162
      3158      3161      3163      3158      3161      3164      3162      3161      3163
      3162      3161      3164      3163      3161      3164      3161      3164      3165
      3161      3164      3166      3161      3164      3167      3165      3164      3166
      3165      3164      3167      3166      3164      3167      3164      3167      3168
      3164      3167      3169      3164      3167      3170      3168      3167      3169
      3168      3167      3170      3169      3167      3170      3121      3171      3172
      3121      3171      3173      3121      3171      3174      3172      3171      3173
      3172      3171      3174      3173      3171      3174      3171      3174      3175
      3171      3174      3176      3171      3174      3177      3175      3174      3176
      3175      3174      3177      3176      3174      3177      3174      3177      3178
      3174      3177      3179      3174      3177      3180      3178      3177      3179
      3178      3177      3180      3179      3177      3180      3177      3180      3181
      3177      3180      3182      3177      3180      3183      3181      3180      3182
      3181      3180      3183      3182      3180      3183      3180      3183      3184
      3180      3183      3185      3180      3183      3186      3184      3183      3185
      3184      3183      3186      3185      3183      3186      3183      3186      3187
      3183      3186      3188      3183      3186      3189      3187      3186      3188
      3187      3186      3189      3188      3186      3189      3186      3189      3190
      3186      3189      3191      3186      3189      3192      3190      3189      3191
      3190      3189      3192      3191      3189      3192      3189      3192      3193
      3189      3192      3194      3189      3192      3195      3193      3192      3194
      3193      3192      3195      3194      3192      3195      3192      3195      3196
      3192      3195      3197      3192      3195      3198      3196      3195      3197
      3196      3195      3198      3197      3195      3198      3195      3198      3199
      3195      3198      3200      3195      3198      3201      3199      3198      3200
      3199      3198      3201      3200      3198      3201      3198      3201      3202
      3198      3201      3203      3198      3201      3204      3202      3201      3203
      3202      3201      3204      3203      3201      3204      3201      3204      3205
      3201      3204      3206      3201      3204      3207      3205      3204      3206
      3205      3204      3207      3206      3204      3207      3204      3207      3208
      3204      3207      3209      3204      3207      3210      3208      3207      3209
      3208      3207      3210      3209      3207      3210      3207      3210      3211
      3207      3210      3212      3207      3210      3213      3211      3210      3212
      3211      3210      3213      3212      3210      3213      3215      3214      3218
      3215      3214      3222      3215      3214      3226      3218      3214      3222
      3218      3214      3226      3222      3214      3226      3214      3215      3216
      3214      3215      3217      3214      3215      3230      3216      3215      3217
      3216      3215      3230      3217      3215      3230      3214      3218      3219
      3214      3218      3220      3214      3218      3221      3219      3218      3220
      3219      3218      3221      3220      3218      3221      3214      3222      3223
      3214      3222      3224      3214      3222      3225      3223      3222      3224
      3223      3222      3225      3224      3222      3225      3214      3226      3227
      3214      3226      3228      3214      3226      3229      3227      3226      3228
      3227      3226      3229      3228      3226      3229      3215      3230      3231
      3215      3230      3232      3215      3230      3236      3231      3230      3232
      3231      3230      3236      3232      3230      3236      3234      3233      3235
      3234      3233      3236      3234      3233      3237      3235      3233      3236
      3235      3233      3237      3236      3233      3237      3230      3236      3233
      3233      3237      3238      3237      3238      3239      3237      3238      3240
      3237      3238      3241      3239      3238      3240      3239      3238      3241
      3240      3238      3241      3238      3241      3242      3238      3241      3243
      3238      3241      3249      3242      3241      3243      3242      3241      3249
      3243      3241      3249      3241      3243      3244      3243      3244      3245
      3243      3244      3246      3245      3244      3246      3244      3246      3247
      3244      3246      3248      3244      3246      3258      3247      3246      3248
      3247      3246      3258      3248      3246      3258      3241      3249      3250
      3241      3249      3251      3241      3249      3252      3250      3249      3251
      3250      3249      3252      3251      3249      3252      3249      3252      3253
      3252      3253      3254      3252      3253      3255      3254      3253      3255
      3253      3255      3256      3253      3255      3257      3253      3255      3305
      3256      3255      3257      3256      3255      3305      3257      3255      3305
      3246      3258      3259      3246      3258      3260      3246      3258      3261
      3259      3258      3260      3259      3258      3261      3260      3258      3261
      3258      3261      3262      3258      3261      3263      3258      3261      3264
      3262      3261      3263      3262      3261      3264      3263      3261      3264
      3261      3264      3265      3261      3264      3266      3261      3264      3267
      3265      3264      3266      3265      3264      3267      3266      3264      3267
      3264      3267      3268      3264      3267      3269      3264      3267      3270
      3268      3267      3269      3268      3267      3270      3269      3267      3270
      3267      3270      3271      3267      3270      3272      3267      3270      3273
      3271      3270      3272      3271      3270      3273      3272      3270      3273
      3270      3273      3274      3270      3273      3275      3270      3273      3276
      3274      3273      3275      3274      3273      3276      3275      3273      3276
      3273      3276      3277      3273      3276      3278      3277      3276      3278
      3276      3278      3279      3276      3278      3280      3279      3278      3280
      3278      3280      3281      3278      3280      3282      3278      3280      3283
      3281      3280      3282      3281      3280      3283      3282      3280      3283
      3280      3283      3284      3280      3283      3285      3280      3283      3286
      3284      3283      3285      3284      3283      3286      3285      3283      3286
      3283      3286      3287      3283      3286      3288      3283      3286      3289
      3287      3286      3288      3287      3286      3289      3288      3286      3289
      3286      3289      3290      3286      3289      3291      3286      3289      3292
      3290      3289      3291      3290      3289      3292      3291      3289      3292
      3289      3292      3293      3289      3292      3294      3289      3292      3295
      3293      3292      3294      3293      3292      3295      3294      3292      3295
      3292      3295      3296      3292      3295      3297      3292      3295      3298
      3296      3295      3297      3296      3295      3298      3297      3295      3298
      3295      3298      3299      3295      3298      3300      3295      3298      3301
      3299      3298      3300      3299      3298      3301      3300      3298      3301
      3298      3301      3302      3298      3301      3303      3298      3301      3304
      3302      3301      3303      3302      3301      3304      3303      3301      3304
      3255      3305      3306      3255      3305      3307      3255      3305      3308
      3306      3305      3307      3306      3305      3308      3307      3305      3308
      3305      3308      3309      3305      3308      3310      3305      3308      3311
      3309      3308      3310      3309      3308      3311      3310      3308      3311
      3308      3311      3312      3308      3311      3313      3308      3311      3314
      3312      3311      3313      3312      3311      3314      3313      3311      3314
      3311      3314      3315      3311      3314      3316      3311      3314      3317
      3315      3314      3316      3315      3314      3317      3316      3314      3317
      3314      3317      3318      3314      3317      3319      3314      3317      3320
      3318      3317      3319      3318      3317      3320      3319      3317      3320
      3317      3320      3321      3317      3320      3322      3317      3320      3323
      3321      3320      3322      3321      3320      3323      3322      3320      3323
      3320      3323      3324      3320      3323      3325      3320      3323      3326
      3324      3323      3325      3324      3323      3326      3325      3323      3326
      3323      3326      3327      3323      3326      3328      3323      3326      3329
      3327      3326      3328      3327      3326      3329      3328      3326      3329
      3326      3329      3330      3326      3329      3331      3326      3329      3332
      3330      3329      3331      3330      3329      3332      3331      3329      3332
      3329      3332      3333      3329      3332      3334      3329      3332      3335
      3333      3332      3334      3333      3332      3335      3334      3332      3335
      3332      3335      3336      3332      3335      3337      3332      3335      3338
      3336      3335      3337      3336      3335      3338      3337      3335      3338
      3335      3338      3339      3335      3338      3340      3335      3338      3341
      3339      3338      3340      3339      3338      3341      3340      3338      3341
      3338      3341      3342      3338      3341      3343      3338      3341      3344
      3342      3341      3343      3342      3341      3344      3343      3341      3344
      3341      3344      3345      3341      3344      3346      3341      3344      3347
      3345      3344      3346      3345      3344      3347      3346      3344      3347
      3349      3348      3350      3349      3348      3351      3349      3348      3352
      3350      3348      3351      3350      3348      3352      3351      3348      3352
      3348      3352      3353      3348      3352      3354      3348      3352      3357
      3353      3352      3354      3353      3352      3357      3354      3352      3357
      3352      3354      3355      3352      3354      3356      3355      3354      3356
      3352      3357      3358      3352      3357      3359      3352      3357      3363
      3358      3357      3359      3358      3357      3363      3359      3357      3363
      3361      3360      3362      3361      3360      3363      3361      3360      3364
      3362      3360      3363      3362      3360      3364      3363      3360      3364
      3357      3363      3360      3360      3364      3365      3364      3365      3366
      3364      3365      3367      3364      3365      3368      3366      3365      3367
      3366      3365      3368      3367      3365      3368      3365      3368      3369
      3365      3368      3370      3365      3368      3376      3369      3368      3370
      3369      3368      3376      3370      3368      3376      3368      3370      3371
      3370      3371      3372      3370      3371      3373      3372      3371      3373
      3371      3373      3374      3371      3373      3375      3371      3373      3385
      3374      3373      3375      3374      3373      3385      3375      3373      3385
      3368      3376      3377      3368      3376      3378      3368      3376      3379
      3377      3376      3378      3377      3376      3379      3378      3376      3379
      3376      3379      3380      3379      3380      3381      3379      3380      3382
      3381      3380      3382      3380      3382      3383      3380      3382      3384
      3380      3382      3432      3383      3382      3384      3383      3382      3432
      3384      3382      3432      3373      3385      3386      3373      3385      3387
      3373      3385      3388      3386      3385      3387      3386      3385      3388
      3387      3385      3388      3385      3388      3389      3385      3388      3390
      3385      3388      3391      3389      3388      3390      3389      3388      3391
      3390      3388      3391      3388      3391      3392      3388      3391      3393
      3388      3391      3394      3392      3391      3393      3392      3391      3394
      3393      3391      3394      3391      3394      3395      3391      3394      3396
      3391      3394      3397      3395      3394      3396      3395      3394      3397
      3396      3394      3397      3394      3397      3398      3394      3397      3399
      3394      3397      3400      3398      3397      3399      3398      3397      3400
      3399      3397      3400      3397      3400      3401      3397      3400      3402
      3397      3400      3403      3401      3400      3402      3401      3400      3403
      3402      3400      3403      3400      3403      3404      3400      3403      3405
      3404      3403      3405      3403      3405      3406      3403      3405      3407
      3406      3405      3407      3405      3407      3408      3405      3407      3409
      3405      3407      3410      3408      3407      3409      3408      3407      3410
      3409      3407      3410      3407      3410      3411      3407      3410      3412
      3407      3410      3413      3411      3410      3412      3411      3410      3413
      3412      3410      3413      3410      3413      3414      3410      3413      3415
      3410      3413      3416      3414      3413      3415      3414      3413      3416
      3415      3413      3416      3413      3416      3417      3413      3416      3418
      3413      3416      3419      3417      3416      3418      3417      3416      3419
      3418      3416      3419      3416      3419      3420      3416      3419      3421
      3416      3419      3422      3420      3419      3421      3420      3419      3422
      3421      3419      3422      3419      3422      3423      3419      3422      3424
      3419      3422      3425      3423      3422      3424      3423      3422      3425
      3424      3422      3425      3422      3425      3426      3422      3425      3427
      3422      3425      3428      3426      3425      3427      3426      3425      3428
      3427      3425      3428      3425      3428      3429      3425      3428      3430
      3425      3428      3431      3429      3428      3430      3429      3428      3431
      3430      3428      3431      3382      3432      3433      3382      3432      3434
      3382      3432      3435      3433      3432      3434      3433      3432      3435
      3434      3432      3435      3432      3435      3436      3432      3435      3437
      3432      3435      3438      3436      3435      3437      3436      3435      3438
      3437      3435      3438      3435      3438      3439      3435      3438      3440
      3435      3438      3441      3439      3438      3440      3439      3438      3441
      3440      3438      3441      3438      3441      3442      3438      3441      3443
      3438      3441      3444      3442      3441      3443      3442      3441      3444
      3443      3441      3444      3441      3444      3445      3441      3444      3446
      3441      3444      3447      3445      3444      3446      3445      3444      3447
      3446      3444      3447      3444      3447      3448      3444      3447      3449
      3444      3447      3450      3448      3447      3449      3448      3447      3450
      3449      3447      3450      3447      3450      3451      3447      3450      3452
      3447      3450      3453      3451      3450      3452      3451      3450      3453
      3452      3450      3453      3450      3453      3454      3450      3453      3455
      3450      3453      3456      3454      3453      3455      3454      3453      3456
      3455      3453      3456      3453      3456      3457      3453      3456      3458
      3453      3456      3459      3457      3456      3458      3457      3456      3459
      3458      3456      3459      3456      3459      3460      3456      3459      3461
      3456      3459      3462      3460      3459      3461      3460      3459      3462
      3461      3459      3462      3459      3462      3463      3459      3462      3464
      3459      3462      3465      3463      3462      3464      3463      3462      3465
      3464      3462      3465      3462      3465      3466      3462      3465      3467
      3462      3465      3468      3466      3465      3467      3466      3465      3468
      3467      3465      3468      3465      3468      3469      3465      3468      3470
      3465      3468      3471      3469      3468      3470      3469      3468      3471
      3470      3468      3471      3468      3471      3472      3468      3471      3473
      3468      3471      3474      3472      3471      3473      3472      3471      3474
      3473      3471      3474      3476      3475      3480      3476      3475      3484
      3476      3475      3488      3480      3475      3484      3480      3475      3488
      3484      3475      3488      3475      3476      3477      3475      3476      3478
      3475      3476      3479      3477      3476      3478      3477      3476      3479
      3478      3476      3479      3475      3480      3481      3475      3480      3482
      3475      3480      3483      3481      3480      3482      3481      3480      3483
      3482      3480      3483      3475      3484      3485      3475      3484      3486
      3475      3484      3487      3485      3484      3486      3485      3484      3487
      3486      3484      3487      3475      3488      3489      3475      3488      3490
      3475      3488      3491      3489      3488      3490      3489      3488      3491
      3490      3488      3491      3488      3491      3492      3488      3491      3493
      3488      3491      3498      3492      3491      3493      3492      3491      3498
      3493      3491      3498      3495      3494      3496      3495      3494      3497
      3495      3494      3498      3496      3494      3497      3496      3494      3498
      3497      3494      3498      3494      3497      3499      3491      3498      3494
      3497      3499      3500      3497      3499      3501      3497      3499      3504
      3500      3499      3501      3500      3499      3504      3501      3499      3504
      3503      3502      3504      3503      3502      3554      3504      3502      3554
      3499      3504      3502      3499      3504      3505      3499      3504      3506
      3502      3504      3505      3502      3504      3506      3505      3504      3506
      3504      3506      3507      3504      3506      3508      3504      3506      3510
      3507      3506      3508      3507      3506      3510      3508      3506      3510
      3506      3508      3509      3506      3510      3511      3506      3510      3512
      3511      3510      3512      3510      3512      3513      3510      3512      3514
      3513      3512      3514      3512      3514      3515      3512      3514      3516
      3512      3514      3517      3515      3514      3516      3515      3514      3517
      3516      3514      3517      3514      3517      3518      3514      3517      3519
      3514      3517      3520      3518      3517      3519      3518      3517      3520
      3519      3517      3520      3517      3520      3521      3517      3520      3522
      3517      3520      3523      3521      3520      3522      3521      3520      3523
      3522      3520      3523      3520      3523      3524      3520      3523      3525
      3520      3523      3526      3524      3523      3525      3524      3523      3526
      3525      3523      3526      3523      3526      3527      3523      3526      3528
      3523      3526      3529      3527      3526      3528      3527      3526      3529
      3528      3526      3529      3526      3529      3530      3526      3529      3531
      3526      3529      3532      3530      3529      3531      3530      3529      3532
      3531      3529      3532      3529      3532      3533      3529      3532      3534
      3529      3532      3535      3533      3532      3534      3533      3532      3535
      3534      3532      3535      3532      3535      3536      3532      3535      3537
      3532      3535      3538      3536      3535      3537      3536      3535      3538
      3537      3535      3538      3535      3538      3539      3535      3538      3540
      3535      3538      3541      3539      3538      3540      3539      3538      3541
      3540      3538      3541      3538      3541      3542      3538      3541      3543
      3538      3541      3544      3542      3541      3543      3542      3541      3544
      3543      3541      3544      3541      3544      3545      3541      3544      3546
      3541      3544      3547      3545      3544      3546      3545      3544      3547
      3546      3544      3547      3544      3547      3548      3544      3547      3549
      3544      3547      3550      3548      3547      3549      3548      3547      3550
      3549      3547      3550      3547      3550      3551      3547      3550      3552
      3547      3550      3553      3551      3550      3552      3551      3550      3553
      3552      3550      3553      3502      3554      3555      3502      3554      3556
      3555      3554      3556      3554      3556      3557      3554      3556      3558
      3554      3556      3559      3557      3556      3558      3557      3556      3559
      3558      3556      3559      3556      3559      3560      3556      3559      3561
      3556      3559      3562      3560      3559      3561      3560      3559      3562
      3561      3559      3562      3559      3562      3563      3559      3562      3564
      3559      3562      3565      3563      3562      3564      3563      3562      3565
      3564      3562      3565      3562      3565      3566      3562      3565      3567
      3562      3565      3568      3566      3565      3567      3566      3565      3568
      3567      3565      3568      3565      3568      3569      3565      3568      3570
      3565      3568      3571      3569      3568      3570      3569      3568      3571
      3570      3568      3571      3568      3571      3572      3568      3571      3573
      3568      3571      3574      3572      3571      3573      3572      3571      3574
      3573      3571      3574      3571      3574      3575      3571      3574      3576
      3571      3574      3577      3575      3574      3576      3575      3574      3577
      3576      3574      3577      3574      3577      3578      3574      3577      3579
      3574      3577      3580      3578      3577      3579      3578      3577      3580
      3579      3577      3580      3577      3580      3581      3577      3580      3582
      3577      3580      3583      3581      3580      3582      3581      3580      3583
      3582      3580      3583      3580      3583      3584      3580      3583      3585
      3580      3583      3586      3584      3583      3585      3584      3583      3586
      3585      3583      3586      3583      3586      3587      3583      3586      3588
      3583      3586      3589      3587      3586      3588      3587      3586      3589
      3588      3586      3589      3586      3589      3590      3586      3589      3591
      3586      3589      3592      3590      3589      3591      3590      3589      3592
      3591      3589      3592      3589      3592      3593      3589      3592      3594
      3589      3592      3595      3593      3592      3594      3593      3592      3595
      3594      3592      3595      3592      3595      3596      3592      3595      3597
      3592      3595      3598      3596      3595      3597      3596      3595      3598
      3597      3595      3598      3595      3598      3599      3595      3598      3600
      3595      3598      3601      3599      3598      3600      3599      3598      3601
      3600      3598      3601      3603      3602      3606      3603      3602      3610
      3603      3602      3614      3606      3602      3610      3606      3602      3614
      3610      3602      3614      3602      3603      3604      3602      3603      3605
      3602      3603      3618      3604      3603      3605      3604      3603      3618
      3605      3603      3618      3602      3606      3607      3602      3606      3608
      3602      3606      3609      3607      3606      3608      3607      3606      3609
      3608      3606      3609      3602      3610      3611      3602      3610      3612
      3602      3610      3613      3611      3610      3612      3611      3610      3613
      3612      3610      3613      3602      3614      3615      3602      3614      3616
      3602      3614      3617      3615      3614      3616      3615      3614      3617
      3616      3614      3617      3603      3618      3619      3603      3618      3620
      3603      3618      3624      3619      3618      3620      3619      3618      3624
      3620      3618      3624      3622      3621      3623      3622      3621      3624
      3622      3621      3625      3623      3621      3624      3623      3621      3625
      3624      3621      3625      3618      3624      3621      3621      3625      3626
      3625      3626      3627      3625      3626      3628      3625      3626      3629
      3627      3626      3628      3627      3626      3629      3628      3626      3629
      3626      3629      3630      3626      3629      3631      3626      3629      3637
      3630      3629      3631      3630      3629      3637      3631      3629      3637
      3629      3631      3632      3631      3632      3633      3631      3632      3634
      3633      3632      3634      3632      3634      3635      3632      3634      3636
      3632      3634      3646      3635      3634      3636      3635      3634      3646
      3636      3634      3646      3629      3637      3638      3629      3637      3639
      3629      3637      3640      3638      3637      3639      3638      3637      3640
      3639      3637      3640      3637      3640      3641      3640      3641      3642
      3640      3641      3643      3642      3641      3643      3641      3643      3644
      3641      3643      3645      3641      3643      3693      3644      3643      3645
      3644      3643      3693      3645      3643      3693      3634      3646      3647
      3634      3646      3648      3634      3646      3649      3647      3646      3648
      3647      3646      3649      3648      3646      3649      3646      3649      3650
      3646      3649      3651      3646      3649      3652      3650      3649      3651
      3650      3649      3652      3651      3649      3652      3649      3652      3653
      3649      3652      3654      3649      3652      3655      3653      3652      3654
      3653      3652      3655      3654      3652      3655      3652      3655      3656
      3652      3655      3657      3652      3655      3658      3656      3655      3657
      3656      3655      3658      3657      3655      3658      3655      3658      3659
      3655      3658      3660      3655      3658      3661      3659      3658      3660
      3659      3658      3661      3660      3658      3661      3658      3661      3662
      3658      3661      3663      3658      3661      3664      3662      3661      3663
      3662      3661      3664      3663      3661      3664      3661      3664      3665
      3661      3664      3666      3665      3664      3666      3664      3666      3667
      3664      3666      3668      3667      3666      3668      3666      3668      3669
      3666      3668      3670      3666      3668      3671      3669      3668      3670
      3669      3668      3671      3670      3668      3671      3668      3671      3672
      3668      3671      3673      3668      3671      3674      3672      3671      3673
      3672      3671      3674      3673      3671      3674      3671      3674      3675
      3671      3674      3676      3671      3674      3677      3675      3674      3676
      3675      3674      3677      3676      3674      3677      3674      3677      3678
      3674      3677      3679      3674      3677      3680      3678      3677      3679
      3678      3677      3680      3679      3677      3680      3677      3680      3681
      3677      3680      3682      3677      3680      3683      3681      3680      3682
      3681      3680      3683      3682      3680      3683      3680      3683      3684
      3680      3683      3685      3680      3683      3686      3684      3683      3685
      3684      3683      3686      3685      3683      3686      3683      3686      3687
      3683      3686      3688      3683      3686      3689      3687      3686      3688
      3687      3686      3689      3688      3686      3689      3686      3689      3690
      3686      3689      3691      3686      3689      3692      3690      3689      3691
      3690      3689      3692      3691      3689      3692      3643      3693      3694
      3643      3693      3695      3643      3693      3696      3694      3693      3695
      3694      3693      3696      3695      3693      3696      3693      3696      3697
      3693      3696      3698      3693      3696      3699      3697      3696      3698
      3697      3696      3699      3698      3696      3699      3696      3699      3700
      3696      3699      3701      3696      3699      3702      3700      3699      3701
      3700      3699      3702      3701      3699      3702      3699      3702      3703
      3699      3702      3704      3699      3702      3705      3703      3702      3704
      3703      3702      3705      3704      3702      3705      3702      3705      3706
      3702      3705      3707      3702      3705      3708      3706      3705      3707
      3706      3705      3708      3707      3705      3708      3705      3708      3709
      3705      3708      3710      3705      3708      3711      3709      3708      3710
      3709      3708      3711      3710      3708      3711      3708      3711      3712
      3708      3711      3713      3708      3711      3714      3712      3711      3713
      3712      3711      3714      3713      3711      3714      3711      3714      3715
      3711      3714      3716      3711      3714      3717      3715      3714      3716
      3715      3714      3717      3716      3714      3717      3714      3717      3718
      3714      3717      3719      3714      3717      3720      3718      3717      3719
      3718      3717      3720      3719      3717      3720      3717      3720      3721
      3717      3720      3722      3717      3720      3723      3721      3720      3722
      3721      3720      3723      3722      3720      3723      3720      3723      3724
      3720      3723      3725      3720      3723      3726      3724      3723      3725
      3724      3723      3726      3725      3723      3726      3723      3726      3727
      3723      3726      3728      3723      3726      3729      3727      3726      3728
      3727      3726      3729      3728      3726      3729      3726      3729      3730
      3726      3729      3731      3726      3729      3732      3730      3729      3731
      3730      3729      3732      3731      3729      3732      3729      3732      3733
      3729      3732      3734      3729      3732      3735      3733      3732      3734
      3733      3732      3735      3734      3732      3735      3737      3736      3738
      3737      3736      3739      3737      3736      3740      3738      3736      3739
      3738      3736      3740      3739      3736      3740      3736      3740      3741
      3736      3740      3742      3736      3740      3745      3741      3740      3742
      3741      3740      3745      3742      3740      3745      3740      3742      3743
      3740      3742      3744      3743      3742      3744      3740      3745      3746
      3740      3745      3747      3740      3745      3751      3746      3745      3747
      3746      3745      3751      3747      3745      3751      3749      3748      3750
      3749      3748      3751      3749      3748      3752      3750      3748      3751
      3750      3748      3752      3751      3748      3752      3745      3751      3748
      3748      3752      3753      3752      3753      3754      3752      3753      3755
      3752      3753      3756      3754      3753      3755      3754      3753      3756
      3755      3753      3756      3753      3756      3757      3753      3756      3758
      3753      3756      3764      3757      3756      3758      3757      3756      3764
      3758      3756      3764      3756      3758      3759      3758      3759      3760
      3758      3759      3761      3760      3759      3761      3759      3761      3762
      3759      3761      3763      3759      3761      3773      3762      3761      3763
      3762      3761      3773      3763      3761      3773      3756      3764      3765
      3756      3764      3766      3756      3764      3767      3765      3764      3766
      3765      3764      3767      3766      3764      3767      3764      3767      3768
      3767      3768      3769      3767      3768      3770      3769      3768      3770
      3768      3770      3771      3768      3770      3772      3768      3770      3820
      3771      3770      3772      3771      3770      3820      3772      3770      3820
      3761      3773      3774      3761      3773      3775      3761      3773      3776
      3774      3773      3775      3774      3773      3776      3775      3773      3776
      3773      3776      3777      3773      3776      3778      3773      3776      3779
      3777      3776      3778      3777      3776      3779      3778      3776      3779
      3776      3779      3780      3776      3779      3781      3776      3779      3782
      3780      3779      3781      3780      3779      3782      3781      3779      3782
      3779      3782      3783      3779      3782      3784      3779      3782      3785
      3783      3782      3784      3783      3782      3785      3784      3782      3785
      3782      3785      3786      3782      3785      3787      3782      3785      3788
      3786      3785      3787      3786      3785      3788      3787      3785      3788
      3785      3788      3789      3785      3788      3790      3785      3788      3791
      3789      3788      3790      3789      3788      3791      3790      3788      3791
      3788      3791      3792      3788      3791      3793      3792      3791      3793
      3791      3793      3794      3791      3793      3795      3794      3793      3795
      3793      3795      3796      3793      3795      3797      3793      3795      3798
      3796      3795      3797      3796      3795      3798      3797      3795      3798
      3795      3798      3799      3795      3798      3800      3795      3798      3801
      3799      3798      3800      3799      3798      3801      3800      3798      3801
      3798      3801      3802      3798      3801      3803      3798      3801      3804
      3802      3801      3803      3802      3801      3804      3803      3801      3804
      3801      3804      3805      3801      3804      3806      3801      3804      3807
      3805      3804      3806      3805      3804      3807      3806      3804      3807
      3804      3807      3808      3804      3807      3809      3804      3807      3810
      3808      3807      3809      3808      3807      3810      3809      3807      3810
      3807      3810      3811      3807      3810      3812      3807      3810      3813
      3811      3810      3812      3811      3810      3813      3812      3810      3813
      3810      3813      3814      3810      3813      3815      3810      3813      3816
      3814      3813      3815      3814      3813      3816      3815      3813      3816
      3813      3816      3817      3813      3816      3818      3813      3816      3819
      3817      3816      3818      3817      3816      3819      3818      3816      3819
      3770      3820      3821      3770      3820      3822      3770      3820      3823
      3821      3820      3822      3821      3820      3823      3822      3820      3823
      3820      3823      3824      3820      3823      3825      3820      3823      3826
      3824      3823      3825      3824      3823      3826      3825      3823      3826
      3823      3826      3827      3823      3826      3828      3823      3826      3829
      3827      3826      3828      3827      3826      3829      3828      3826      3829
      3826      3829      3830      3826      3829      3831      3826      3829      3832
      3830      3829      3831      3830      3829      3832      3831      3829      3832
      3829      3832      3833      3829      3832      3834      3829      3832      3835
      3833      3832      3834      3833      3832      3835      3834      3832      3835
      3832      3835      3836      3832      3835      3837      3832      3835      3838
      3836      3835      3837      3836      3835      3838      3837      3835      3838
      3835      3838      3839      3835      3838      3840      3835      3838      3841
      3839      3838      3840      3839      3838      3841      3840      3838      3841
      3838      3841      3842      3838      3841      3843      3838      3841      3844
      3842      3841      3843      3842      3841      3844      3843      3841      3844
      3841      3844      3845      3841      3844      3846      3841      3844      3847
      3845      3844      3846      3845      3844      3847      3846      3844      3847
      3844      3847      3848      3844      3847      3849      3844      3847      3850
      3848      3847      3849      3848      3847      3850      3849      3847      3850
      3847      3850      3851      3847      3850      3852      3847      3850      3853
      3851      3850      3852      3851      3850      3853      3852      3850      3853
      3850      3853      3854      3850      3853      3855      3850      3853      3856
      3854      3853      3855      3854      3853      3856      3855      3853      3856
      3853      3856      3857      3853      3856      3858      3853      3856      3859
      3857      3856      3858      3857      3856      3859      3858      3856      3859
      3856      3859      3860      3856      3859      3861      3856      3859      3862
      3860      3859      3861      3860      3859      3862      3861      3859      3862
      3864      3863      3868      3864      3863      3872      3864      3863      3876
      3868      3863      3872      3868      3863      3876      3872      3863      3876
      3863      3864      3865      3863      3864      3866      3863      3864      3867
      3865      3864      3866      3865      3864      3867      3866      3864      3867
      3863      3868      3869      3863      3868      3870      3863      3868      3871
      3869      3868      3870      3869      3868      3871      3870      3868      3871
      3863      3872      3873      3863      3872      3874      3863      3872      3875
      3873      3872      3874      3873      3872      3875      3874      3872      3875
      3863      3876      3877      3863      3876      3878      3863      3876      3879
      3877      3876      3878      3877      3876      3879      3878      3876      3879
      3876      3879      3880      3876      3879      3881      3876      3879      3886
      3880      3879      3881      3880      3879      3886      3881      3879      3886
      3883      3882      3884      3883      3882      3885      3883      3882      3886
      3884      3882      3885      3884      3882      3886      3885      3882      3886
      3882      3885      3887      3879      3886      3882      3885      3887      3888
      3885      3887      3889      3885      3887      3892      3888      3887      3889
      3888      3887      3892      3889      3887      3892      3891      3890      3892
      3891      3890      3942      3892      3890      3942      3887      3892      3890
      3887      3892      3893      3887      3892      3894      3890      3892      3893
      3890      3892      3894      3893      3892      3894      3892      3894      3895
      3892      3894      3896      3892      3894      3898      3895      3894      3896
      3895      3894      3898      3896      3894      3898      3894      3896      3897
      3894      3898      3899      3894      3898      3900      3899      3898      3900
      3898      3900      3901      3898      3900      3902      3901      3900      3902
      3900      3902      3903      3900      3902      3904      3900      3902      3905
      3903      3902      3904      3903      3902      3905      3904      3902      3905
      3902      3905      3906      3902      3905      3907      3902      3905      3908
      3906      3905      3907      3906      3905      3908      3907      3905      3908
      3905      3908      3909      3905      3908      3910      3905      3908      3911
      3909      3908      3910      3909      3908      3911      3910      3908      3911
      3908      3911      3912      3908      3911      3913      3908      3911      3914
      3912      3911      3913      3912      3911      3914      3913      3911      3914
      3911      3914      3915      3911      3914      3916      3911      3914      3917
      3915      3914      3916      3915      3914      3917      3916      3914      3917
      3914      3917      3918      3914      3917      3919      3914      3917      3920
      3918      3917      3919      3918      3917      3920      3919      3917      3920
      3917      3920      3921      3917      3920      3922      3917      3920      3923
      3921      3920      3922      3921      3920      3923      3922      3920      3923
      3920      3923      3924      3920      3923      3925      3920      3923      3926
      3924      3923      3925      3924      3923      3926      3925      3923      3926
      3923      3926      3927      3923      3926      3928      3923      3926      3929
      3927      3926      3928      3927      3926      3929      3928      3926      3929
      3926      3929      3930      3926      3929      3931      3926      3929      3932
      3930      3929      3931      3930      3929      3932      3931      3929      3932
      3929      3932      3933      3929      3932      3934      3929      3932      3935
      3933      3932      3934      3933      3932      3935      3934      3932      3935
      3932      3935      3936      3932      3935      3937      3932      3935      3938
      3936      3935      3937      3936      3935      3938      3937      3935      3938
      3935      3938      3939      3935      3938      3940      3935      3938      3941
      3939      3938      3940      3939      3938      3941      3940      3938      3941
      3890      3942      3943      3890      3942      3944      3943      3942      3944
      3942      3944      3945      3942      3944      3946      3942      3944      3947
      3945      3944      3946      3945      3944      3947      3946      3944      3947
      3944      3947      3948      3944      3947      3949      3944      3947      3950
      3948      3947      3949      3948      3947      3950      3949      3947      3950
      3947      3950      3951      3947      3950      3952      3947      3950      3953
      3951      3950      3952      3951      3950      3953      3952      3950      3953
      3950      3953      3954      3950      3953      3955      3950      3953      3956
      3954      3953      3955      3954      3953      3956      3955      3953      3956
      3953      3956      3957      3953      3956      3958      3953      3956      3959
      3957      3956      3958      3957      3956      3959      3958      3956      3959
      3956      3959      3960      3956      3959      3961      3956      3959      3962
      3960      3959      3961      3960      3959      3962      3961      3959      3962
      3959      3962      3963      3959      3962      3964      3959      3962      3965
      3963      3962      3964      3963      3962      3965      3964      3962      3965
      3962      3965      3966      3962      3965      3967      3962      3965      3968
      3966      3965      3967      3966      3965      3968      3967      3965      3968
      3965      3968      3969      3965      3968      3970      3965      3968      3971
      3969      3968      3970      3969      3968      3971      3970      3968      3971
      3968      3971      3972      3968      3971      3973      3968      3971      3974
      3972      3971      3973      3972      3971      3974      3973      3971      3974
      3971      3974      3975      3971      3974      3976      3971      3974      3977
      3975      3974      3976      3975      3974      3977      3976      3974      3977
      3974      3977      3978      3974      3977      3979      3974      3977      3980
      3978      3977      3979      3978      3977      3980      3979      3977      3980
      3977      3980      3981      3977      3980      3982      3977      3980      3983
      3981      3980      3982      3981      3980      3983      3982      3980      3983
      3980      3983      3984      3980      3983      3985      3980      3983      3986
      3984      3983      3985      3984      3983      3986      3985      3983      3986
      3983      3986      3987      3983      3986      3988      3983      3986      3989
      3987      3986      3988      3987      3986      3989      3988      3986      3989
      3991      3990      3994      3991      3990      3998      3991      3990      4002
      3994      3990      3998      3994      3990      4002      3998      3990      4002
      3990      3991      3992      3990      3991      3993      3990      3991      4006
      3992      3991      3993      3992      3991      4006      3993      3991      4006
      3990      3994      3995      3990      3994      3996      3990      3994      3997
      3995      3994      3996      3995      3994      3997      3996      3994      3997
      3990      3998      3999      3990      3998      4000      3990      3998      4001
      3999      3998      4000      3999      3998      4001      4000      3998      4001
      3990      4002      4003      3990      4002      4004      3990      4002      4005
      4003      4002      4004      4003      4002      4005      4004      4002      4005
      3991      4006      4007      3991      4006      4008      3991      4006      4012
      4007      4006      4008      4007      4006      4012      4008      4006      4012
      4010      4009      4011      4010      4009      4012      4010      4009      4013
      4011      4009      4012      4011      4009      4013      4012      4009      4013
      4006      4012      4009      4009      4013      4014      4013      4014      4015
      4013      4014      4016      4013      4014      4017      4015      4014      4016
      4015      4014      4017      4016      4014      4017      4014      4017      4018
      4014      4017      4019      4014      4017      4025      4018      4017      4019
      4018      4017      4025      4019      4017      4025      4017      4019      4020
      4019      4020      4021      4019      4020      4022      4021      4020      4022
      4020      4022      4023      4020      4022      4024      4020      4022      4034
      4023      4022      4024      4023      4022      4034      4024      4022      4034
      4017      4025      4026      4017      4025      4027      4017      4025      4028
      4026      4025      4027      4026      4025      4028      4027      4025      4028
      4025      4028      4029      4028      4029      4030      4028      4029      4031
      4030      4029      4031      4029      4031      4032      4029      4031      4033
      4029      4031      4081      4032      4031      4033      4032      4031      4081
      4033      4031      4081      4022      4034      4035      4022      4034      4036
      4022      4034      4037      4035      4034      4036      4035      4034      4037
      4036      4034      4037      4034      4037      4038      4034      4037      4039
      4034      4037      4040      4038      4037      4039      4038      4037      4040
      4039      4037      4040      4037      4040      4041      4037      4040      4042
      4037      4040      4043      4041      4040      4042      4041      4040      4043
      4042      4040      4043      4040      4043      4044      4040      4043      4045
      4040      4043      4046      4044      4043      4045      4044      4043      4046
      4045      4043      4046      4043      4046      4047      4043      4046      4048
      4043      4046      4049      4047      4046      4048      4047      4046      4049
      4048      4046      4049      4046      4049      4050      4046      4049      4051
      4046      4049      4052      4050      4049      4051      4050      4049      4052
      4051      4049      4052      4049      4052      4053      4049      4052      4054
      4053      4052      4054      4052      4054      4055      4052      4054      4056
      4055      4054      4056      4054      4056      4057      4054      4056      4058
      4054      4056      4059      4057      4056      4058      4057      4056      4059
      4058      4056      4059      4056      4059      4060      4056      4059      4061
      4056      4059      4062      4060      4059      4061      4060      4059      4062
      4061      4059      4062      4059      4062      4063      4059      4062      4064
      4059      4062      4065      4063      4062      4064      4063      4062      4065
      4064      4062      4065      4062      4065      4066      4062      4065      4067
      4062      4065      4068      4066      4065      4067      4066      4065      4068
      4067      4065      4068      4065      4068      4069      4065      4068      4070
      4065      4068      4071      4069      4068      4070      4069      4068      4071
      4070      4068      4071      4068      4071      4072      4068      4071      4073
      4068      4071      4074      4072      4071      4073      4072      4071      4074
      4073      4071      4074      4071      4074      4075      4071      4074      4076
      4071      4074      4077      4075      4074      4076      4075      4074      4077
      4076      4074      4077      4074      4077      4078      4074      4077      4079
      4074      4077      4080      4078      4077      4079      4078      4077      4080
      4079      4077      4080      4031      4081      4082      4031      4081      4083
      4031      4081      4084      4082      4081      4083      4082      4081      4084
      4083      4081      4084      4081      4084      4085      4081      4084      4086
      4081      4084      4087      4085      4084      4086      4085      4084      4087
      4086      4084      4087      4084      4087      4088      4084      4087      4089
      4084      4087      4090      4088      4087      4089      4088      4087      4090
      4089      4087      4090      4087      4090      4091      4087      4090      4092
      4087      4090      4093      4091      4090      4092      4091      4090      4093
      4092      4090      4093      4090      4093      4094      4090      4093      4095
      4090      4093      4096      4094      4093      4095      4094      4093      4096
      4095      4093      4096      4093      4096      4097      4093      4096      4098
      4093      4096      4099      4097      4096      4098      4097      4096      4099
      4098      4096      4099      4096      4099      4100      4096      4099      4101
      4096      4099      4102      4100      4099      4101      4100      4099      4102
      4101      4099      4102      4099      4102      4103      4099      4102      4104
      4099      4102      4105      4103      4102      4104      4103      4102      4105
      4104      4102      4105      4102      4105      4106      4102      4105      4107
      4102      4105      4108      4106      4105      4107      4106      4105      4108
      4107      4105      4108      4105      4108      4109      4105      4108      4110
      4105      4108      4111      4109      4108      4110      4109      4108      4111
      4110      4108      4111      4108      4111      4112      4108      4111      4113
      4108      4111      4114      4112      4111      4113      4112      4111      4114
      4113      4111      4114      4111      4114      4115      4111      4114      4116
      4111      4114      4117      4115      4114      4116      4115      4114      4117
      4116      4114      4117      4114      4117      4118      4114      4117      4119
      4114      4117      4120      4118      4117      4119      4118      4117      4120
      4119      4117      4120      4117      4120      4121      4117      4120      4122
      4117      4120      4123      4121      4120      4122      4121      4120      4123
      4122      4120      4123      4125      4124      4129      4125      4124      4133
      4125      4124      4137      4129      4124      4133      4129      4124      4137
      4133      4124      4137      4124      4125      4126      4124      4125      4127
      4124      4125      4128      4126      4125      4127      4126      4125      4128
      4127      4125      4128      4124      4129      4130      4124      4129      4131
      4124      4129      4132      4130      4129      4131      4130      4129      4132
      4131      4129      4132      4124      4133      4134      4124      4133      4135
      4124      4133      4136      4134      4133      4135      4134      4133      4136
      4135      4133      4136      4124      4137      4138      4124      4137      4139
      4124      4137      4140      4138      4137      4139      4138      4137      4140
      4139      4137      4140      4137      4140      4141      4137      4140      4142
      4137      4140      4147      4141      4140      4142      4141      4140      4147
      4142      4140      4147      4144      4143      4145      4144      4143      4146
      4144      4143      4147      4145      4143      4146      4145      4143      4147
      4146      4143      4147      4143      4146      4148      4140      4147      4143
      4146      4148      4149      4146      4148      4150      4146      4148      4153
      4149      4148      4150      4149      4148      4153      4150      4148      4153
      4152      4151      4153      4152      4151      4203      4153      4151      4203
      4148      4153      4151      4148      4153      4154      4148      4153      4155
      4151      4153      4154      4151      4153      4155      4154      4153      4155
      4153      4155      4156      4153      4155      4157      4153      4155      4159
      4156      4155      4157      4156      4155      4159      4157      4155      4159
      4155      4157      4158      4155      4159      4160      4155      4159      4161
      4160      4159      4161      4159      4161      4162      4159      4161      4163
      4162      4161      4163      4161      4163      4164      4161      4163      4165
      4161      4163      4166      4164      4163      4165      4164      4163      4166
      4165      4163      4166      4163      4166      4167      4163      4166      4168
      4163      4166      4169      4167      4166      4168      4167      4166      4169
      4168      4166      4169      4166      4169      4170      4166      4169      4171
      4166      4169      4172      4170      4169      4171      4170      4169      4172
      4171      4169      4172      4169      4172      4173      4169      4172      4174
      4169      4172      4175      4173      4172      4174      4173      4172      4175
      4174      4172      4175      4172      4175      4176      4172      4175      4177
      4172      4175      4178      4176      4175      4177      4176      4175      4178
      4177      4175      4178      4175      4178      4179      4175      4178      4180
      4175      4178      4181      4179      4178      4180      4179      4178      4181
      4180      4178      4181      4178      4181      4182      4178      4181      4183
      4178      4181      4184      4182      4181      4183      4182      4181      4184
      4183      4181      4184      4181      4184      4185      4181      4184      4186
      4181      4184      4187      4185      4184      4186      4185      4184      4187
      4186      4184      4187      4184      4187      4188      4184      4187      4189
      4184      4187      4190      4188      4187      4189      4188      4187      4190
      4189      4187      4190      4187      4190      4191      4187      4190      4192
      4187      4190      4193      4191      4190      4192      4191      4190      4193
      4192      4190      4193      4190      4193      4194      4190      4193      4195
      4190      4193      4196      4194      4193      4195      4194      4193      4196
      4195      4193      4196      4193      4196      4197      4193      4196      4198
      4193      4196      4199      4197      4196      4198      4197      4196      4199
      4198      4196      4199      4196      4199      4200      4196      4199      4201
      4196      4199      4202      4200      4199      4201      4200      4199      4202
      4201      4199      4202      4151      4203      4204      4151      4203      4205
      4204      4203      4205      4203      4205      4206      4203      4205      4207
      4203      4205      4208      4206      4205      4207      4206      4205      4208
      4207      4205      4208      4205      4208      4209      4205      4208      4210
      4205      4208      4211      4209      4208      4210      4209      4208      4211
      4210      4208      4211      4208      4211      4212      4208      4211      4213
      4208      4211      4214      4212      4211      4213      4212      4211      4214
      4213      4211      4214      4211      4214      4215      4211      4214      4216
      4211      4214      4217      4215      4214      4216      4215      4214      4217
      4216      4214      4217      4214      4217      4218      4214      4217      4219
      4214      4217      4220      4218      4217      4219      4218      4217      4220
      4219      4217      4220      4217      4220      4221      4217      4220      4222
      4217      4220      4223      4221      4220      4222      4221      4220      4223
      4222      4220      4223      4220      4223      4224      4220      4223      4225
      4220      4223      4226      4224      4223      4225      4224      4223      4226
      4225      4223      4226      4223      4226      4227      4223      4226      4228
      4223      4226      4229      4227      4226      4228      4227      4226      4229
      4228      4226      4229      4226      4229      4230      4226      4229      4231
      4226      4229      4232      4230      4229      4231      4230      4229      4232
      4231      4229      4232      4229      4232      4233      4229      4232      4234
      4229      4232      4235      4233      4232      4234      4233      4232      4235
      4234      4232      4235      4232      4235      4236      4232      4235      4237
      4232      4235      4238      4236      4235      4237      4236      4235      4238
      4237      4235      4238      4235      4238      4239      4235      4238      4240
      4235      4238      4241      4239      4238      4240      4239      4238      4241
      4240      4238      4241      4238      4241      4242      4238      4241      4243
      4238      4241      4244      4242      4241      4243      4242      4241      4244
      4243      4241      4244      4241      4244      4245      4241      4244      4246
      4241      4244      4247      4245      4244      4246      4245      4244      4247
      4246      4244      4247      4244      4247      4248      4244      4247      4249
      4244      4247      4250      4248      4247      4249      4248      4247      4250
      4249      4247      4250      4252      4251      4253      4252      4251      4254
      4252      4251      4255      4253      4251      4254      4253      4251      4255
      4254      4251      4255      4251      4255      4256      4251      4255      4257
      4251      4255      4258      4256      4255      4257      4256      4255      4258
      4257      4255      4258      4255      4258      4259      4255      4258      4260
      4255      4258      4265      4259      4258      4260      4259      4258      4265
      4260      4258      4265      4262      4261      4263      4262      4261      4264
      4262      4261      4265      4263      4261      4264      4263      4261      4265
      4264      4261      4265      4261      4264      4266      4258      4265      4261
      4264      4266      4267      4264      4266      4268      4264      4266      4269
      4267      4266      4268      4267      4266      4269      4268      4266      4269
      4266      4269      4270      4266      4269      4271      4266      4269      4277
      4270      4269      4271      4270      4269      4277      4271      4269      4277
      4269      4271      4272      4271      4272      4273      4271      4272      4274
      4273      4272      4274      4272      4274      4275      4272      4274      4276
      4272      4274      4286      4275      4274      4276      4275      4274      4286
      4276      4274      4286      4269      4277      4278      4269      4277      4279
      4269      4277      4280      4278      4277      4279      4278      4277      4280
      4279      4277      4280      4277      4280      4281      4280      4281      4282
      4280      4281      4283      4282      4281      4283      4281      4283      4284
      4281      4283      4285      4281      4283      4333      4284      4283      4285
      4284      4283      4333      4285      4283      4333      4274      4286      4287
      4274      4286      4288      4274      4286      4289      4287      4286      4288
      4287      4286      4289      4288      4286      4289      4286      4289      4290
      4286      4289      4291      4286      4289      4292      4290      4289      4291
      4290      4289      4292      4291      4289      4292      4289      4292      4293
      4289      4292      4294      4289      4292      4295      4293      4292      4294
      4293      4292      4295      4294      4292      4295      4292      4295      4296
      4292      4295      4297      4292      4295      4298      4296      4295      4297
      4296      4295      4298      4297      4295      4298      4295      4298      4299
      4295      4298      4300      4295      4298      4301      4299      4298      4300
      4299      4298      4301      4300      4298      4301      4298      4301      4302
      4298      4301      4303      4298      4301      4304      4302      4301      4303
      4302      4301      4304      4303      4301      4304      4301      4304      4305
      4301      4304      4306      4305      4304      4306      4304      4306      4307
      4304      4306      4308      4307      4306      4308      4306      4308      4309
      4306      4308      4310      4306      4308      4311      4309      4308      4310
      4309      4308      4311      4310      4308      4311      4308      4311      4312
      4308      4311      4313      4308      4311      4314      4312      4311      4313
      4312      4311      4314      4313      4311      4314      4311      4314      4315
      4311      4314      4316      4311      4314      4317      4315      4314      4316
      4315      4314      4317      4316      4314      4317      4314      4317      4318
      4314      4317      4319      4314      4317      4320      4318      4317      4319
      4318      4317      4320      4319      4317      4320      4317      4320      4321
      4317      4320      4322      4317      4320      4323      4321      4320      4322
      4321      4320      4323      4322      4320      4323      4320      4323      4324
      4320      4323      4325      4320      4323      4326      4324      4323      4325
      4324      4323      4326      4325      4323      4326      4323      4326      4327
      4323      4326      4328      4323      4326      4329      4327      4326      4328
      4327      4326      4329      4328      4326      4329      4326      4329      4330
      4326      4329      4331      4326      4329      4332      4330      4329      4331
      4330      4329      4332      4331      4329      4332      4283      4333      4334
      4283      4333      4335      4283      4333      4336      4334      4333      4335
      4334      4333      4336      4335      4333      4336      4333      4336      4337
      4333      4336      4338      4333      4336      4339      4337      4336      4338
      4337      4336      4339      4338      4336      4339      4336      4339      4340
      4336      4339      4341      4336      4339      4342      4340      4339      4341
      4340      4339      4342      4341      4339      4342      4339      4342      4343
      4339      4342      4344      4339      4342      4345      4343      4342      4344
      4343      4342      4345      4344      4342      4345      4342      4345      4346
      4342      4345      4347      4342      4345      4348      4346      4345      4347
      4346      4345      4348      4347      4345      4348      4345      4348      4349
      4345      4348      4350      4345      4348      4351      4349      4348      4350
      4349      4348      4351      4350      4348      4351      4348      4351      4352
      4348      4351      4353      4348      4351      4354      4352      4351      4353
      4352      4351      4354      4353      4351      4354      4351      4354      4355
      4351      4354      4356      4351      4354      4357      4355      4354      4356
      4355      4354      4357      4356      4354      4357      4354      4357      4358
      4354      4357      4359      4354      4357      4360      4358      4357      4359
      4358      4357      4360      4359      4357      4360      4357      4360      4361
      4357      4360      4362      4357      4360      4363      4361      4360      4362
      4361      4360      4363      4362      4360      4363      4360      4363      4364
      4360      4363      4365      4360      4363      4366      4364      4363      4365
      4364      4363      4366      4365      4363      4366      4363      4366      4367
      4363      4366      4368      4363      4366      4369      4367      4366      4368
      4367      4366      4369      4368      4366      4369      4366      4369      4370
      4366      4369      4371      4366      4369      4372      4370      4369      4371
      4370      4369      4372      4371      4369      4372      4369      4372      4373
      4369      4372      4374      4369      4372      4375      4373      4372      4374
      4373      4372      4375      4374      4372      4375      4377      4376      4380
      4377      4376      4384      4377      4376      4388      4380      4376      4384
      4380      4376      4388      4384      4376      4388      4376      4377      4378
      4376      4377      4379      4376      4377      4392      4378      4377      4379
      4378      4377      4392      4379      4377      4392      4376      4380      4381
      4376      4380      4382      4376      4380      4383      4381      4380      4382
      4381      4380      4383      4382      4380      4383      4376      4384      4385
      4376      4384      4386      4376      4384      4387      4385      4384      4386
      4385      4384      4387      4386      4384      4387      4376      4388      4389
      4376      4388      4390      4376      4388      4391      4389      4388      4390
      4389      4388      4391      4390      4388      4391      4377      4392      4393
      4377      4392      4394      4377      4392      4398      4393      4392      4394
      4393      4392      4398      4394      4392      4398      4396      4395      4397
      4396      4395      4398      4396      4395      4399      4397      4395      4398
      4397      4395      4399      4398      4395      4399      4392      4398      4395
      4395      4399      4400      4399      4400      4401      4399      4400      4402
      4399      4400      4403      4401      4400      4402      4401      4400      4403
      4402      4400      4403      4400      4403      4404      4400      4403      4405
      4400      4403      4411      4404      4403      4405      4404      4403      4411
      4405      4403      4411      4403      4405      4406      4405      4406      4407
      4405      4406      4408      4407      4406      4408      4406      4408      4409
      4406      4408      4410      4406      4408      4420      4409      4408      4410
      4409      4408      4420      4410      4408      4420      4403      4411      4412
      4403      4411      4413      4403      4411      4414      4412      4411      4413
      4412      4411      4414      4413      4411      4414      4411      4414      4415
      4414      4415      4416      4414      4415      4417      4416      4415      4417
      4415      4417      4418      4415      4417      4419      4415      4417      4467
      4418      4417      4419      4418      4417      4467      4419      4417      4467
      4408      4420      4421      4408      4420      4422      4408      4420      4423
      4421      4420      4422      4421      4420      4423      4422      4420      4423
      4420      4423      4424      4420      4423      4425      4420      4423      4426
      4424      4423      4425      4424      4423      4426      4425      4423      4426
      4423      4426      4427      4423      4426      4428      4423      4426      4429
      4427      4426      4428      4427      4426      4429      4428      4426      4429
      4426      4429      4430      4426      4429      4431      4426      4429      4432
      4430      4429      4431      4430      4429      4432      4431      4429      4432
      4429      4432      4433      4429      4432      4434      4429      4432      4435
      4433      4432      4434      4433      4432      4435      4434      4432      4435
      4432      4435      4436      4432      4435      4437      4432      4435      4438
      4436      4435      4437      4436      4435      4438      4437      4435      4438
      4435      4438      4439      4435      4438      4440      4439      4438      4440
      4438      4440      4441      4438      4440      4442      4441      4440      4442
      4440      4442      4443      4440      4442      4444      4440      4442      4445
      4443      4442      4444      4443      4442      4445      4444      4442      4445
      4442      4445      4446      4442      4445      4447      4442      4445      4448
      4446      4445      4447      4446      4445      4448      4447      4445      4448
      4445      4448      4449      4445      4448      4450      4445      4448      4451
      4449      4448      4450      4449      4448      4451      4450      4448      4451
      4448      4451      4452      4448      4451      4453      4448      4451      4454
      4452      4451      4453      4452      4451      4454      4453      4451      4454
      4451      4454      4455      4451      4454      4456      4451      4454      4457
      4455      4454      4456      4455      4454      4457      4456      4454      4457
      4454      4457      4458      4454      4457      4459      4454      4457      4460
      4458      4457      4459      4458      4457      4460      4459      4457      4460
      4457      4460      4461      4457      4460      4462      4457      4460      4463
      4461      4460      4462      4461      4460      4463      4462      4460      4463
      4460      4463      4464      4460      4463      4465      4460      4463      4466
      4464      4463      4465      4464      4463      4466      4465      4463      4466
      4417      4467      4468      4417      4467      4469      4417      4467      4470
      4468      4467      4469      4468      4467      4470      4469      4467      4470
      4467      4470      4471      4467      4470      4472      4467      4470      4473
      4471      4470      4472      4471      4470      4473      4472      4470      4473
      4470      4473      4474      4470      4473      4475      4470      4473      4476
      4474      4473      4475      4474      4473      4476      4475      4473      4476
      4473      4476      4477      4473      4476      4478      4473      4476      4479
      4477      4476      4478      4477      4476      4479      4478      4476      4479
      4476      4479      4480      4476      4479      4481      4476      4479      4482
      4480      4479      4481      4480      4479      4482      4481      4479      4482
      4479      4482      4483      4479      4482      4484      4479      4482      4485
      4483      4482      4484      4483      4482      4485      4484      4482      4485
      4482      4485      4486      4482      4485      4487      4482      4485      4488
      4486      4485      4487      4486      4485      4488      4487      4485      4488
      4485      4488      4489      4485      4488      4490      4485      4488      4491
      4489      4488      4490      4489      4488      4491      4490      4488      4491
      4488      4491      4492      4488      4491      4493      4488      4491      4494
      4492      4491      4493      4492      4491      4494      4493      4491      4494
      4491      4494      4495      4491      4494      4496      4491      4494      4497
      4495      4494      4496      4495      4494      4497      4496      4494      4497
      4494      4497      4498      4494      4497      4499      4494      4497      4500
      4498      4497      4499      4498      4497      4500      4499      4497      4500
      4497      4500      4501      4497      4500      4502      4497      4500      4503
      4501      4500      4502      4501      4500      4503      4502      4500      4503
      4500      4503      4504      4500      4503      4505      4500      4503      4506
      4504      4503      4505      4504      4503      4506      4505      4503      4506
      4503      4506      4507      4503      4506      4508      4503      4506      4509
      4507      4506      4508      4507      4506      4509      4508      4506      4509
      4511      4510      4514      4511      4510      4518      4511      4510      4522
      4514      4510      4518      4514      4510      4522      4518      4510      4522
      4510      4511      4512      4510      4511      4513      4510      4511      4526
      4512      4511      4513      4512      4511      4526      4513      4511      4526
      4510      4514      4515      4510      4514      4516      4510      4514      4517
      4515      4514      4516      4515      4514      4517      4516      4514      4517
      4510      4518      4519      4510      4518      4520      4510      4518      4521
      4519      4518      4520      4519      4518      4521      4520      4518      4521
      4510      4522      4523      4510      4522      4524      4510      4522      4525
      4523      4522      4524      4523      4522      4525      4524      4522      4525
      4511      4526      4527      4511      4526      4528      4511      4526      4532
      4527      4526      4528      4527      4526      4532      4528      4526      4532
      4530      4529      4531      4530      4529      4532      4530      4529      4533
      4531      4529      4532      4531      4529      4533      4532      4529      4533
      4526      4532      4529      4529      4533      4534      4533      4534      4535
      4533      4534      4536      4533      4534      4537      4535      4534      4536
      4535      4534      4537      4536      4534      4537      4534      4537      4538
      4534      4537      4539      4534      4537      4545      4538      4537      4539
      4538      4537      4545      4539      4537      4545      4537      4539      4540
      4539      4540      4541      4539      4540      4542      4541      4540      4542
      4540      4542      4543      4540      4542      4544      4540      4542      4554
      4543      4542      4544      4543      4542      4554      4544      4542      4554
      4537      4545      4546      4537      4545      4547      4537      4545      4548
      4546      4545      4547      4546      4545      4548      4547      4545      4548
      4545      4548      4549      4548      4549      4550      4548      4549      4551
      4550      4549      4551      4549      4551      4552      4549      4551      4553
      4549      4551      4601      4552      4551      4553      4552      4551      4601
      4553      4551      4601      4542      4554      4555      4542      4554      4556
      4542      4554      4557      4555      4554      4556      4555      4554      4557
      4556      4554      4557      4554      4557      4558      4554      4557      4559
      4554      4557      4560      4558      4557      4559      4558      4557      4560
      4559      4557      4560      4557      4560      4561      4557      4560      4562
      4557      4560      4563      4561      4560      4562      4561      4560      4563
      4562      4560      4563      4560      4563      4564      4560      4563      4565
      4560      4563      4566      4564      4563      4565      4564      4563      4566
      4565      4563      4566      4563      4566      4567      4563      4566      4568
      4563      4566      4569      4567      4566      4568      4567      4566      4569
      4568      4566      4569      4566      4569      4570      4566      4569      4571
      4566      4569      4572      4570      4569      4571      4570      4569      4572
      4571      4569      4572      4569      4572      4573      4569      4572      4574
      4573      4572      4574      4572      4574      4575      4572      4574      4576
      4575      4574      4576      4574      4576      4577      4574      4576      4578
      4574      4576      4579      4577      4576      4578      4577      4576      4579
      4578      4576      4579      4576      4579      4580      4576      4579      4581
      4576      4579      4582      4580      4579      4581      4580      4579      4582
      4581      4579      4582      4579      4582      4583      4579      4582      4584
      4579      4582      4585      4583      4582      4584      4583      4582      4585
      4584      4582      4585      4582      4585      4586      4582      4585      4587
      4582      4585      4588      4586      4585      4587      4586      4585      4588
      4587      4585      4588      4585      4588      4589      4585      4588      4590
      4585      4588      4591      4589      4588      4590      4589      4588      4591
      4590      4588      4591      4588      4591      4592      4588      4591      4593
      4588      4591      4594      4592      4591      4593      4592      4591      4594
      4593      4591      4594      4591      4594      4595      4591      4594      4596
      4591      4594      4597      4595      4594      4596      4595      4594      4597
      4596      4594      4597      4594      4597      4598      4594      4597      4599
      4594      4597      4600      4598      4597      4599      4598      4597      4600
      4599      4597      4600      4551      4601      4602      4551      4601      4603
      4551      4601      4604      4602      4601      4603      4602      4601      4604
      4603      4601      4604      4601      4604      4605      4601      4604      4606
      4601      4604      4607      4605      4604      4606      4605      4604      4607
      4606      4604      4607      4604      4607      4608      4604      4607      4609
      4604      4607      4610      4608      4607      4609      4608      4607      4610
      4609      4607      4610      4607      4610      4611      4607      4610      4612
      4607      4610      4613      4611      4610      4612      4611      4610      4613
      4612      4610      4613      4610      4613      4614      4610      4613      4615
      4610      4613      4616      4614      4613      4615      4614      4613      4616
      4615      4613      4616      4613      4616      4617      4613      4616      4618
      4613      4616      4619      4617      4616      4618      4617      4616      4619
      4618      4616      4619      4616      4619      4620      4616      4619      4621
      4616      4619      4622      4620      4619      4621      4620      4619      4622
      4621      4619      4622      4619      4622      4623      4619      4622      4624
      4619      4622      4625      4623      4622      4624      4623      4622      4625
      4624      4622      4625      4622      4625      4626      4622      4625      4627
      4622      4625      4628      4626      4625      4627      4626      4625      4628
      4627      4625      4628      4625      4628      4629      4625      4628      4630
      4625      4628      4631      4629      4628      4630      4629      4628      4631
      4630      4628      4631      4628      4631      4632      4628      4631      4633
      4628      4631      4634      4632      4631      4633      4632      4631      4634
      4633      4631      4634      4631      4634      4635      4631      4634      4636
      4631      4634      4637      4635      4634      4636      4635      4634      4637
      4636      4634      4637      4634      4637      4638      4634      4637      4639
      4634      4637      4640      4638      4637      4639      4638      4637      4640
      4639      4637      4640      4637      4640      4641      4637      4640      4642
      4637      4640      4643      4641      4640      4642      4641      4640      4643
      4642      4640      4643      4645      4644      4646      4645      4644      4647
      4645      4644      4648      4646      4644      4647      4646      4644      4648
      4647      4644      4648      4644      4648      4649      4644      4648      4650
      4644      4648      4651      4649      4648      4650      4649      4648      4651
      4650      4648      4651      4648      4651      4652      4648      4651      4653
      4648      4651      4658      4652      4651      4653      4652      4651      4658
      4653      4651      4658      4655      4654      4656      4655      4654      4657
      4655      4654      4658      4656      4654      4657      4656      4654      4658
      4657      4654      4658      4654      4657      4659      4651      4658      4654
      4657      4659      4660      4657      4659      4661      4657      4659      4662
      4660      4659      4661      4660      4659      4662      4661      4659      4662
      4659      4662      4663      4659      4662      4664      4659      4662      4670
      4663      4662      4664      4663      4662      4670      4664      4662      4670
      4662      4664      4665      4664      4665      4666      4664      4665      4667
      4666      4665      4667      4665      4667      4668      4665      4667      4669
      4665      4667      4679      4668      4667      4669      4668      4667      4679
      4669      4667      4679      4662      4670      4671      4662      4670      4672
      4662      4670      4673      4671      4670      4672      4671      4670      4673
      4672      4670      4673      4670      4673      4674      4673      4674      4675
      4673      4674      4676      4675      4674      4676      4674      4676      4677
      4674      4676      4678      4674      4676      4726      4677      4676      4678
      4677      4676      4726      4678      4676      4726      4667      4679      4680
      4667      4679      4681      4667      4679      4682      4680      4679      4681
      4680      4679      4682      4681      4679      4682      4679      4682      4683
      4679      4682      4684      4679      4682      4685      4683      4682      4684
      4683      4682      4685      4684      4682      4685      4682      4685      4686
      4682      4685      4687      4682      4685      4688      4686      4685      4687
      4686      4685      4688      4687      4685      4688      4685      4688      4689
      4685      4688      4690      4685      4688      4691      4689      4688      4690
      4689      4688      4691      4690      4688      4691      4688      4691      4692
      4688      4691      4693      4688      4691      4694      4692      4691      4693
      4692      4691      4694      4693      4691      4694      4691      4694      4695
      4691      4694      4696      4691      4694      4697      4695      4694      4696
      4695      4694      4697      4696      4694      4697      4694      4697      4698
      4694      4697      4699      4698      4697      4699      4697      4699      4700
      4697      4699      4701      4700      4699      4701      4699      4701      4702
      4699      4701      4703      4699      4701      4704      4702      4701      4703
      4702      4701      4704      4703      4701      4704      4701      4704      4705
      4701      4704      4706      4701      4704      4707      4705      4704      4706
      4705      4704      4707      4706      4704      4707      4704      4707      4708
      4704      4707      4709      4704      4707      4710      4708      4707      4709
      4708      4707      4710      4709      4707      4710      4707      4710      4711
      4707      4710      4712      4707      4710      4713      4711      4710      4712
      4711      4710      4713      4712      4710      4713      4710      4713      4714
      4710      4713      4715      4710      4713      4716      4714      4713      4715
      4714      4713      4716      4715      4713      4716      4713      4716      4717
      4713      4716      4718      4713      4716      4719      4717      4716      4718
      4717      4716      4719      4718      4716      4719      4716      4719      4720
      4716      4719      4721      4716      4719      4722      4720      4719      4721
      4720      4719      4722      4721      4719      4722      4719      4722      4723
      4719      4722      4724      4719      4722      4725      4723      4722      4724
      4723      4722      4725      4724      4722      4725      4676      4726      4727
      4676      4726      4728      4676      4726      4729      4727      4726      4728
      4727      4726      4729      4728      4726      4729      4726      4729      4730
      4726      4729      4731      4726      4729      4732      4730      4729      4731
      4730      4729      4732      4731      4729      4732      4729      4732      4733
      4729      4732      4734      4729      4732      4735      4733      4732      4734
      4733      4732      4735      4734      4732      4735      4732      4735      4736
      4732      4735      4737      4732      4735      4738      4736      4735      4737
      4736      4735      4738      4737      4735      4738      4735      4738      4739
      4735      4738      4740      4735      4738      4741      4739      4738      4740
      4739      4738      4741      4740      4738      4741      4738      4741      4742
      4738      4741      4743      4738      4741      4744      4742      4741      4743
      4742      4741      4744      4743      4741      4744      4741      4744      4745
      4741      4744      4746      4741      4744      4747      4745      4744      4746
      4745      4744      4747      4746      4744      4747      4744      4747      4748
      4744      4747      4749      4744      4747      4750      4748      4747      4749
      4748      4747      4750      4749      4747      4750      4747      4750      4751
      4747      4750      4752      4747      4750      4753      4751      4750      4752
      4751      4750      4753      4752      4750      4753      4750      4753      4754
      4750      4753      4755      4750      4753      4756      4754      4753      4755
      4754      4753      4756      4755      4753      4756      4753      4756      4757
      4753      4756      4758      4753      4756      4759      4757      4756      4758
      4757      4756      4759      4758      4756      4759      4756      4759      4760
      4756      4759      4761      4756      4759      4762      4760      4759      4761
      4760      4759      4762      4761      4759      4762      4759      4762      4763
      4759      4762      4764      4759      4762      4765      4763      4762      4764
      4763      4762      4765      4764      4762      4765      4762      4765      4766
      4762      4765      4767      4762      4765      4768      4766      4765      4767
      4766      4765      4768      4767      4765      4768      4770      4769      4773
      4770      4769      4777      4770      4769      4781      4773      4769      4777
      4773      4769      4781      4777      4769      4781      4769      4770      4771
      4769      4770      4772      4769      4770      4785      4771      4770      4772
      4771      4770      4785      4772      4770      4785      4769      4773      4774
      4769      4773      4775      4769      4773      4776      4774      4773      4775
      4774      4773      4776      4775      4773      4776      4769      4777      4778
      4769      4777      4779      4769      4777      4780      4778      4777      4779
      4778      4777      4780      4779      4777      4780      4769      4781      4782
      4769      4781      4783      4769      4781      4784      4782      4781      4783
      4782      4781      4784      4783      4781      4784      4770      4785      4786
      4770      4785      4787      4770      4785      4791      4786      4785      4787
      4786      4785      4791      4787      4785      4791      4789      4788      4790
      4789      4788      4791      4789      4788      4792      4790      4788      4791
      4790      4788      4792      4791      4788      4792      4785      4791      4788
      4788      4792      4793      4792      4793      4794      4792      4793      4795
      4792      4793      4796      4794      4793      4795      4794      4793      4796
      4795      4793      4796      4793      4796      4797      4793      4796      4798
      4793      4796      4804      4797      4796      4798      4797      4796      4804
      4798      4796      4804      4796      4798      4799      4798      4799      4800
      4798      4799      4801      4800      4799      4801      4799      4801      4802
      4799      4801      4803      4799      4801      4813      4802      4801      4803
      4802      4801      4813      4803      4801      4813      4796      4804      4805
      4796      4804      4806      4796      4804      4807      4805      4804      4806
      4805      4804      4807      4806      4804      4807      4804      4807      4808
      4807      4808      4809      4807      4808      4810      4809      4808      4810
      4808      4810      4811      4808      4810      4812      4808      4810      4860
      4811      4810      4812      4811      4810      4860      4812      4810      4860
      4801      4813      4814      4801      4813      4815      4801      4813      4816
      4814      4813      4815      4814      4813      4816      4815      4813      4816
      4813      4816      4817      4813      4816      4818      4813      4816      4819
      4817      4816      4818      4817      4816      4819      4818      4816      4819
      4816      4819      4820      4816      4819      4821      4816      4819      4822
      4820      4819      4821      4820      4819      4822      4821      4819      4822
      4819      4822      4823      4819      4822      4824      4819      4822      4825
      4823      4822      4824      4823      4822      4825      4824      4822      4825
      4822      4825      4826      4822      4825      4827      4822      4825      4828
      4826      4825      4827      4826      4825      4828      4827      4825      4828
      4825      4828      4829      4825      4828      4830      4825      4828      4831
      4829      4828      4830      4829      4828      4831      4830      4828      4831
      4828      4831      4832      4828      4831      4833      4832      4831      4833
      4831      4833      4834      4831      4833      4835      4834      4833      4835
      4833      4835      4836      4833      4835      4837      4833      4835      4838
      4836      4835      4837      4836      4835      4838      4837      4835      4838
      4835      4838      4839      4835      4838      4840      4835      4838      4841
      4839      4838      4840      4839      4838      4841      4840      4838      4841
      4838      4841      4842      4838      4841      4843      4838      4841      4844
      4842      4841      4843      4842      4841      4844      4843      4841      4844
      4841      4844      4845      4841      4844      4846      4841      4844      4847
      4845      4844      4846      4845      4844      4847      4846      4844      4847
      4844      4847      4848      4844      4847      4849      4844      4847      4850
      4848      4847      4849      4848      4847      4850      4849      4847      4850
      4847      4850      4851      4847      4850      4852      4847      4850      4853
      4851      4850      4852      4851      4850      4853      4852      4850      4853
      4850      4853      4854      4850      4853      4855      4850      4853      4856
      4854      4853      4855      4854      4853      4856      4855      4853      4856
      4853      4856      4857      4853      4856      4858      4853      4856      4859
      4857      4856      4858      4857      4856      4859      4858      4856      4859
      4810      4860      4861      4810      4860      4862      4810      4860      4863
      4861      4860      4862      4861      4860      4863      4862      4860      4863
      4860      4863      4864      4860      4863      4865      4860      4863      4866
      4864      4863      4865      4864      4863      4866      4865      4863      4866
      4863      4866      4867      4863      4866      4868      4863      4866      4869
      4867      4866      4868      4867      4866      4869      4868      4866      4869
      4866      4869      4870      4866      4869      4871      4866      4869      4872
      4870      4869      4871      4870      4869      4872      4871      4869      4872
      4869      4872      4873      4869      4872      4874      4869      4872      4875
      4873      4872      4874      4873      4872      4875      4874      4872      4875
      4872      4875      4876      4872      4875      4877      4872      4875      4878
      4876      4875      4877      4876      4875      4878      4877      4875      4878
      4875      4878      4879      4875      4878      4880      4875      4878      4881
      4879      4878      4880      4879      4878      4881      4880      4878      4881
      4878      4881      4882      4878      4881      4883      4878      4881      4884
      4882      4881      4883      4882      4881      4884      4883      4881      4884
      4881      4884      4885      4881      4884      4886      4881      4884      4887
      4885      4884      4886      4885      4884      4887      4886      4884      4887
      4884      4887      4888      4884      4887      4889      4884      4887      4890
      4888      4887      4889      4888      4887      4890      4889      4887      4890
      4887      4890      4891      4887      4890      4892      4887      4890      4893
      4891      4890      4892      4891      4890      4893      4892      4890      4893
      4890      4893      4894      4890      4893      4895      4890      4893      4896
      4894      4893      4895      4894      4893      4896      4895      4893      4896
      4893      4896      4897      4893      4896      4898      4893      4896      4899
      4897      4896      4898      4897      4896      4899      4898      4896      4899
      4896      4899      4900      4896      4899      4901      4896      4899      4902
      4900      4899      4901      4900      4899      4902      4901      4899      4902
      4904      4903      4905      4904      4903      4906      4904      4903      4907
      4905      4903      4906      4905      4903      4907      4906      4903      4907
      4903      4907      4908      4903      4907      4909      4903      4907      4910
      4908      4907      4909      4908      4907      4910      4909      4907      4910
      4907      4910      4911      4907      4910      4912      4907      4910      4917
      4911      4910      4912      4911      4910      4917      4912      4910      4917
      4914      4913      4915      4914      4913      4916      4914      4913      4917
      4915      4913      4916      4915      4913      4917      4916      4913      4917
      4913      4916      4918      4910      4917      4913      4916      4918      4919
      4916      4918      4920      4916      4918      4921      4919      4918      4920
      4919      4918      4921      4920      4918      4921      4918      4921      4922
      4918      4921      4923      4918      4921      4929      4922      4921      4923
      4922      4921      4929      4923      4921      4929      4921      4923      4924
      4923      4924      4925      4923      4924      4926      4925      4924      4926
      4924      4926      4927      4924      4926      4928      4924      4926      4938
      4927      4926      4928      4927      4926      4938      4928      4926      4938
      4921      4929      4930      4921      4929      4931      4921      4929      4932
      4930      4929      4931      4930      4929      4932      4931      4929      4932
      4929      4932      4933      4932      4933      4934      4932      4933      4935
      4934      4933      4935      4933      4935      4936      4933      4935      4937
      4933      4935      4985      4936      4935      4937      4936      4935      4985
      4937      4935      4985      4926      4938      4939      4926      4938      4940
      4926      4938      4941      4939      4938      4940      4939      4938      4941
      4940      4938      4941      4938      4941      4942      4938      4941      4943
      4938      4941      4944      4942      4941      4943      4942      4941      4944
      4943      4941      4944      4941      4944      4945      4941      4944      4946
      4941      4944      4947      4945      4944      4946      4945      4944      4947
      4946      4944      4947      4944      4947      4948      4944      4947      4949
      4944      4947      4950      4948      4947      4949      4948      4947      4950
      4949      4947      4950      4947      4950      4951      4947      4950      4952
      4947      4950      4953      4951      4950      4952      4951      4950      4953
      4952      4950      4953      4950      4953      4954      4950      4953      4955
      4950      4953      4956      4954      4953      4955      4954      4953      4956
      4955      4953      4956      4953      4956      4957      4953      4956      4958
      4957      4956      4958      4956      4958      4959      4956      4958      4960
      4959      4958      4960      4958      4960      4961      4958      4960      4962
      4958      4960      4963      4961      4960      4962      4961      4960      4963
      4962      4960      4963      4960      4963      4964      4960      4963      4965
      4960      4963      4966      4964      4963      4965      4964      4963      4966
      4965      4963      4966      4963      4966      4967      4963      4966      4968
      4963      4966      4969      4967      4966      4968      4967      4966      4969
      4968      4966      4969      4966      4969      4970      4966      4969      4971
      4966      4969      4972      4970      4969      4971      4970      4969      4972
      4971      4969      4972      4969      4972      4973      4969      4972      4974
      4969      4972      4975      4973      4972      4974      4973      4972      4975
      4974      4972      4975      4972      4975      4976      4972      4975      4977
      4972      4975      4978      4976      4975      4977      4976      4975      4978
      4977      4975      4978      4975      4978      4979      4975      4978      4980
      4975      4978      4981      4979      4978      4980      4979      4978      4981
      4980      4978      4981      4978      4981      4982      4978      4981      4983
      4978      4981      4984      4982      4981      4983      4982      4981      4984
      4983      4981      4984      4935      4985      4986      4935      4985      4987
      4935      4985      4988      4986      4985      4987      4986      4985      4988
      4987      4985      4988      4985      4988      4989      4985      4988      4990
      4985      4988      4991      4989      4988      4990      4989      4988      4991
      4990      4988      4991      4988      4991      4992      4988      4991      4993
      4988      4991      4994      4992      4991      4993      4992      4991      4994
      4993      4991      4994      4991      4994      4995      4991      4994      4996
      4991      4994      4997      4995      4994      4996      4995      4994      4997
      4996      4994      4997      4994      4997      4998      4994      4997      4999
      4994      4997      5000      4998      4997      4999      4998      4997      5000
      4999      4997      5000      4997      5000      5001      4997      5000      5002
      4997      5000      5003      5001      5000      5002      5001      5000      5003
      5002      5000      5003      5000      5003      5004      5000      5003      5005
      5000      5003      5006      5004      5003      5005      5004      5003      5006
      5005      5003      5006      5003      5006      5007      5003      5006      5008
      5003      5006      5009      5007      5006      5008      5007      5006      5009
      5008      5006      5009      5006      5009      5010      5006      5009      5011
      5006      5009      5012      5010      5009      5011      5010      5009      5012
      5011      5009      5012      5009      5012      5013      5009      5012      5014
      5009      5012      5015      5013      5012      5014      5013      5012      5015
      5014      5012      5015      5012      5015      5016      5012      5015      5017
      5012      5015      5018      5016      5015      5017      5016      5015      5018
      5017      5015      5018      5015      5018      5019      5015      5018      5020
      5015      5018      5021      5019      5018      5020      5019      5018      5021
      5020      5018      5021      5018      5021      5022      5018      5021      5023
      5018      5021      5024      5022      5021      5023      5022      5021      5024
      5023      5021      5024      5021      5024      5025      5021      5024      5026
      5021      5024      5027      5025      5024      5026      5025      5024      5027
      5026      5024      5027      5029      5028      5030      5029      5028      5031
      5029      5028      5032      5030      5028      5031      5030      5028      5032
      5031      5028      5032      5028      5032      5033      5028      5032      5034
      5028      5032      5035      5033      5032      5034      5033      5032      5035
      5034      5032      5035      5032      5035      5036      5032      5035      5037
      5032      5035      5042      5036      5035      5037      5036      5035      5042
      5037      5035      5042      5039      5038      5040      5039      5038      5041
      5039      5038      5042      5040      5038      5041      5040      5038      5042
      5041      5038      5042      5038      5041      5043      5035      5042      5038
      5041      5043      5044      5041      5043      5045      5041      5043      5046
      5044      5043      5045      5044      5043      5046      5045      5043      5046
      5043      5046      5047      5043      5046      5048      5043      5046      5054
      5047      5046      5048      5047      5046      5054      5048      5046      5054
      5046      5048      5049      5048      5049      5050      5048      5049      5051
      5050      5049      5051      5049      5051      5052      5049      5051      5053
      5049      5051      5063      5052      5051      5053      5052      5051      5063
      5053      5051      5063      5046      5054      5055      5046      5054      5056
      5046      5054      5057      5055      5054      5056      5055      5054      5057
      5056      5054      5057      5054      5057      5058      5057      5058      5059
      5057      5058      5060      5059      5058      5060      5058      5060      5061
      5058      5060      5062      5058      5060      5110      5061      5060      5062
      5061      5060      5110      5062      5060      5110      5051      5063      5064
      5051      5063      5065      5051      5063      5066      5064      5063      5065
      5064      5063      5066      5065      5063      5066      5063      5066      5067
      5063      5066      5068      5063      5066      5069      5067      5066      5068
      5067      5066      5069      5068      5066      5069      5066      5069      5070
      5066      5069      5071      5066      5069      5072      5070      5069      5071
      5070      5069      5072      5071      5069      5072      5069      5072      5073
      5069      5072      5074      5069      5072      5075      5073      5072      5074
      5073      5072      5075      5074      5072      5075      5072      5075      5076
      5072      5075      5077      5072      5075      5078      5076      5075      5077
      5076      5075      5078      5077      5075      5078      5075      5078      5079
      5075      5078      5080      5075      5078      5081      5079      5078      5080
      5079      5078      5081      5080      5078      5081      5078      5081      5082
      5078      5081      5083      5082      5081      5083      5081      5083      5084
      5081      5083      5085      5084      5083      5085      5083      5085      5086
      5083      5085      5087      5083      5085      5088      5086      5085      5087
      5086      5085      5088      5087      5085      5088      5085      5088      5089
      5085      5088      5090      5085      5088      5091      5089      5088      5090
      5089      5088      5091      5090      5088      5091      5088      5091      5092
      5088      5091      5093      5088      5091      5094      5092      5091      5093
      5092      5091      5094      5093      5091      5094      5091      5094      5095
      5091      5094      5096      5091      5094      5097      5095      5094      5096
      5095      5094      5097      5096      5094      5097      5094      5097      5098
      5094      5097      5099      5094      5097      5100      5098      5097      5099
      5098      5097      5100      5099      5097      5100      5097      5100      5101
      5097      5100      5102      5097      5100      5103      5101      5100      5102
      5101      5100      5103      5102      5100      5103      5100      5103      5104
      5100      5103      5105      5100      5103      5106      5104      5103      5105
      5104      5103      5106      5105      5103      5106      5103      5106      5107
      5103      5106      5108      5103      5106      5109      5107      5106      5108
      5107      5106      5109      5108      5106      5109      5060      5110      5111
      5060      5110      5112      5060      5110      5113      5111      5110      5112
      5111      5110      5113      5112      5110      5113      5110      5113      5114
      5110      5113      5115      5110      5113      5116      5114      5113      5115
      5114      5113      5116      5115      5113      5116      5113      5116      5117
      5113      5116      5118      5113      5116      5119      5117      5116      5118
      5117      5116      5119      5118      5116      5119      5116      5119      5120
      5116      5119      5121      5116      5119      5122      5120      5119      5121
      5120      5119      5122      5121      5119      5122      5119      5122      5123
      5119      5122      5124      5119      5122      5125      5123      5122      5124
      5123      5122      5125      5124      5122      5125      5122      5125      5126
      5122      5125      5127      5122      5125      5128      5126      5125      5127
      5126      5125      5128      5127      5125      5128      5125      5128      5129
      5125      5128      5130      5125      5128      5131      5129      5128      5130
      5129      5128      5131      5130      5128      5131      5128      5131      5132
      5128      5131      5133      5128      5131      5134      5132      5131      5133
      5132      5131      5134      5133      5131      5134      5131      5134      5135
      5131      5134      5136      5131      5134      5137      5135      5134      5136
      5135      5134      5137      5136      5134      5137      5134      5137      5138
      5134      5137      5139      5134      5137      5140      5138      5137      5139
      5138      5137      5140      5139      5137      5140      5137      5140      5141
      5137      5140      5142      5137      5140      5143      5141      5140      5142
      5141      5140      5143      5142      5140      5143      5140      5143      5144
      5140      5143      5145      5140      5143      5146      5144      5143      5145
      5144      5143      5146      5145      5143      5146      5143      5146      5147
      5143      5146      5148      5143      5146      5149      5147      5146      5148
      5147      5146      5149      5148      5146      5149      5146      5149      5150
      5146      5149      5151      5146      5149      5152      5150      5149      5151
      5150      5149      5152      5151      5149      5152      5154      5153      5155
      5154      5153      5156      5154      5153      5157      5155      5153      5156
      5155      5153      5157      5156      5153      5157      5153      5157      5158
      5153      5157      5159      5153      5157      5160      5158      5157      5159
      5158      5157      5160      5159      5157      5160      5157      5160      5161
      5157      5160      5162      5157      5160      5167      5161      5160      5162
      5161      5160      5167      5162      5160      5167      5164      5163      5165
      5164      5163      5166      5164      5163      5167      5165      5163      5166
      5165      5163      5167      5166      5163      5167      5163      5166      5168
      5160      5167      5163      5166      5168      5169      5166      5168      5170
      5166      5168      5171      5169      5168      5170      5169      5168      5171
      5170      5168      5171      5168      5171      5172      5168      5171      5173
      5168      5171      5179      5172      5171      5173      5172      5171      5179
      5173      5171      5179      5171      5173      5174      5173      5174      5175
      5173      5174      5176      5175      5174      5176      5174      5176      5177
      5174      5176      5178      5174      5176      5188      5177      5176      5178
      5177      5176      5188      5178      5176      5188      5171      5179      5180
      5171      5179      5181      5171      5179      5182      5180      5179      5181
      5180      5179      5182      5181      5179      5182      5179      5182      5183
      5182      5183      5184      5182      5183      5185      5184      5183      5185
      5183      5185      5186      5183      5185      5187      5183      5185      5235
      5186      5185      5187      5186      5185      5235      5187      5185      5235
      5176      5188      5189      5176      5188      5190      5176      5188      5191
      5189      5188      5190      5189      5188      5191      5190      5188      5191
      5188      5191      5192      5188      5191      5193      5188      5191      5194
      5192      5191      5193      5192      5191      5194      5193      5191      5194
      5191      5194      5195      5191      5194      5196      5191      5194      5197
      5195      5194      5196      5195      5194      5197      5196      5194      5197
      5194      5197      5198      5194      5197      5199      5194      5197      5200
      5198      5197      5199      5198      5197      5200      5199      5197      5200
      5197      5200      5201      5197      5200      5202      5197      5200      5203
      5201      5200      5202      5201      5200      5203      5202      5200      5203
      5200      5203      5204      5200      5203      5205      5200      5203      5206
      5204      5203      5205      5204      5203      5206      5205      5203      5206
      5203      5206      5207      5203      5206      5208      5207      5206      5208
      5206      5208      5209      5206      5208      5210      5209      5208      5210
      5208      5210      5211      5208      5210      5212      5208      5210      5213
      5211      5210      5212      5211      5210      5213      5212      5210      5213
      5210      5213      5214      5210      5213      5215      5210      5213      5216
      5214      5213      5215      5214      5213      5216      5215      5213      5216
      5213      5216      5217      5213      5216      5218      5213      5216      5219
      5217      5216      5218      5217      5216      5219      5218      5216      5219
      5216      5219      5220      5216      5219      5221      5216      5219      5222
      5220      5219      5221      5220      5219      5222      5221      5219      5222
      5219      5222      5223      5219      5222      5224      5219      5222      5225
      5223      5222      5224      5223      5222      5225      5224      5222      5225
      5222      5225      5226      5222      5225      5227      5222      5225      5228
      5226      5225      5227      5226      5225      5228      5227      5225      5228
      5225      5228      5229      5225      5228      5230      5225      5228      5231
      5229      5228      5230      5229      5228      5231      5230      5228      5231
      5228      5231      5232      5228      5231      5233      5228      5231      5234
      5232      5231      5233      5232      5231      5234      5233      5231      5234
      5185      5235      5236      5185      5235      5237      5185      5235      5238
      5236      5235      5237      5236      5235      5238      5237      5235      5238
      5235      5238      5239      5235      5238      5240      5235      5238      5241
      5239      5238      5240      5239      5238      5241      5240      5238      5241
      5238      5241      5242      5238      5241      5243      5238      5241      5244
      5242      5241      5243      5242      5241      5244      5243      5241      5244
      5241      5244      5245      5241      5244      5246      5241      5244      5247
      5245      5244      5246      5245      5244      5247      5246      5244      5247
      5244      5247      5248      5244      5247      5249      5244      5247      5250
      5248      5247      5249      5248      5247      5250      5249      5247      5250
      5247      5250      5251      5247      5250      5252      5247      5250      5253
      5251      5250      5252      5251      5250      5253      5252      5250      5253
      5250      5253      5254      5250      5253      5255      5250      5253      5256
      5254      5253      5255      5254      5253      5256      5255      5253      5256
      5253      5256      5257      5253      5256      5258      5253      5256      5259
      5257      5256      5258      5257      5256      5259      5258      5256      5259
      5256      5259      5260      5256      5259      5261      5256      5259      5262
      5260      5259      5261      5260      5259      5262      5261      5259      5262
      5259      5262      5263      5259      5262      5264      5259      5262      5265
      5263      5262      5264      5263      5262      5265      5264      5262      5265
      5262      5265      5266      5262      5265      5267      5262      5265      5268
      5266      5265      5267      5266      5265      5268      5267      5265      5268
      5265      5268      5269      5265      5268      5270      5265      5268      5271
      5269      5268      5270      5269      5268      5271      5270      5268      5271
      5268      5271      5272      5268      5271      5273      5268      5271      5274
      5272      5271      5273      5272      5271      5274      5273      5271      5274
      5271      5274      5275      5271      5274      5276      5271      5274      5277
      5275      5274      5276      5275      5274      5277      5276      5274      5277
      5279      5278      5283      5279      5278      5287      5279      5278      5291
      5283      5278      5287      5283      5278      5291      5287      5278      5291
      5278      5279      5280      5278      5279      5281      5278      5279      5282
      5280      5279      5281      5280      5279      5282      5281      5279      5282
      5278      5283      5284      5278      5283      5285      5278      5283      5286
      5284      5283      5285      5284      5283      5286      5285      5283      5286
      5278      5287      5288      5278      5287      5289      5278      5287      5290
      5288      5287      5289      5288      5287      5290      5289      5287      5290
      5278      5291      5292      5278      5291      5293      5278      5291      5294
      5292      5291      5293      5292      5291      5294      5293      5291      5294
      5291      5294      5295      5291      5294      5296      5291      5294      5301
      5295      5294      5296      5295      5294      5301      5296      5294      5301
      5298      5297      5299      5298      5297      5300      5298      5297      5301
      5299      5297      5300      5299      5297      5301      5300      5297      5301
      5297      5300      5302      5294      5301      5297      5300      5302      5303
      5300      5302      5304      5300      5302      5307      5303      5302      5304
      5303      5302      5307      5304      5302      5307      5306      5305      5307
      5306      5305      5357      5307      5305      5357      5302      5307      5305
      5302      5307      5308      5302      5307      5309      5305      5307      5308
      5305      5307      5309      5308      5307      5309      5307      5309      5310
      5307      5309      5311      5307      5309      5313      5310      5309      5311
      5310      5309      5313      5311      5309      5313      5309      5311      5312
      5309      5313      5314      5309      5313      5315      5314      5313      5315
      5313      5315      5316      5313      5315      5317      5316      5315      5317
      5315      5317      5318      5315      5317      5319      5315      5317      5320
      5318      5317      5319      5318      5317      5320      5319      5317      5320
      5317      5320      5321      5317      5320      5322      5317      5320      5323
      5321      5320      5322      5321      5320      5323      5322      5320      5323
      5320      5323      5324      5320      5323      5325      5320      5323      5326
      5324      5323      5325      5324      5323      5326      5325      5323      5326
      5323      5326      5327      5323      5326      5328      5323      5326      5329
      5327      5326      5328      5327      5326      5329      5328      5326      5329
      5326      5329      5330      5326      5329      5331      5326      5329      5332
      5330      5329      5331      5330      5329      5332      5331      5329      5332
      5329      5332      5333      5329      5332      5334      5329      5332      5335
      5333      5332      5334      5333      5332      5335      5334      5332      5335
      5332      5335      5336      5332      5335      5337      5332      5335      5338
      5336      5335      5337      5336      5335      5338      5337      5335      5338
      5335      5338      5339      5335      5338      5340      5335      5338      5341
      5339      5338      5340      5339      5338      5341      5340      5338      5341
      5338      5341      5342      5338      5341      5343      5338      5341      5344
      5342      5341      5343      5342      5341      5344      5343      5341      5344
      5341      5344      5345      5341      5344      5346      5341      5344      5347
      5345      5344      5346      5345      5344      5347      5346      5344      5347
      5344      5347      5348      5344      5347      5349      5344      5347      5350
      5348      5347      5349      5348      5347      5350      5349      5347      5350
      5347      5350      5351      5347      5350      5352      5347      5350      5353
      5351      5350      5352      5351      5350      5353      5352      5350      5353
      5350      5353      5354      5350      5353      5355      5350      5353      5356
      5354      5353      5355      5354      5353      5356      5355      5353      5356
      5305      5357      5358      5305      5357      5359      5358      5357      5359
      5357      5359      5360      5357      5359      5361      5357      5359      5362
      5360      5359      5361      5360      5359      5362      5361      5359      5362
      5359      5362      5363      5359      5362      5364      5359      5362      5365
      5363      5362      5364      5363      5362      5365      5364      5362      5365
      5362      5365      5366      5362      5365      5367      5362      5365      5368
      5366      5365      5367      5366      5365      5368      5367      5365      5368
      5365      5368      5369      5365      5368      5370      5365      5368      5371
      5369      5368      5370      5369      5368      5371      5370      5368      5371
      5368      5371      5372      5368      5371      5373      5368      5371      5374
      5372      5371      5373      5372      5371      5374      5373      5371      5374
      5371      5374      5375      5371      5374      5376      5371      5374      5377
      5375      5374      5376      5375      5374      5377      5376      5374      5377
      5374      5377      5378      5374      5377      5379      5374      5377      5380
      5378      5377      5379      5378      5377      5380      5379      5377      5380
      5377      5380      5381      5377      5380      5382      5377      5380      5383
      5381      5380      5382      5381      5380      5383      5382      5380      5383
      5380      5383      5384      5380      5383      5385      5380      5383      5386
      5384      5383      5385      5384      5383      5386      5385      5383      5386
      5383      5386      5387      5383      5386      5388      5383      5386      5389
      5387      5386      5388      5387      5386      5389      5388      5386      5389
      5386      5389      5390      5386      5389      5391      5386      5389      5392
      5390      5389      5391      5390      5389      5392      5391      5389      5392
      5389      5392      5393      5389      5392      5394      5389      5392      5395
      5393      5392      5394      5393      5392      5395      5394      5392      5395
      5392      5395      5396      5392      5395      5397      5392      5395      5398
      5396      5395      5397      5396      5395      5398      5397      5395      5398
      5395      5398      5399      5395      5398      5400      5395      5398      5401
      5399      5398      5400      5399      5398      5401      5400      5398      5401
      5398      5401      5402      5398      5401      5403      5398      5401      5404
      5402      5401      5403      5402      5401      5404      5403      5401      5404
      5406      5405      5410      5406      5405      5414      5406      5405      5418
      5410      5405      5414      5410      5405      5418      5414      5405      5418
      5405      5406      5407      5405      5406      5408      5405      5406      5409
      5407      5406      5408      5407      5406      5409      5408      5406      5409
      5405      5410      5411      5405      5410      5412      5405      5410      5413
      5411      5410      5412      5411      5410      5413      5412      5410      5413
      5405      5414      5415      5405      5414      5416      5405      5414      5417
      5415      5414      5416      5415      5414      5417      5416      5414      5417
      5405      5418      5419      5405      5418      5420      5405      5418      5421
      5419      5418      5420      5419      5418      5421      5420      5418      5421
      5418      5421      5422      5418      5421      5423      5418      5421      5428
      5422      5421      5423      5422      5421      5428      5423      5421      5428
      5425      5424      5426      5425      5424      5427      5425      5424      5428
      5426      5424      5427      5426      5424      5428      5427      5424      5428
      5424      5427      5429      5421      5428      5424      5427      5429      5430
      5427      5429      5431      5427      5429      5434      5430      5429      5431
      5430      5429      5434      5431      5429      5434      5433      5432      5434
      5433      5432      5484      5434      5432      5484      5429      5434      5432
      5429      5434      5435      5429      5434      5436      5432      5434      5435
      5432      5434      5436      5435      5434      5436      5434      5436      5437
      5434      5436      5438      5434      5436      5440      5437      5436      5438
      5437      5436      5440      5438      5436      5440      5436      5438      5439
      5436      5440      5441      5436      5440      5442      5441      5440      5442
      5440      5442      5443      5440      5442      5444      5443      5442      5444
      5442      5444      5445      5442      5444      5446      5442      5444      5447
      5445      5444      5446      5445      5444      5447      5446      5444      5447
      5444      5447      5448      5444      5447      5449      5444      5447      5450
      5448      5447      5449      5448      5447      5450      5449      5447      5450
      5447      5450      5451      5447      5450      5452      5447      5450      5453
      5451      5450      5452      5451      5450      5453      5452      5450      5453
      5450      5453      5454      5450      5453      5455      5450      5453      5456
      5454      5453      5455      5454      5453      5456      5455      5453      5456
      5453      5456      5457      5453      5456      5458      5453      5456      5459
      5457      5456      5458      5457      5456      5459      5458      5456      5459
      5456      5459      5460      5456      5459      5461      5456      5459      5462
      5460      5459      5461      5460      5459      5462      5461      5459      5462
      5459      5462      5463      5459      5462      5464      5459      5462      5465
      5463      5462      5464      5463      5462      5465      5464      5462      5465
      5462      5465      5466      5462      5465      5467      5462      5465      5468
      5466      5465      5467      5466      5465      5468      5467      5465      5468
      5465      5468      5469      5465      5468      5470      5465      5468      5471
      5469      5468      5470      5469      5468      5471      5470      5468      5471
      5468      5471      5472      5468      5471      5473      5468      5471      5474
      5472      5471      5473      5472      5471      5474      5473      5471      5474
      5471      5474      5475      5471      5474      5476      5471      5474      5477
      5475      5474      5476      5475      5474      5477      5476      5474      5477
      5474      5477      5478      5474      5477      5479      5474      5477      5480
      5478      5477      5479      5478      5477      5480      5479      5477      5480
      5477      5480      5481      5477      5480      5482      5477      5480      5483
      5481      5480      5482      5481      5480      5483      5482      5480      5483
      5432      5484      5485      5432      5484      5486      5485      5484      5486
      5484      5486      5487      5484      5486      5488      5484      5486      5489
      5487      5486      5488      5487      5486      5489      5488      5486      5489
      5486      5489      5490      5486      5489      5491      5486      5489      5492
      5490      5489      5491      5490      5489      5492      5491      5489      5492
      5489      5492      5493      5489      5492      5494      5489      5492      5495
      5493      5492      5494      5493      5492      5495      5494      5492      5495
      5492      5495      5496      5492      5495      5497      5492      5495      5498
      5496      5495      5497      5496      5495      5498      5497      5495      5498
      5495      5498      5499      5495      5498      5500      5495      5498      5501
      5499      5498      5500      5499      5498      5501      5500      5498      5501
      5498      5501      5502      5498      5501      5503      5498      5501      5504
      5502      5501      5503      5502      5501      5504      5503      5501      5504
      5501      5504      5505      5501      5504      5506      5501      5504      5507
      5505      5504      5506      5505      5504      5507      5506      5504      5507
      5504      5507      5508      5504      5507      5509      5504      5507      5510
      5508      5507      5509      5508      5507      5510      5509      5507      5510
      5507      5510      5511      5507      5510      5512      5507      5510      5513
      5511      5510      5512      5511      5510      5513      5512      5510      5513
      5510      5513      5514      5510      5513      5515      5510      5513      5516
      5514      5513      5515      5514      5513      5516      5515      5513      5516
      5513      5516      5517      5513      5516      5518      5513      5516      5519
      5517      5516      5518      5517      5516      5519      5518      5516      5519
      5516      5519      5520      5516      5519      5521      5516      5519      5522
      5520      5519      5521      5520      5519      5522      5521      5519      5522
      5519      5522      5523      5519      5522      5524      5519      5522      5525
      5523      5522      5524      5523      5522      5525      5524      5522      5525
      5522      5525      5526      5522      5525      5527      5522      5525      5528
      5526      5525      5527      5526      5525      5528      5527      5525      5528
      5525      5528      5529      5525      5528      5530      5525      5528      5531
      5529      5528      5530      5529      5528      5531      5530      5528      5531
      5533      5532      5534      5533      5532      5535      5533      5532      5536
      5534      5532      5535      5534      5532      5536      5535      5532      5536
      5532      5536      5537      5532      5536      5538      5532      5536      5539
      5537      5536      5538      5537      5536      5539      5538      5536      5539
      5536      5539      5540      5536      5539      5541      5536      5539      5546
      5540      5539      5541      5540      5539      5546      5541      5539      5546
      5543      5542      5544      5543      5542      5545      5543      5542      5546
      5544      5542      5545      5544      5542      5546      5545      5542      5546
      5542      5545      5547      5539      5546      5542      5545      5547      5548
      5545      5547      5549      5545      5547      5550      5548      5547      5549
      5548      5547      5550      5549      5547      5550      5547      5550      5551
      5547      5550      5552      5547      5550      5558      5551      5550      5552
      5551      5550      5558      5552      5550      5558      5550      5552      5553
      5552      5553      5554      5552      5553      5555      5554      5553      5555
      5553      5555      5556      5553      5555      5557      5553      5555      5567
      5556      5555      5557      5556      5555      5567      5557      5555      5567
      5550      5558      5559      5550      5558      5560      5550      5558      5561
      5559      5558      5560      5559      5558      5561      5560      5558      5561
      5558      5561      5562      5561      5562      5563      5561      5562      5564
      5563      5562      5564      5562      5564      5565      5562      5564      5566
      5562      5564      5614      5565      5564      5566      5565      5564      5614
      5566      5564      5614      5555      5567      5568      5555      5567      5569
      5555      5567      5570      5568      5567      5569      5568      5567      5570
      5569      5567      5570      5567      5570      5571      5567      5570      5572
      5567      5570      5573      5571      5570      5572      5571      5570      5573
      5572      5570      5573      5570      5573      5574      5570      5573      5575
      5570      5573      5576      5574      5573      5575      5574      5573      5576
      5575      5573      5576      5573      5576      5577      5573      5576      5578
      5573      5576      5579      5577      5576      5578      5577      5576      5579
      5578      5576      5579      5576      5579      5580      5576      5579      5581
      5576      5579      5582      5580      5579      5581      5580      5579      5582
      5581      5579      5582      5579      5582      5583      5579      5582      5584
      5579      5582      5585      5583      5582      5584      5583      5582      5585
      5584      5582      5585      5582      5585      5586      5582      5585      5587
      5586      5585      5587      5585      5587      5588      5585      5587      5589
      5588      5587      5589      5587      5589      5590      5587      5589      5591
      5587      5589      5592      5590      5589      5591      5590      5589      5592
      5591      5589      5592      5589      5592      5593      5589      5592      5594
      5589      5592      5595      5593      5592      5594      5593      5592      5595
      5594      5592      5595      5592      5595      5596      5592      5595      5597
      5592      5595      5598      5596      5595      5597      5596      5595      5598
      5597      5595      5598      5595      5598      5599      5595      5598      5600
      5595      5598      5601      5599      5598      5600      5599      5598      5601
      5600      5598      5601      5598      5601      5602      5598      5601      5603
      5598      5601      5604      5602      5601      5603      5602      5601      5604
      5603      5601      5604      5601      5604      5605      5601      5604      5606
      5601      5604      5607      5605      5604      5606      5605      5604      5607
      5606      5604      5607      5604      5607      5608      5604      5607      5609
      5604      5607      5610      5608      5607      5609      5608      5607      5610
      5609      5607      5610      5607      5610      5611      5607      5610      5612
      5607      5610      5613      5611      5610      5612      5611      5610      5613
      5612      5610      5613      5564      5614      5615      5564      5614      5616
      5564      5614      5617      5615      5614      5616      5615      5614      5617
      5616      5614      5617      5614      5617      5618      5614      5617      5619
      5614      5617      5620      5618      5617      5619      5618      5617      5620
      5619      5617      5620      5617      5620      5621      5617      5620      5622
      5617      5620      5623      5621      5620      5622      5621      5620      5623
      5622      5620      5623      5620      5623      5624      5620      5623      5625
      5620      5623      5626      5624      5623      5625      5624      5623      5626
      5625      5623      5626      5623      5626      5627      5623      5626      5628
      5623      5626      5629      5627      5626      5628      5627      5626      5629
      5628      5626      5629      5626      5629      5630      5626      5629      5631
      5626      5629      5632      5630      5629      5631      5630      5629      5632
      5631      5629      5632      5629      5632      5633      5629      5632      5634
      5629      5632      5635      5633      5632      5634      5633      5632      5635
      5634      5632      5635      5632      5635      5636      5632      5635      5637
      5632      5635      5638      5636      5635      5637      5636      5635      5638
      5637      5635      5638      5635      5638      5639      5635      5638      5640
      5635      5638      5641      5639      5638      5640      5639      5638      5641
      5640      5638      5641      5638      5641      5642      5638      5641      5643
      5638      5641      5644      5642      5641      5643      5642      5641      5644
      5643      5641      5644      5641      5644      5645      5641      5644      5646
      5641      5644      5647      5645      5644      5646      5645      5644      5647
      5646      5644      5647      5644      5647      5648      5644      5647      5649
      5644      5647      5650      5648      5647      5649      5648      5647      5650
      5649      5647      5650      5647      5650      5651      5647      5650      5652
      5647      5650      5653      5651      5650      5652      5651      5650      5653
      5652      5650      5653      5650      5653      5654      5650      5653      5655
      5650      5653      5656      5654      5653      5655      5654      5653      5656
      5655      5653      5656      5658      5657      5659      5658      5657      5660
      5658      5657      5661      5659      5657      5660      5659      5657      5661
      5660      5657      5661      5657      5661      5662      5657      5661      5663
      5657      5661      5664      5662      5661      5663      5662      5661      5664
      5663      5661      5664      5661      5664      5665      5661      5664      5666
      5661      5664      5671      5665      5664      5666      5665      5664      5671
      5666      5664      5671      5668      5667      5669      5668      5667      5670
      5668      5667      5671      5669      5667      5670      5669      5667      5671
      5670      5667      5671      5667      5670      5672      5664      5671      5667
      5670      5672      5673      5670      5672      5674      5670      5672      5675
      5673      5672      5674      5673      5672      5675      5674      5672      5675
      5672      5675      5676      5672      5675      5677      5672      5675      5683
      5676      5675      5677      5676      5675      5683      5677      5675      5683
      5675      5677      5678      5677      5678      5679      5677      5678      5680
      5679      5678      5680      5678      5680      5681      5678      5680      5682
      5678      5680      5692      5681      5680      5682      5681      5680      5692
      5682      5680      5692      5675      5683      5684      5675      5683      5685
      5675      5683      5686      5684      5683      5685      5684      5683      5686
      5685      5683      5686      5683      5686      5687      5686      5687      5688
      5686      5687      5689      5688      5687      5689      5687      5689      5690
      5687      5689      5691      5687      5689      5739      5690      5689      5691
      5690      5689      5739      5691      5689      5739      5680      5692      5693
      5680      5692      5694      5680      5692      5695      5693      5692      5694
      5693      5692      5695      5694      5692      5695      5692      5695      5696
      5692      5695      5697      5692      5695      5698      5696      5695      5697
      5696      5695      5698      5697      5695      5698      5695      5698      5699
      5695      5698      5700      5695      5698      5701      5699      5698      5700
      5699      5698      5701      5700      5698      5701      5698      5701      5702
      5698      5701      5703      5698      5701      5704      5702      5701      5703
      5702      5701      5704      5703      5701      5704      5701      5704      5705
      5701      5704      5706      5701      5704      5707      5705      5704      5706
      5705      5704      5707      5706      5704      5707      5704      5707      5708
      5704      5707      5709      5704      5707      5710      5708      5707      5709
      5708      5707      5710      5709      5707      5710      5707      5710      5711
      5707      5710      5712      5711      5710      5712      5710      5712      5713
      5710      5712      5714      5713      5712      5714      5712      5714      5715
      5712      5714      5716      5712      5714      5717      5715      5714      5716
      5715      5714      5717      5716      5714      5717      5714      5717      5718
      5714      5717      5719      5714      5717      5720      5718      5717      5719
      5718      5717      5720      5719      5717      5720      5717      5720      5721
      5717      5720      5722      5717      5720      5723      5721      5720      5722
      5721      5720      5723      5722      5720      5723      5720      5723      5724
      5720      5723      5725      5720      5723      5726      5724      5723      5725
      5724      5723      5726      5725      5723      5726      5723      5726      5727
      5723      5726      5728      5723      5726      5729      5727      5726      5728
      5727      5726      5729      5728      5726      5729      5726      5729      5730
      5726      5729      5731      5726      5729      5732      5730      5729      5731
      5730      5729      5732      5731      5729      5732      5729      5732      5733
      5729      5732      5734      5729      5732      5735      5733      5732      5734
      5733      5732      5735      5734      5732      5735      5732      5735      5736
      5732      5735      5737      5732      5735      5738      5736      5735      5737
      5736      5735      5738      5737      5735      5738      5689      5739      5740
      5689      5739      5741      5689      5739      5742      5740      5739      5741
      5740      5739      5742      5741      5739      5742      5739      5742      5743
      5739      5742      5744      5739      5742      5745      5743      5742      5744
      5743      5742      5745      5744      5742      5745      5742      5745      5746
      5742      5745      5747      5742      5745      5748      5746      5745      5747
      5746      5745      5748      5747      5745      5748      5745      5748      5749
      5745      5748      5750      5745      5748      5751      5749      5748      5750
      5749      5748      5751      5750      5748      5751      5748      5751      5752
      5748      5751      5753      5748      5751      5754      5752      5751      5753
      5752      5751      5754      5753      5751      5754      5751      5754      5755
      5751      5754      5756      5751      5754      5757      5755      5754      5756
      5755      5754      5757      5756      5754      5757      5754      5757      5758
      5754      5757      5759      5754      5757      5760      5758      5757      5759
      5758      5757      5760      5759      5757      5760      5757      5760      5761
      5757      5760      5762      5757      5760      5763      5761      5760      5762
      5761      5760      5763      5762      5760      5763      5760      5763      5764
      5760      5763      5765      5760      5763      5766      5764      5763      5765
      5764      5763      5766      5765      5763      5766      5763      5766      5767
      5763      5766      5768      5763      5766      5769      5767      5766      5768
      5767      5766      5769      5768      5766      5769      5766      5769      5770
      5766      5769      5771      5766      5769      5772      5770      5769      5771
      5770      5769      5772      5771      5769      5772      5769      5772      5773
      5769      5772      5774      5769      5772      5775      5773      5772      5774
      5773      5772      5775      5774      5772      5775      5772      5775      5776
      5772      5775      5777      5772      5775      5778      5776      5775      5777
      5776      5775      5778      5777      5775      5778      5775      5778      5779
      5775      5778      5780      5775      5778      5781      5779      5778      5780
      5779      5778      5781      5780      5778      5781      5783      5782      5787
      5783      5782      5791      5783      5782      5795      5787      5782      5791
      5787      5782      5795      5791      5782      5795      5782      5783      5784
      5782      5783      5785      5782      5783      5786      5784      5783      5785
      5784      5783      5786      5785      5783      5786      5782      5787      5788
      5782      5787      5789      5782      5787      5790      5788      5787      5789
      5788      5787      5790      5789      5787      5790      5782      5791      5792
      5782      5791      5793      5782      5791      5794      5792      5791      5793
      5792      5791      5794      5793      5791      5794      5782      5795      5796
      5782      5795      5797      5782      5795      5798      5796      5795      5797
      5796      5795      5798      5797      5795      5798      5795      5798      5799
      5795      5798      5800      5795      5798      5805      5799      5798      5800
      5799      5798      5805      5800      5798      5805      5802      5801      5803
      5802      5801      5804      5802      5801      5805      5803      5801      5804
      5803      5801      5805      5804      5801      5805      5801      5804      5806
      5798      5805      5801      5804      5806      5807      5804      5806      5808
      5804      5806      5811      5807      5806      5808      5807      5806      5811
      5808      5806      5811      5810      5809      5811      5810      5809      5861
      5811      5809      5861      5806      5811      5809      5806      5811      5812
      5806      5811      5813      5809      5811      5812      5809      5811      5813
      5812      5811      5813      5811      5813      5814      5811      5813      5815
      5811      5813      5817      5814      5813      5815      5814      5813      5817
      5815      5813      5817      5813      5815      5816      5813      5817      5818
      5813      5817      5819      5818      5817      5819      5817      5819      5820
      5817      5819      5821      5820      5819      5821      5819      5821      5822
      5819      5821      5823      5819      5821      5824      5822      5821      5823
      5822      5821      5824      5823      5821      5824      5821      5824      5825
      5821      5824      5826      5821      5824      5827      5825      5824      5826
      5825      5824      5827      5826      5824      5827      5824      5827      5828
      5824      5827      5829      5824      5827      5830      5828      5827      5829
      5828      5827      5830      5829      5827      5830      5827      5830      5831
      5827      5830      5832      5827      5830      5833      5831      5830      5832
      5831      5830      5833      5832      5830      5833      5830      5833      5834
      5830      5833      5835      5830      5833      5836      5834      5833      5835
      5834      5833      5836      5835      5833      5836      5833      5836      5837
      5833      5836      5838      5833      5836      5839      5837      5836      5838
      5837      5836      5839      5838      5836      5839      5836      5839      5840
      5836      5839      5841      5836      5839      5842      5840      5839      5841
      5840      5839      5842      5841      5839      5842      5839      5842      5843
      5839      5842      5844      5839      5842      5845      5843      5842      5844
      5843      5842      5845      5844      5842      5845      5842      5845      5846
      5842      5845      5847      5842      5845      5848      5846      5845      5847
      5846      5845      5848      5847      5845      5848      5845      5848      5849
      5845      5848      5850      5845      5848      5851      5849      5848      5850
      5849      5848      5851      5850      5848      5851      5848      5851      5852
      5848      5851      5853      5848      5851      5854      5852      5851      5853
      5852      5851      5854      5853      5851      5854      5851      5854      5855
      5851      5854      5856      5851      5854      5857      5855      5854      5856
      5855      5854      5857      5856      5854      5857      5854      5857      5858
      5854      5857      5859      5854      5857      5860      5858      5857      5859
      5858      5857      5860      5859      5857      5860      5809      5861      5862
      5809      5861      5863      5862      5861      5863      5861      5863      5864
      5861      5863      5865      5861      5863      5866      5864      5863      5865
      5864      5863      5866      5865      5863      5866      5863      5866      5867
      5863      5866      5868      5863      5866      5869      5867      5866      5868
      5867      5866      5869      5868      5866      5869      5866      5869      5870
      5866      5869      5871      5866      5869      5872      5870      5869      5871
      5870      5869      5872      5871      5869      5872      5869      5872      5873
      5869      5872      5874      5869      5872      5875      5873      5872      5874
      5873      5872      5875      5874      5872      5875      5872      5875      5876
      5872      5875      5877      5872      5875      5878      5876      5875      5877
      5876      5875      5878      5877      5875      5878      5875      5878      5879
      5875      5878      5880      5875      5878      5881      5879      5878      5880
      5879      5878      5881      5880      5878      5881      5878      5881      5882
      5878      5881      5883      5878      5881      5884      5882      5881      5883
      5882      5881      5884      5883      5881      5884      5881      5884      5885
      5881      5884      5886      5881      5884      5887      5885      5884      5886
      5885      5884      5887      5886      5884      5887      5884      5887      5888
      5884      5887      5889      5884      5887      5890      5888      5887      5889
      5888      5887      5890      5889      5887      5890      5887      5890      5891
      5887      5890      5892      5887      5890      5893      5891      5890      5892
      5891      5890      5893      5892      5890      5893      5890      5893      5894
      5890      5893      5895      5890      5893      5896      5894      5893      5895
      5894      5893      5896      5895      5893      5896      5893      5896      5897
      5893      5896      5898      5893      5896      5899      5897      5896      5898
      5897      5896      5899      5898      5896      5899      5896      5899      5900
      5896      5899      5901      5896      5899      5902      5900      5899      5901
      5900      5899      5902      5901      5899      5902      5899      5902      5903
      5899      5902      5904      5899      5902      5905      5903      5902      5904
      5903      5902      5905      5904      5902      5905      5902      5905      5906
      5902      5905      5907      5902      5905      5908      5906      5905      5907
      5906      5905      5908      5907      5905      5908      5910      5909      5911
      5910      5909      5912      5910      5909      5913      5911      5909      5912
      5911      5909      5913      5912      5909      5913      5909      5913      5914
      5909      5913      5915      5909      5913      5918      5914      5913      5915
      5914      5913      5918      5915      5913      5918      5913      5915      5916
      5913      5915      5917      5916      5915      5917      5913      5918      5919
      5913      5918      5920      5913      5918      5924      5919      5918      5920
      5919      5918      5924      5920      5918      5924      5922      5921      5923
      5922      5921      5924      5922      5921      5925      5923      5921      5924
      5923      5921      5925      5924      5921      5925      5918      5924      5921
      5921      5925      5926      5925      5926      5927      5925      5926      5928
      5925      5926      5929      5927      5926      5928      5927      5926      5929
      5928      5926      5929      5926      5929      5930      5926      5929      5931
      5926      5929      5937      5930      5929      5931      5930      5929      5937
      5931      5929      5937      5929      5931      5932      5931      5932      5933
      5931      5932      5934      5933      5932      5934      5932      5934      5935
      5932      5934      5936      5932      5934      5946      5935      5934      5936
      5935      5934      5946      5936      5934      5946      5929      5937      5938
      5929      5937      5939      5929      5937      5940      5938      5937      5939
      5938      5937      5940      5939      5937      5940      5937      5940      5941
      5940      5941      5942      5940      5941      5943      5942      5941      5943
      5941      5943      5944      5941      5943      5945      5941      5943      5993
      5944      5943      5945      5944      5943      5993      5945      5943      5993
      5934      5946      5947      5934      5946      5948      5934      5946      5949
      5947      5946      5948      5947      5946      5949      5948      5946      5949
      5946      5949      5950      5946      5949      5951      5946      5949      5952
      5950      5949      5951      5950      5949      5952      5951      5949      5952
      5949      5952      5953      5949      5952      5954      5949      5952      5955
      5953      5952      5954      5953      5952      5955      5954      5952      5955
      5952      5955      5956      5952      5955      5957      5952      5955      5958
      5956      5955      5957      5956      5955      5958      5957      5955      5958
      5955      5958      5959      5955      5958      5960      5955      5958      5961
      5959      5958      5960      5959      5958      5961      5960      5958      5961
      5958      5961      5962      5958      5961      5963      5958      5961      5964
      5962      5961      5963      5962      5961      5964      5963      5961      5964
      5961      5964      5965      5961      5964      5966      5965      5964      5966
      5964      5966      5967      5964      5966      5968      5967      5966      5968
      5966      5968      5969      5966      5968      5970      5966      5968      5971
      5969      5968      5970      5969      5968      5971      5970      5968      5971
      5968      5971      5972      5968      5971      5973      5968      5971      5974
      5972      5971      5973      5972      5971      5974      5973      5971      5974
      5971      5974      5975      5971      5974      5976      5971      5974      5977
      5975      5974      5976      5975      5974      5977      5976      5974      5977
      5974      5977      5978      5974      5977      5979      5974      5977      5980
      5978      5977      5979      5978      5977      5980      5979      5977      5980
      5977      5980      5981      5977      5980      5982      5977      5980      5983
      5981      5980      5982      5981      5980      5983      5982      5980      5983
      5980      5983      5984      5980      5983      5985      5980      5983      5986
      5984      5983      5985      5984      5983      5986      5985      5983      5986
      5983      5986      5987      5983      5986      5988      5983      5986      5989
      5987      5986      5988      5987      5986      5989      5988      5986      5989
      5986      5989      5990      5986      5989      5991      5986      5989      5992
      5990      5989      5991      5990      5989      5992      5991      5989      5992
      5943      5993      5994      5943      5993      5995      5943      5993      5996
      5994      5993      5995      5994      5993      5996      5995      5993      5996
      5993      5996      5997      5993      5996      5998      5993      5996      5999
      5997      5996      5998      5997      5996      5999      5998      5996      5999
      5996      5999      6000      5996      5999      6001      5996      5999      6002
      6000      5999      6001      6000      5999      6002      6001      5999      6002
      5999      6002      6003      5999      6002      6004      5999      6002      6005
      6003      6002      6004      6003      6002      6005      6004      6002      6005
      6002      6005      6006      6002      6005      6007      6002      6005      6008
      6006      6005      6007      6006      6005      6008      6007      6005      6008
      6005      6008      6009      6005      6008      6010      6005      6008      6011
      6009      6008      6010      6009      6008      6011      6010      6008      6011
      6008      6011      6012      6008      6011      6013      6008      6011      6014
      6012      6011      6013      6012      6011      6014      6013      6011      6014
      6011      6014      6015      6011      6014      6016      6011      6014      6017
      6015      6014      6016      6015      6014      6017      6016      6014      6017
      6014      6017      6018      6014      6017      6019      6014      6017      6020
      6018      6017      6019      6018      6017      6020      6019      6017      6020
      6017      6020      6021      6017      6020      6022      6017      6020      6023
      6021      6020      6022      6021      6020      6023      6022      6020      6023
      6020      6023      6024      6020      6023      6025      6020      6023      6026
      6024      6023      6025      6024      6023      6026      6025      6023      6026
      6023      6026      6027      6023      6026      6028      6023      6026      6029
      6027      6026      6028      6027      6026      6029      6028      6026      6029
      6026      6029      6030      6026      6029      6031      6026      6029      6032
      6030      6029      6031      6030      6029      6032      6031      6029      6032
      6029      6032      6033      6029      6032      6034      6029      6032      6035
      6033      6032      6034      6033      6032      6035      6034      6032      6035
      6037      6036      6038      6037      6036      6039      6037      6036      6040
      6038      6036      6039      6038      6036      6040      6039      6036      6040
      6036      6040      6041      6036      6040      6042      6036      6040      6043
      6041      6040      6042      6041      6040      6043      6042      6040      6043
      6040      6043      6044      6040      6043      6045      6040      6043      6050
      6044      6043      6045      6044      6043      6050      6045      6043      6050
      6047      6046      6048      6047      6046      6049      6047      6046      6050
      6048      6046      6049      6048      6046      6050      6049      6046      6050
      6046      6049      6051      6043      6050      6046      6049      6051      6052
      6049      6051      6053      6049      6051      6054      6052      6051      6053
      6052      6051      6054      6053      6051      6054      6051      6054      6055
      6051      6054      6056      6051      6054      6062      6055      6054      6056
      6055      6054      6062      6056      6054      6062      6054      6056      6057
      6056      6057      6058      6056      6057      6059      6058      6057      6059
      6057      6059      6060      6057      6059      6061      6057      6059      6071
      6060      6059      6061      6060      6059      6071      6061      6059      6071
      6054      6062      6063      6054      6062      6064      6054      6062      6065
      6063      6062      6064      6063      6062      6065      6064      6062      6065
      6062      6065      6066      6065      6066      6067      6065      6066      6068
      6067      6066      6068      6066      6068      6069      6066      6068      6070
      6066      6068      6118      6069      6068      6070      6069      6068      6118
      6070      6068      6118      6059      6071      6072      6059      6071      6073
      6059      6071      6074      6072      6071      6073      6072      6071      6074
      6073      6071      6074      6071      6074      6075      6071      6074      6076
      6071      6074      6077      6075      6074      6076      6075      6074      6077
      6076      6074      6077      6074      6077      6078      6074      6077      6079
      6074      6077      6080      6078      6077      6079      6078      6077      6080
      6079      6077      6080      6077      6080      6081      6077      6080      6082
      6077      6080      6083      6081      6080      6082      6081      6080      6083
      6082      6080      6083      6080      6083      6084      6080      6083      6085
      6080      6083      6086      6084      6083      6085      6084      6083      6086
      6085      6083      6086      6083      6086      6087      6083      6086      6088
      6083      6086      6089      6087      6086      6088      6087      6086      6089
      6088      6086      6089      6086      6089      6090      6086      6089      6091
      6090      6089      6091      6089      6091      6092      6089      6091      6093
      6092      6091      6093      6091      6093      6094      6091      6093      6095
      6091      6093      6096      6094      6093      6095      6094      6093      6096
      6095      6093      6096      6093      6096      6097      6093      6096      6098
      6093      6096      6099      6097      6096      6098      6097      6096      6099
      6098      6096      6099      6096      6099      6100      6096      6099      6101
      6096      6099      6102      6100      6099      6101      6100      6099      6102
      6101      6099      6102      6099      6102      6103      6099      6102      6104
      6099      6102      6105      6103      6102      6104      6103      6102      6105
      6104      6102      6105      6102      6105      6106      6102      6105      6107
      6102      6105      6108      6106      6105      6107      6106      6105      6108
      6107      6105      6108      6105      6108      6109      6105      6108      6110
      6105      6108      6111      6109      6108      6110      6109      6108      6111
      6110      6108      6111      6108      6111      6112      6108      6111      6113
      6108      6111      6114      6112      6111      6113      6112      6111      6114
      6113      6111      6114      6111      6114      6115      6111      6114      6116
      6111      6114      6117      6115      6114      6116      6115      6114      6117
      6116      6114      6117      6068      6118      6119      6068      6118      6120
      6068      6118      6121      6119      6118      6120      6119      6118      6121
      6120      6118      6121      6118      6121      6122      6118      6121      6123
      6118      6121      6124      6122      6121      6123      6122      6121      6124
      6123      6121      6124      6121      6124      6125      6121      6124      6126
      6121      6124      6127      6125      6124      6126      6125      6124      6127
      6126      6124      6127      6124      6127      6128      6124      6127      6129
      6124      6127      6130      6128      6127      6129      6128      6127      6130
      6129      6127      6130      6127      6130      6131      6127      6130      6132
      6127      6130      6133      6131      6130      6132      6131      6130      6133
      6132      6130      6133      6130      6133      6134      6130      6133      6135
      6130      6133      6136      6134      6133      6135      6134      6133      6136
      6135      6133      6136      6133      6136      6137      6133      6136      6138
      6133      6136      6139      6137      6136      6138      6137      6136      6139
      6138      6136      6139      6136      6139      6140      6136      6139      6141
      6136      6139      6142      6140      6139      6141      6140      6139      6142
      6141      6139      6142      6139      6142      6143      6139      6142      6144
      6139      6142      6145      6143      6142      6144      6143      6142      6145
      6144      6142      6145      6142      6145      6146      6142      6145      6147
      6142      6145      6148      6146      6145      6147      6146      6145      6148
      6147      6145      6148      6145      6148      6149      6145      6148      6150
      6145      6148      6151      6149      6148      6150      6149      6148      6151
      6150      6148      6151      6148      6151      6152      6148      6151      6153
      6148      6151      6154      6152      6151      6153      6152      6151      6154
      6153      6151      6154      6151      6154      6155      6151      6154      6156
      6151      6154      6157      6155      6154      6156      6155      6154      6157
      6156      6154      6157      6154      6157      6158      6154      6157      6159
      6154      6157      6160      6158      6157      6159      6158      6157      6160
      6159      6157      6160      6162      6161      6165      6162      6161      6169
      6162      6161      6173      6165      6161      6169      6165      6161      6173
      6169      6161      6173      6161      6162      6163      6161      6162      6164
      6161      6162      6177      6163      6162      6164      6163      6162      6177
      6164      6162      6177      6161      6165      6166      6161      6165      6167
      6161      6165      6168      6166      6165      6167      6166      6165      6168
      6167      6165      6168      6161      6169      6170      6161      6169      6171
      6161      6169      6172      6170      6169      6171      6170      6169      6172
      6171      6169      6172      6161      6173      6174      6161      6173      6175
      6161      6173      6176      6174      6173      6175      6174      6173      6176
      6175      6173      6176      6162      6177      6178      6162      6177      6179
      6162      6177      6183      6178      6177      6179      6178      6177      6183
      6179      6177      6183      6181      6180      6182      6181      6180      6183
      6181      6180      6184      6182      6180      6183      6182      6180      6184
      6183      6180      6184      6177      6183      6180      6180      6184      6185
      6184      6185      6186      6184      6185      6187      6184      6185      6188
      6186      6185      6187      6186      6185      6188      6187      6185      6188
      6185      6188      6189      6185      6188      6190      6185      6188      6196
      6189      6188      6190      6189      6188      6196      6190      6188      6196
      6188      6190      6191      6190      6191      6192      6190      6191      6193
      6192      6191      6193      6191      6193      6194      6191      6193      6195
      6191      6193      6205      6194      6193      6195      6194      6193      6205
      6195      6193      6205      6188      6196      6197      6188      6196      6198
      6188      6196      6199      6197      6196      6198      6197      6196      6199
      6198      6196      6199      6196      6199      6200      6199      6200      6201
      6199      6200      6202      6201      6200      6202      6200      6202      6203
      6200      6202      6204      6200      6202      6252      6203      6202      6204
      6203      6202      6252      6204      6202      6252      6193      6205      6206
      6193      6205      6207      6193      6205      6208      6206      6205      6207
      6206      6205      6208      6207      6205      6208      6205      6208      6209
      6205      6208      6210      6205      6208      6211      6209      6208      6210
      6209      6208      6211      6210      6208      6211      6208      6211      6212
      6208      6211      6213      6208      6211      6214      6212      6211      6213
      6212      6211      6214      6213      6211      6214      6211      6214      6215
      6211      6214      6216      6211      6214      6217      6215      6214      6216
      6215      6214      6217      6216      6214      6217      6214      6217      6218
      6214      6217      6219      6214      6217      6220      6218      6217      6219
      6218      6217      6220      6219      6217      6220      6217      6220      6221
      6217      6220      6222      6217      6220      6223      6221      6220      6222
      6221      6220      6223      6222      6220      6223      6220      6223      6224
      6220      6223      6225      6224      6223      6225      6223      6225      6226
      6223      6225      6227      6226      6225      6227      6225      6227      6228
      6225      6227      6229      6225      6227      6230      6228      6227      6229
      6228      6227      6230      6229      6227      6230      6227      6230      6231
      6227      6230      6232      6227      6230      6233      6231      6230      6232
      6231      6230      6233      6232      6230      6233      6230      6233      6234
      6230      6233      6235      6230      6233      6236      6234      6233      6235
      6234      6233      6236      6235      6233      6236      6233      6236      6237
      6233      6236      6238      6233      6236      6239      6237      6236      6238
      6237      6236      6239      6238      6236      6239      6236      6239      6240
      6236      6239      6241      6236      6239      6242      6240      6239      6241
      6240      6239      6242      6241      6239      6242      6239      6242      6243
      6239      6242      6244      6239      6242      6245      6243      6242      6244
      6243      6242      6245      6244      6242      6245      6242      6245      6246
      6242      6245      6247      6242      6245      6248      6246      6245      6247
      6246      6245      6248      6247      6245      6248      6245      6248      6249
      6245      6248      6250      6245      6248      6251      6249      6248      6250
      6249      6248      6251      6250      6248      6251      6202      6252      6253
      6202      6252      6254      6202      6252      6255      6253      6252      6254
      6253      6252      6255      6254      6252      6255      6252      6255      6256
      6252      6255      6257      6252      6255      6258      6256      6255      6257
      6256      6255      6258      6257      6255      6258      6255      6258      6259
      6255      6258      6260      6255      6258      6261      6259      6258      6260
      6259      6258      6261      6260      6258      6261      6258      6261      6262
      6258      6261      6263      6258      6261      6264      6262      6261      6263
      6262      6261      6264      6263      6261      6264      6261      6264      6265
      6261      6264      6266      6261      6264      6267      6265      6264      6266
      6265      6264      6267      6266      6264      6267      6264      6267      6268
      6264      6267      6269      6264      6267      6270      6268      6267      6269
      6268      6267      6270      6269      6267      6270      6267      6270      6271
      6267      6270      6272      6267      6270      6273      6271      6270      6272
      6271      6270      6273      6272      6270      6273      6270      6273      6274
      6270      6273      6275      6270      6273      6276      6274      6273      6275
      6274      6273      6276      6275      6273      6276      6273      6276      6277
      6273      6276      6278      6273      6276      6279      6277      6276      6278
      6277      6276      6279      6278      6276      6279      6276      6279      6280
      6276      6279      6281      6276      6279      6282      6280      6279      6281
      6280      6279      6282      6281      6279      6282      6279      6282      6283
      6279      6282      6284      6279      6282      6285      6283      6282      6284
      6283      6282      6285      6284      6282      6285      6282      6285      6286
      6282      6285      6287      6282      6285      6288      6286      6285      6287
      6286      6285      6288      6287      6285      6288      6285      6288      6289
      6285      6288      6290      6285      6288      6291      6289      6288      6290
      6289      6288      6291      6290      6288      6291      6288      6291      6292
      6288      6291      6293      6288      6291      6294      6292      6291      6293
      6292      6291      6294      6293      6291      6294      6296      6295      6297
      6296      6295      6298      6296      6295      6299      6297      6295      6298
      6297      6295      6299      6298      6295      6299      6295      6299      6300
      6295      6299      6301      6295      6299      6302      6300      6299      6301
      6300      6299      6302      6301      6299      6302      6299      6302      6303
      6299      6302      6304      6299      6302      6309      6303      6302      6304
      6303      6302      6309      6304      6302      6309      6306      6305      6307
      6306      6305      6308      6306      6305      6309      6307      6305      6308
      6307      6305      6309      6308      6305      6309      6305      6308      6310
      6302      6309      6305      6308      6310      6311      6308      6310      6312
      6308      6310      6313      6311      6310      6312      6311      6310      6313
      6312      6310      6313      6310      6313      6314      6310      6313      6315
      6310      6313      6321      6314      6313      6315      6314      6313      6321
      6315      6313      6321      6313      6315      6316      6315      6316      6317
      6315      6316      6318      6317      6316      6318      6316      6318      6319
      6316      6318      6320      6316      6318      6330      6319      6318      6320
      6319      6318      6330      6320      6318      6330      6313      6321      6322
      6313      6321      6323      6313      6321      6324      6322      6321      6323
      6322      6321      6324      6323      6321      6324      6321      6324      6325
      6324      6325      6326      6324      6325      6327      6326      6325      6327
      6325      6327      6328      6325      6327      6329      6325      6327      6377
      6328      6327      6329      6328      6327      6377      6329      6327      6377
      6318      6330      6331      6318      6330      6332      6318      6330      6333
      6331      6330      6332      6331      6330      6333      6332      6330      6333
      6330      6333      6334      6330      6333      6335      6330      6333      6336
      6334      6333      6335      6334      6333      6336      6335      6333      6336
      6333      6336      6337      6333      6336      6338      6333      6336      6339
      6337      6336      6338      6337      6336      6339      6338      6336      6339
      6336      6339      6340      6336      6339      6341      6336      6339      6342
      6340      6339      6341      6340      6339      6342      6341      6339      6342
      6339      6342      6343      6339      6342      6344      6339      6342      6345
      6343      6342      6344      6343      6342      6345      6344      6342      6345
      6342      6345      6346      6342      6345      6347      6342      6345      6348
      6346      6345      6347      6346      6345      6348      6347      6345      6348
      6345      6348      6349      6345      6348      6350      6349      6348      6350
      6348      6350      6351      6348      6350      6352      6351      6350      6352
      6350      6352      6353      6350      6352      6354      6350      6352      6355
      6353      6352      6354      6353      6352      6355      6354      6352      6355
      6352      6355      6356      6352      6355      6357      6352      6355      6358
      6356      6355      6357      6356      6355      6358      6357      6355      6358
      6355      6358      6359      6355      6358      6360      6355      6358      6361
      6359      6358      6360      6359      6358      6361      6360      6358      6361
      6358      6361      6362      6358      6361      6363      6358      6361      6364
      6362      6361      6363      6362      6361      6364      6363      6361      6364
      6361      6364      6365      6361      6364      6366      6361      6364      6367
      6365      6364      6366      6365      6364      6367      6366      6364      6367
      6364      6367      6368      6364      6367      6369      6364      6367      6370
      6368      6367      6369      6368      6367      6370      6369      6367      6370
      6367      6370      6371      6367      6370      6372      6367      6370      6373
      6371      6370      6372      6371      6370      6373      6372      6370      6373
      6370      6373      6374      6370      6373      6375      6370      6373      6376
      6374      6373      6375      6374      6373      6376      6375      6373      6376
      6327      6377      6378      6327      6377      6379      6327      6377      6380
      6378      6377      6379      6378      6377      6380      6379      6377      6380
      6377      6380      6381      6377      6380      6382      6377      6380      6383
      6381      6380      6382      6381      6380      6383      6382      6380      6383
      6380      6383      6384      6380      6383      6385      6380      6383      6386
      6384      6383      6385      6384      6383      6386      6385      6383      6386
      6383      6386      6387      6383      6386      6388      6383      6386      6389
      6387      6386      6388      6387      6386      6389      6388      6386      6389
      6386      6389      6390      6386      6389      6391      6386      6389      6392
      6390      6389      6391      6390      6389      6392      6391      6389      6392
      6389      6392      6393      6389      6392      6394      6389      6392      6395
      6393      6392      6394      6393      6392      6395      6394      6392      6395
      6392      6395      6396      6392      6395      6397      6392      6395      6398
      6396      6395      6397      6396      6395      6398      6397      6395      6398
      6395      6398      6399      6395      6398      6400      6395      6398      6401
      6399      6398      6400      6399      6398      6401      6400      6398      6401
      6398      6401      6402      6398      6401      6403      6398      6401      6404
      6402      6401      6403      6402      6401      6404      6403      6401      6404
      6401      6404      6405      6401      6404      6406      6401      6404      6407
      6405      6404      6406      6405      6404      6407      6406      6404      6407
      6404      6407      6408      6404      6407      6409      6404      6407      6410
      6408      6407      6409      6408      6407      6410      6409      6407      6410
      6407      6410      6411      6407      6410      6412      6407      6410      6413
      6411      6410      6412      6411      6410      6413      6412      6410      6413
      6410      6413      6414      6410      6413      6415      6410      6413      6416
      6414      6413      6415      6414      6413      6416      6415      6413      6416
      6413      6416      6417      6413      6416      6418      6413      6416      6419
      6417      6416      6418      6417      6416      6419      6418      6416      6419
      6421      6420      6424      6421      6420      6428      6421      6420      6432
      6424      6420      6428      6424      6420      6432      6428      6420      6432
      6420      6421      6422      6420      6421      6423      6420      6421      6436
      6422      6421      6423      6422      6421      6436      6423      6421      6436
      6420      6424      6425      6420      6424      6426      6420      6424      6427
      6425      6424      6426      6425      6424      6427      6426      6424      6427
      6420      6428      6429      6420      6428      6430      6420      6428      6431
      6429      6428      6430      6429      6428      6431      6430      6428      6431
      6420      6432      6433      6420      6432      6434      6420      6432      6435
      6433      6432      6434      6433      6432      6435      6434      6432      6435
      6421      6436      6437      6421      6436      6438      6421      6436      6442
      6437      6436      6438      6437      6436      6442      6438      6436      6442
      6440      6439      6441      6440      6439      6442      6440      6439      6443
      6441      6439      6442      6441      6439      6443      6442      6439      6443
      6436      6442      6439      6439      6443      6444      6443      6444      6445
      6443      6444      6446      6443      6444      6447      6445      6444      6446
      6445      6444      6447      6446      6444      6447      6444      6447      6448
      6444      6447      6449      6444      6447      6455      6448      6447      6449
      6448      6447      6455      6449      6447      6455      6447      6449      6450
      6449      6450      6451      6449      6450      6452      6451      6450      6452
      6450      6452      6453      6450      6452      6454      6450      6452      6464
      6453      6452      6454      6453      6452      6464      6454      6452      6464
      6447      6455      6456      6447      6455      6457      6447      6455      6458
      6456      6455      6457      6456      6455      6458      6457      6455      6458
      6455      6458      6459      6458      6459      6460      6458      6459      6461
      6460      6459      6461      6459      6461      6462      6459      6461      6463
      6459      6461      6511      6462      6461      6463      6462      6461      6511
      6463      6461      6511      6452      6464      6465      6452      6464      6466
      6452      6464      6467      6465      6464      6466      6465      6464      6467
      6466      6464      6467      6464      6467      6468      6464      6467      6469
      6464      6467      6470      6468      6467      6469      6468      6467      6470
      6469      6467      6470      6467      6470      6471      6467      6470      6472
      6467      6470      6473      6471      6470      6472      6471      6470      6473
      6472      6470      6473      6470      6473      6474      6470      6473      6475
      6470      6473      6476      6474      6473      6475      6474      6473      6476
      6475      6473      6476      6473      6476      6477      6473      6476      6478
      6473      6476      6479      6477      6476      6478      6477      6476      6479
      6478      6476      6479      6476      6479      6480      6476      6479      6481
      6476      6479      6482      6480      6479      6481      6480      6479      6482
      6481      6479      6482      6479      6482      6483      6479      6482      6484
      6483      6482      6484      6482      6484      6485      6482      6484      6486
      6485      6484      6486      6484      6486      6487      6484      6486      6488
      6484      6486      6489      6487      6486      6488      6487      6486      6489
      6488      6486      6489      6486      6489      6490      6486      6489      6491
      6486      6489      6492      6490      6489      6491      6490      6489      6492
      6491      6489      6492      6489      6492      6493      6489      6492      6494
      6489      6492      6495      6493      6492      6494      6493      6492      6495
      6494      6492      6495      6492      6495      6496      6492      6495      6497
      6492      6495      6498      6496      6495      6497      6496      6495      6498
      6497      6495      6498      6495      6498      6499      6495      6498      6500
      6495      6498      6501      6499      6498      6500      6499      6498      6501
      6500      6498      6501      6498      6501      6502      6498      6501      6503
      6498      6501      6504      6502      6501      6503      6502      6501      6504
      6503      6501      6504      6501      6504      6505      6501      6504      6506
      6501      6504      6507      6505      6504      6506      6505      6504      6507
      6506      6504      6507      6504      6507      6508      6504      6507      6509
      6504      6507      6510      6508      6507      6509      6508      6507      6510
      6509      6507      6510      6461      6511      6512      6461      6511      6513
      6461      6511      6514      6512      6511      6513      6512      6511      6514
      6513      6511      6514      6511      6514      6515      6511      6514      6516
      6511      6514      6517      6515      6514      6516      6515      6514      6517
      6516      6514      6517      6514      6517      6518      6514      6517      6519
      6514      6517      6520      6518      6517      6519      6518      6517      6520
      6519      6517      6520      6517      6520      6521      6517      6520      6522
      6517      6520      6523      6521      6520      6522      6521      6520      6523
      6522      6520      6523      6520      6523      6524      6520      6523      6525
      6520      6523      6526      6524      6523      6525      6524      6523      6526
      6525      6523      6526      6523      6526      6527      6523      6526      6528
      6523      6526      6529      6527      6526      6528      6527      6526      6529
      6528      6526      6529      6526      6529      6530      6526      6529      6531
      6526      6529      6532      6530      6529      6531      6530      6529      6532
      6531      6529      6532      6529      6532      6533      6529      6532      6534
      6529      6532      6535      6533      6532      6534      6533      6532      6535
      6534      6532      6535      6532      6535      6536      6532      6535      6537
      6532      6535      6538      6536      6535      6537      6536      6535      6538
      6537      6535      6538      6535      6538      6539      6535      6538      6540
      6535      6538      6541      6539      6538      6540      6539      6538      6541
      6540      6538      6541      6538      6541      6542      6538      6541      6543
      6538      6541      6544      6542      6541      6543      6542      6541      6544
      6543      6541      6544      6541      6544      6545      6541      6544      6546
      6541      6544      6547      6545      6544      6546      6545      6544      6547
      6546      6544      6547      6544      6547      6548      6544      6547      6549
      6544      6547      6550      6548      6547      6549      6548      6547      6550
      6549      6547      6550      6547      6550      6551      6547      6550      6552
      6547      6550      6553      6551      6550      6552      6551      6550      6553
      6552      6550      6553      6555      6554      6558      6555      6554      6562
      6555      6554      6566      6558      6554      6562      6558      6554      6566
      6562      6554      6566      6554      6555      6556      6554      6555      6557
      6554      6555      6570      6556      6555      6557      6556      6555      6570
      6557      6555      6570      6554      6558      6559      6554      6558      6560
      6554      6558      6561      6559      6558      6560      6559      6558      6561
      6560      6558      6561      6554      6562      6563      6554      6562      6564
      6554      6562      6565      6563      6562      6564      6563      6562      6565
      6564      6562      6565      6554      6566      6567      6554      6566      6568
      6554      6566      6569      6567      6566      6568      6567      6566      6569
      6568      6566      6569      6555      6570      6571      6555      6570      6572
      6555      6570      6576      6571      6570      6572      6571      6570      6576
      6572      6570      6576      6574      6573      6575      6574      6573      6576
      6574      6573      6577      6575      6573      6576      6575      6573      6577
      6576      6573      6577      6570      6576      6573      6573      6577      6578
      6577      6578      6579      6577      6578      6580      6577      6578      6581
      6579      6578      6580      6579      6578      6581      6580      6578      6581
      6578      6581      6582      6578      6581      6583      6578      6581      6589
      6582      6581      6583      6582      6581      6589      6583      6581      6589
      6581      6583      6584      6583      6584      6585      6583      6584      6586
      6585      6584      6586      6584      6586      6587      6584      6586      6588
      6584      6586      6598      6587      6586      6588      6587      6586      6598
      6588      6586      6598      6581      6589      6590      6581      6589      6591
      6581      6589      6592      6590      6589      6591      6590      6589      6592
      6591      6589      6592      6589      6592      6593      6592      6593      6594
      6592      6593      6595      6594      6593      6595      6593      6595      6596
      6593      6595      6597      6593      6595      6645      6596      6595      6597
      6596      6595      6645      6597      6595      6645      6586      6598      6599
      6586      6598      6600      6586      6598      6601      6599      6598      6600
      6599      6598      6601      6600      6598      6601      6598      6601      6602
      6598      6601      6603      6598      6601      6604      6602      6601      6603
      6602      6601      6604      6603      6601      6604      6601      6604      6605
      6601      6604      6606      6601      6604      6607      6605      6604      6606
      6605      6604      6607      6606      6604      6607      6604      6607      6608
      6604      6607      6609      6604      6607      6610      6608      6607      6609
      6608      6607      6610      6609      6607      6610      6607      6610      6611
      6607      6610      6612      6607      6610      6613      6611      6610      6612
      6611      6610      6613      6612      6610      6613      6610      6613      6614
      6610      6613      6615      6610      6613      6616      6614      6613      6615
      6614      6613      6616      6615      6613      6616      6613      6616      6617
      6613      6616      6618      6617      6616      6618      6616      6618      6619
      6616      6618      6620      6619      6618      6620      6618      6620      6621
      6618      6620      6622      6618      6620      6623      6621      6620      6622
      6621      6620      6623      6622      6620      6623      6620      6623      6624
      6620      6623      6625      6620      6623      6626      6624      6623      6625
      6624      6623      6626      6625      6623      6626      6623      6626      6627
      6623      6626      6628      6623      6626      6629      6627      6626      6628
      6627      6626      6629      6628      6626      6629      6626      6629      6630
      6626      6629      6631      6626      6629      6632      6630      6629      6631
      6630      6629      6632      6631      6629      6632      6629      6632      6633
      6629      6632      6634      6629      6632      6635      6633      6632      6634
      6633      6632      6635      6634      6632      6635      6632      6635      6636
      6632      6635      6637      6632      6635      6638      6636      6635      6637
      6636      6635      6638      6637      6635      6638      6635      6638      6639
      6635      6638      6640      6635      6638      6641      6639      6638      6640
      6639      6638      6641      6640      6638      6641      6638      6641      6642
      6638      6641      6643      6638      6641      6644      6642      6641      6643
      6642      6641      6644      6643      6641      6644      6595      6645      6646
      6595      6645      6647      6595      6645      6648      6646      6645      6647
      6646      6645      6648      6647      6645      6648      6645      6648      6649
      6645      6648      6650      6645      6648      6651      6649      6648      6650
      6649      6648      6651      6650      6648      6651      6648      6651      6652
      6648      6651      6653      6648      6651      6654      6652      6651      6653
      6652      6651      6654      6653      6651      6654      6651      6654      6655
      6651      6654      6656      6651      6654      6657      6655      6654      6656
      6655      6654      6657      6656      6654      6657      6654      6657      6658
      6654      6657      6659      6654      6657      6660      6658      6657      6659
      6658      6657      6660      6659      6657      6660      6657      6660      6661
      6657      6660      6662      6657      6660      6663      6661      6660      6662
      6661      6660      6663      6662      6660      6663      6660      6663      6664
      6660      6663      6665      6660      6663      6666      6664      6663      6665
      6664      6663      6666      6665      6663      6666      6663      6666      6667
      6663      6666      6668      6663      6666      6669      6667      6666      6668
      6667      6666      6669      6668      6666      6669      6666      6669      6670
      6666      6669      6671      6666      6669      6672      6670      6669      6671
      6670      6669      6672      6671      6669      6672      6669      6672      6673
      6669      6672      6674      6669      6672      6675      6673      6672      6674
      6673      6672      6675      6674      6672      6675      6672      6675      6676
      6672      6675      6677      6672      6675      6678      6676      6675      6677
      6676      6675      6678      6677      6675      6678      6675      6678      6679
      6675      6678      6680      6675      6678      6681      6679      6678      6680
      6679      6678      6681      6680      6678      6681      6678      6681      6682
      6678      6681      6683      6678      6681      6684      6682      6681      6683
      6682      6681      6684      6683      6681      6684      6681      6684      6685
      6681      6684      6686      6681      6684      6687      6685      6684      6686
      6685      6684      6687      6686      6684      6687      6689      6688      6693
      6689      6688      6697      6689      6688      6701      6693      6688      6697
      6693      6688      6701      6697      6688      6701      6688      6689      6690
      6688      6689      6691      6688      6689      6692      6690      6689      6691
      6690      6689      6692      6691      6689      6692      6688      6693      6694
      6688      6693      6695      6688      6693      6696      6694      6693      6695
      6694      6693      6696      6695      6693      6696      6688      6697      6698
      6688      6697      6699      6688      6697      6700      6698      6697      6699
      6698      6697      6700      6699      6697      6700      6688      6701      6702
      6688      6701      6703      6688      6701      6704      6702      6701      6703
      6702      6701      6704      6703      6701      6704      6701      6704      6705
      6701      6704      6706      6701      6704      6711      6705      6704      6706
      6705      6704      6711      6706      6704      6711      6708      6707      6709
      6708      6707      6710      6708      6707      6711      6709      6707      6710
      6709      6707      6711      6710      6707      6711      6707      6710      6712
      6704      6711      6707      6710      6712      6713      6710      6712      6714
      6710      6712      6717      6713      6712      6714      6713      6712      6717
      6714      6712      6717      6716      6715      6717      6716      6715      6767
      6717      6715      6767      6712      6717      6715      6712      6717      6718
      6712      6717      6719      6715      6717      6718      6715      6717      6719
      6718      6717      6719      6717      6719      6720      6717      6719      6721
      6717      6719      6723      6720      6719      6721      6720      6719      6723
      6721      6719      6723      6719      6721      6722      6719      6723      6724
      6719      6723      6725      6724      6723      6725      6723      6725      6726
      6723      6725      6727      6726      6725      6727      6725      6727      6728
      6725      6727      6729      6725      6727      6730      6728      6727      6729
      6728      6727      6730      6729      6727      6730      6727      6730      6731
      6727      6730      6732      6727      6730      6733      6731      6730      6732
      6731      6730      6733      6732      6730      6733      6730      6733      6734
      6730      6733      6735      6730      6733      6736      6734      6733      6735
      6734      6733      6736      6735      6733      6736      6733      6736      6737
      6733      6736      6738      6733      6736      6739      6737      6736      6738
      6737      6736      6739      6738      6736      6739      6736      6739      6740
      6736      6739      6741      6736      6739      6742      6740      6739      6741
      6740      6739      6742      6741      6739      6742      6739      6742      6743
      6739      6742      6744      6739      6742      6745      6743      6742      6744
      6743      6742      6745      6744      6742      6745      6742      6745      6746
      6742      6745      6747      6742      6745      6748      6746      6745      6747
      6746      6745      6748      6747      6745      6748      6745      6748      6749
      6745      6748      6750      6745      6748      6751      6749      6748      6750
      6749      6748      6751      6750      6748      6751      6748      6751      6752
      6748      6751      6753      6748      6751      6754      6752      6751      6753
      6752      6751      6754      6753      6751      6754      6751      6754      6755
      6751      6754      6756      6751      6754      6757      6755      6754      6756
      6755      6754      6757      6756      6754      6757      6754      6757      6758
      6754      6757      6759      6754      6757      6760      6758      6757      6759
      6758      6757      6760      6759      6757      6760      6757      6760      6761
      6757      6760      6762      6757      6760      6763      6761      6760      6762
      6761      6760      6763      6762      6760      6763      6760      6763      6764
      6760      6763      6765      6760      6763      6766      6764      6763      6765
      6764      6763      6766      6765      6763      6766      6715      6767      6768
      6715      6767      6769      6768      6767      6769      6767      6769      6770
      6767      6769      6771      6767      6769      6772      6770      6769      6771
      6770      6769      6772      6771      6769      6772      6769      6772      6773
      6769      6772      6774      6769      6772      6775      6773      6772      6774
      6773      6772      6775      6774      6772      6775      6772      6775      6776
      6772      6775      6777      6772      6775      6778      6776      6775      6777
      6776      6775      6778      6777      6775      6778      6775      6778      6779
      6775      6778      6780      6775      6778      6781      6779      6778      6780
      6779      6778      6781      6780      6778      6781      6778      6781      6782
      6778      6781      6783      6778      6781      6784      6782      6781      6783
      6782      6781      6784      6783      6781      6784      6781      6784      6785
      6781      6784      6786      6781      6784      6787      6785      6784      6786
      6785      6784      6787      6786      6784      6787      6784      6787      6788
      6784      6787      6789      6784      6787      6790      6788      6787      6789
      6788      6787      6790      6789      6787      6790      6787      6790      6791
      6787      6790      6792      6787      6790      6793      6791      6790      6792
      6791      6790      6793      6792      6790      6793      6790      6793      6794
      6790      6793      6795      6790      6793      6796      6794      6793      6795
      6794      6793      6796      6795      6793      6796      6793      6796      6797
      6793      6796      6798      6793      6796      6799      6797      6796      6798
      6797      6796      6799      6798      6796      6799      6796      6799      6800
      6796      6799      6801      6796      6799      6802      6800      6799      6801
      6800      6799      6802      6801      6799      6802      6799      6802      6803
      6799      6802      6804      6799      6802      6805      6803      6802      6804
      6803      6802      6805      6804      6802      6805      6802      6805      6806
      6802      6805      6807      6802      6805      6808      6806      6805      6807
      6806      6805      6808      6807      6805      6808      6805      6808      6809
      6805      6808      6810      6805      6808      6811      6809      6808      6810
      6809      6808      6811      6810      6808      6811      6808      6811      6812
      6808      6811      6813      6808      6811      6814      6812      6811      6813
      6812      6811      6814      6813      6811      6814      6816      6815      6817
      6816      6815      6819      6816      6815      6861      6817      6815      6819
      6817      6815      6861      6819      6815      6861      6815      6817      6818
      6815      6819      6820      6815      6819      6821      6815      6819      6822
      6820      6819      6821      6820      6819      6822      6821      6819      6822
      6819      6822      6823      6819      6822      6853      6823      6822      6853
      6822      6823      6824      6822      6823      6825      6824      6823      6825
      6823      6825      6826      6823      6825      6827      6823      6825      6828
      6826      6825      6827      6826      6825      6828      6827      6825      6828
      6825      6828      6829      6825      6828      6830      6825      6828      6851
      6829      6828      6830      6829      6828      6851      6830      6828      6851
      6828      6830      6831      6828      6830      6832      6828      6830      6840
      6831      6830      6832      6831      6830      6840      6832      6830      6840
      6830      6832      6833      6830      6832      6834      6830      6832      6835
      6833      6832      6834      6833      6832      6835      6834      6832      6835
      6832      6835      6836      6832      6835      6837      6832      6835      6838
      6836      6835      6837      6836      6835      6838      6837      6835      6838
      6835      6838      6839      6835      6838      6840      6835      6838      6864
      6839      6838      6840      6839      6838      6864      6840      6838      6864
      6830      6840      6838      6830      6840      6841      6830      6840      6845
      6838      6840      6841      6838      6840      6845      6841      6840      6845
      6840      6841      6842      6840      6841      6843      6840      6841      6844
      6842      6841      6843      6842      6841      6844      6843      6841      6844
      6840      6845      6846      6840      6845      6847      6840      6845      6848
      6846      6845      6847      6846      6845      6848      6847      6845      6848
      6845      6848      6849      6845      6848      6850      6845      6848      6851
      6849      6848      6850      6849      6848      6851      6850      6848      6851
      6828      6851      6848      6828      6851      6852      6828      6851      6853
      6848      6851      6852      6848      6851      6853      6852      6851      6853
      6822      6853      6851      6822      6853      6854      6822      6853      6858
      6851      6853      6854      6851      6853      6858      6854      6853      6858
      6853      6854      6855      6853      6854      6856      6853      6854      6857
      6855      6854      6856      6855      6854      6857      6856      6854      6857
      6853      6858      6859      6853      6858      6860      6853      6858      6861
      6859      6858      6860      6859      6858      6861      6860      6858      6861
      6815      6861      6858      6815      6861      6862      6815      6861      6863
      6858      6861      6862      6858      6861      6863      6862      6861      6863
      6838      6864      6865      6838      6864      6866      6838      6864      6870
      6865      6864      6866      6865      6864      6870      6866      6864      6870
      6864      6866      6867      6864      6866      6868      6864      6866      6869
      6867      6866      6868      6867      6866      6869      6868      6866      6869
      6864      6870      6871      6864      6870      6872      6864      6870      6873
      6871      6870      6872      6871      6870      6873      6872      6870      6873
      6870      6873      6874      6870      6873      6875      6870      6873      6876
      6874      6873      6875      6874      6873      6876      6875      6873      6876
      6873      6876      6877      6873      6876      6878      6873      6876      6879
      6877      6876      6878      6877      6876      6879      6878      6876      6879
      6876      6879      6880      6876      6879      6881      6876      6879      6885
      6880      6879      6881      6880      6879      6885      6881      6879      6885
      6879      6881      6882      6879      6881      6883      6879      6881      6884
      6882      6881      6883      6882      6881      6884      6883      6881      6884
      6879      6885      6886      6879      6885      6887      6879      6885      6888
      6886      6885      6887      6886      6885      6888      6887      6885      6888
      6890      6889      6891      6890      6889      6893      6890      6889      6935
      6891      6889      6893      6891      6889      6935      6893      6889      6935
      6889      6891      6892      6889      6893      6894      6889      6893      6895
      6889      6893      6896      6894      6893      6895      6894      6893      6896
      6895      6893      6896      6893      6896      6897      6893      6896      6927
      6897      6896      6927      6896      6897      6898      6896      6897      6899
      6898      6897      6899      6897      6899      6900      6897      6899      6901
      6897      6899      6902      6900      6899      6901      6900      6899      6902
      6901      6899      6902      6899      6902      6903      6899      6902      6904
      6899      6902      6925      6903      6902      6904      6903      6902      6925
      6904      6902      6925      6902      6904      6905      6902      6904      6906
      6902      6904      6914      6905      6904      6906      6905      6904      6914
      6906      6904      6914      6904      6906      6907      6904      6906      6908
      6904      6906      6909      6907      6906      6908      6907      6906      6909
      6908      6906      6909      6906      6909      6910      6906      6909      6911
      6906      6909      6912      6910      6909      6911      6910      6909      6912
      6911      6909      6912      6909      6912      6913      6909      6912      6914
      6909      6912      6938      6913      6912      6914      6913      6912      6938
      6914      6912      6938      6904      6914      6912      6904      6914      6915
      6904      6914      6919      6912      6914      6915      6912      6914      6919
      6915      6914      6919      6914      6915      6916      6914      6915      6917
      6914      6915      6918      6916      6915      6917      6916      6915      6918
      6917      6915      6918      6914      6919      6920      6914      6919      6921
      6914      6919      6922      6920      6919      6921      6920      6919      6922
      6921      6919      6922      6919      6922      6923      6919      6922      6924
      6919      6922      6925      6923      6922      6924      6923      6922      6925
      6924      6922      6925      6902      6925      6922      6902      6925      6926
      6902      6925      6927      6922      6925      6926      6922      6925      6927
      6926      6925      6927      6896      6927      6925      6896      6927      6928
      6896      6927      6932      6925      6927      6928      6925      6927      6932
      6928      6927      6932      6927      6928      6929      6927      6928      6930
      6927      6928      6931      6929      6928      6930      6929      6928      6931
      6930      6928      6931      6927      6932      6933      6927      6932      6934
      6927      6932      6935      6933      6932      6934      6933      6932      6935
      6934      6932      6935      6889      6935      6932      6889      6935      6936
      6889      6935      6937      6932      6935      6936      6932      6935      6937
      6936      6935      6937      6912      6938      6939      6912      6938      6940
      6912      6938      6944      6939      6938      6940      6939      6938      6944
      6940      6938      6944      6938      6940      6941      6938      6940      6942
      6938      6940      6943      6941      6940      6942      6941      6940      6943
      6942      6940      6943      6938      6944      6945      6938      6944      6946
      6938      6944      6947      6945      6944      6946      6945      6944      6947
      6946      6944      6947      6944      6947      6948      6944      6947      6949
      6944      6947      6950      6948      6947      6949      6948      6947      6950
      6949      6947      6950      6947      6950      6951      6947      6950      6952
      6947      6950      6953      6951      6950      6952      6951      6950      6953
      6952      6950      6953      6950      6953      6954      6950      6953      6955
      6950      6953      6959      6954      6953      6955      6954      6953      6959
      6955      6953      6959      6953      6955      6956      6953      6955      6957
      6953      6955      6958      6956      6955      6957      6956      6955      6958
      6957      6955      6958      6953      6959      6960      6953      6959      6961
      6953      6959      6962      6960      6959      6961      6960      6959      6962
      6961      6959      6962      6964      6963      6965      6964      6963      6967
      6964      6963      7009      6965      6963      6967      6965      6963      7009
      6967      6963      7009      6963      6965      6966      6963      6967      6968
      6963      6967      6969      6963      6967      6970      6968      6967      6969
      6968      6967      6970      6969      6967      6970      6967      6970      6971
      6967      6970      7001      6971      6970      7001      6970      6971      6972
      6970      6971      6973      6972      6971      6973      6971      6973      6974
      6971      6973      6975      6971      6973      6976      6974      6973      6975
      6974      6973      6976      6975      6973      6976      6973      6976      6977
      6973      6976      6978      6973      6976      6999      6977      6976      6978
      6977      6976      6999      6978      6976      6999      6976      6978      6979
      6976      6978      6980      6976      6978      6988      6979      6978      6980
      6979      6978      6988      6980      6978      6988      6978      6980      6981
      6978      6980      6982      6978      6980      6983      6981      6980      6982
      6981      6980      6983      6982      6980      6983      6980      6983      6984
      6980      6983      6985      6980      6983      6986      6984      6983      6985
      6984      6983      6986      6985      6983      6986      6983      6986      6987
      6983      6986      6988      6983      6986      7012      6987      6986      6988
      6987      6986      7012      6988      6986      7012      6978      6988      6986
      6978      6988      6989      6978      6988      6993      6986      6988      6989
      6986      6988      6993      6989      6988      6993      6988      6989      6990
      6988      6989      6991      6988      6989      6992      6990      6989      6991
      6990      6989      6992      6991      6989      6992      6988      6993      6994
      6988      6993      6995      6988      6993      6996      6994      6993      6995
      6994      6993      6996      6995      6993      6996      6993      6996      6997
      6993      6996      6998      6993      6996      6999      6997      6996      6998
      6997      6996      6999      6998      6996      6999      6976      6999      6996
      6976      6999      7000      6976      6999      7001      6996      6999      7000
      6996      6999      7001      7000      6999      7001      6970      7001      6999
      6970      7001      7002      6970      7001      7006      6999      7001      7002
      6999      7001      7006      7002      7001      7006      7001      7002      7003
      7001      7002      7004      7001      7002      7005      7003      7002      7004
      7003      7002      7005      7004      7002      7005      7001      7006      7007
      7001      7006      7008      7001      7006      7009      7007      7006      7008
      7007      7006      7009      7008      7006      7009      6963      7009      7006
      6963      7009      7010      6963      7009      7011      7006      7009      7010
      7006      7009      7011      7010      7009      7011      6986      7012      7013
      6986      7012      7014      6986      7012      7018      7013      7012      7014
      7013      7012      7018      7014      7012      7018      7012      7014      7015
      7012      7014      7016      7012      7014      7017      7015      7014      7016
      7015      7014      7017      7016      7014      7017      7012      7018      7019
      7012      7018      7020      7012      7018      7021      7019      7018      7020
      7019      7018      7021      7020      7018      7021      7018      7021      7022
      7018      7021      7023      7018      7021      7024      7022      7021      7023
      7022      7021      7024      7023      7021      7024      7021      7024      7025
      7021      7024      7026      7021      7024      7027      7025      7024      7026
      7025      7024      7027      7026      7024      7027      7024      7027      7028
      7024      7027      7029      7024      7027      7033      7028      7027      7029
      7028      7027      7033      7029      7027      7033      7027      7029      7030
      7027      7029      7031      7027      7029      7032      7030      7029      7031
      7030      7029      7032      7031      7029      7032      7027      7033      7034
      7027      7033      7035      7027      7033      7036      7034      7033      7035
      7034      7033      7036      7035      7033      7036      7038      7037      7039
      7038      7037      7041      7038      7037      7083      7039      7037      7041
      7039      7037      7083      7041      7037      7083      7037      7039      7040
      7037      7041      7042      7037      7041      7043      7037      7041      7044
      7042      7041      7043      7042      7041      7044      7043      7041      7044
      7041      7044      7045      7041      7044      7075      7045      7044      7075
      7044      7045      7046      7044      7045      7047      7046      7045      7047
      7045      7047      7048      7045      7047      7049      7045      7047      7050
      7048      7047      7049      7048      7047      7050      7049      7047      7050
      7047      7050      7051      7047      7050      7052      7047      7050      7073
      7051      7050      7052      7051      7050      7073      7052      7050      7073
      7050      7052      7053      7050      7052      7054      7050      7052      7062
      7053      7052      7054      7053      7052      7062      7054      7052      7062
      7052      7054      7055      7052      7054      7056      7052      7054      7057
      7055      7054      7056      7055      7054      7057      7056      7054      7057
      7054      7057      7058      7054      7057      7059      7054      7057      7060
      7058      7057      7059      7058      7057      7060      7059      7057      7060
      7057      7060      7061      7057      7060      7062      7057      7060      7086
      7061      7060      7062      7061      7060      7086      7062      7060      7086
      7052      7062      7060      7052      7062      7063      7052      7062      7067
      7060      7062      7063      7060      7062      7067      7063      7062      7067
      7062      7063      7064      7062      7063      7065      7062      7063      7066
      7064      7063      7065      7064      7063      7066      7065      7063      7066
      7062      7067      7068      7062      7067      7069      7062      7067      7070
      7068      7067      7069      7068      7067      7070      7069      7067      7070
      7067      7070      7071      7067      7070      7072      7067      7070      7073
      7071      7070      7072      7071      7070      7073      7072      7070      7073
      7050      7073      7070      7050      7073      7074      7050      7073      7075
      7070      7073      7074      7070      7073      7075      7074      7073      7075
      7044      7075      7073      7044      7075      7076      7044      7075      7080
      7073      7075      7076      7073      7075      7080      7076      7075      7080
      7075      7076      7077      7075      7076      7078      7075      7076      7079
      7077      7076      7078      7077      7076      7079      7078      7076      7079
      7075      7080      7081      7075      7080      7082      7075      7080      7083
      7081      7080      7082      7081      7080      7083      7082      7080      7083
      7037      7083      7080      7037      7083      7084      7037      7083      7085
      7080      7083      7084      7080      7083      7085      7084      7083      7085
      7060      7086      7087      7060      7086      7088      7060      7086      7092
      7087      7086      7088      7087      7086      7092      7088      7086      7092
      7086      7088      7089      7086      7088      7090      7086      7088      7091
      7089      7088      7090      7089      7088      7091      7090      7088      7091
      7086      7092      7093      7086      7092      7094      7086      7092      7095
      7093      7092      7094      7093      7092      7095      7094      7092      7095
      7092      7095      7096      7092      7095      7097      7092      7095      7098
      7096      7095      7097      7096      7095      7098      7097      7095      7098
      7095      7098      7099      7095      7098      7100      7095      7098      7101
      7099      7098      7100      7099      7098      7101      7100      7098      7101
      7098      7101      7102      7098      7101      7103      7098      7101      7107
      7102      7101      7103      7102      7101      7107      7103      7101      7107
      7101      7103      7104      7101      7103      7105      7101      7103      7106
      7104      7103      7105      7104      7103      7106      7105      7103      7106
      7101      7107      7108      7101      7107      7109      7101      7107      7110
      7108      7107      7109      7108      7107      7110      7109      7107      7110
      7112      7111      7113      7112      7111      7115      7112      7111      7157
      7113      7111      7115      7113      7111      7157      7115      7111      7157
      7111      7113      7114      7111      7115      7116      7111      7115      7117
      7111      7115      7118      7116      7115      7117      7116      7115      7118
      7117      7115      7118      7115      7118      7119      7115      7118      7149
      7119      7118      7149      7118      7119      7120      7118      7119      7121
      7120      7119      7121      7119      7121      7122      7119      7121      7123
      7119      7121      7124      7122      7121      7123      7122      7121      7124
      7123      7121      7124      7121      7124      7125      7121      7124      7126
      7121      7124      7147      7125      7124      7126      7125      7124      7147
      7126      7124      7147      7124      7126      7127      7124      7126      7128
      7124      7126      7136      7127      7126      7128      7127      7126      7136
      7128      7126      7136      7126      7128      7129      7126      7128      7130
      7126      7128      7131      7129      7128      7130      7129      7128      7131
      7130      7128      7131      7128      7131      7132      7128      7131      7133
      7128      7131      7134      7132      7131      7133      7132      7131      7134
      7133      7131      7134      7131      7134      7135      7131      7134      7136
      7131      7134      7160      7135      7134      7136      7135      7134      7160
      7136      7134      7160      7126      7136      7134      7126      7136      7137
      7126      7136      7141      7134      7136      7137      7134      7136      7141
      7137      7136      7141      7136      7137      7138      7136      7137      7139
      7136      7137      7140      7138      7137      7139      7138      7137      7140
      7139      7137      7140      7136      7141      7142      7136      7141      7143
      7136      7141      7144      7142      7141      7143      7142      7141      7144
      7143      7141      7144      7141      7144      7145      7141      7144      7146
      7141      7144      7147      7145      7144      7146      7145      7144      7147
      7146      7144      7147      7124      7147      7144      7124      7147      7148
      7124      7147      7149      7144      7147      7148      7144      7147      7149
      7148      7147      7149      7118      7149      7147      7118      7149      7150
      7118      7149      7154      7147      7149      7150      7147      7149      7154
      7150      7149      7154      7149      7150      7151      7149      7150      7152
      7149      7150      7153      7151      7150      7152      7151      7150      7153
      7152      7150      7153      7149      7154      7155      7149      7154      7156
      7149      7154      7157      7155      7154      7156      7155      7154      7157
      7156      7154      7157      7111      7157      7154      7111      7157      7158
      7111      7157      7159      7154      7157      7158      7154      7157      7159
      7158      7157      7159      7134      7160      7161      7134      7160      7162
      7134      7160      7166      7161      7160      7162      7161      7160      7166
      7162      7160      7166      7160      7162      7163      7160      7162      7164
      7160      7162      7165      7163      7162      7164      7163      7162      7165
      7164      7162      7165      7160      7166      7167      7160      7166      7168
      7160      7166      7169      7167      7166      7168      7167      7166      7169
      7168      7166      7169      7166      7169      7170      7166      7169      7171
      7166      7169      7172      7170      7169      7171      7170      7169      7172
      7171      7169      7172      7169      7172      7173      7169      7172      7174
      7169      7172      7175      7173      7172      7174      7173      7172      7175
      7174      7172      7175      7172      7175      7176      7172      7175      7177
      7172      7175      7181      7176      7175      7177      7176      7175      7181
      7177      7175      7181      7175      7177      7178      7175      7177      7179
      7175      7177      7180      7178      7177      7179      7178      7177      7180
      7179      7177      7180      7175      7181      7182      7175      7181      7183
      7175      7181      7184      7182      7181      7183      7182      7181      7184
      7183      7181      7184      7186      7185      7187      7186      7185      7189
      7186      7185      7231      7187      7185      7189      7187      7185      7231
      7189      7185      7231      7185      7187      7188      7185      7189      7190
      7185      7189      7191      7185      7189      7192      7190      7189      7191
      7190      7189      7192      7191      7189      7192      7189      7192      7193
      7189      7192      7223      7193      7192      7223      7192      7193      7194
      7192      7193      7195      7194      7193      7195      7193      7195      7196
      7193      7195      7197      7193      7195      7198      7196      7195      7197
      7196      7195      7198      7197      7195      7198      7195      7198      7199
      7195      7198      7200      7195      7198      7221      7199      7198      7200
      7199      7198      7221      7200      7198      7221      7198      7200      7201
      7198      7200      7202      7198      7200      7210      7201      7200      7202
      7201      7200      7210      7202      7200      7210      7200      7202      7203
      7200      7202      7204      7200      7202      7205      7203      7202      7204
      7203      7202      7205      7204      7202      7205      7202      7205      7206
      7202      7205      7207      7202      7205      7208      7206      7205      7207
      7206      7205      7208      7207      7205      7208      7205      7208      7209
      7205      7208      7210      7205      7208      7234      7209      7208      7210
      7209      7208      7234      7210      7208      7234      7200      7210      7208
      7200      7210      7211      7200      7210      7215      7208      7210      7211
      7208      7210      7215      7211      7210      7215      7210      7211      7212
      7210      7211      7213      7210      7211      7214      7212      7211      7213
      7212      7211      7214      7213      7211      7214      7210      7215      7216
      7210      7215      7217      7210      7215      7218      7216      7215      7217
      7216      7215      7218      7217      7215      7218      7215      7218      7219
      7215      7218      7220      7215      7218      7221      7219      7218      7220
      7219      7218      7221      7220      7218      7221      7198      7221      7218
      7198      7221      7222      7198      7221      7223      7218      7221      7222
      7218      7221      7223      7222      7221      7223      7192      7223      7221
      7192      7223      7224      7192      7223      7228      7221      7223      7224
      7221      7223      7228      7224      7223      7228      7223      7224      7225
      7223      7224      7226      7223      7224      7227      7225      7224      7226
      7225      7224      7227      7226      7224      7227      7223      7228      7229
      7223      7228      7230      7223      7228      7231      7229      7228      7230
      7229      7228      7231      7230      7228      7231      7185      7231      7228
      7185      7231      7232      7185      7231      7233      7228      7231      7232
      7228      7231      7233      7232      7231      7233      7208      7234      7235
      7208      7234      7236      7208      7234      7240      7235      7234      7236
      7235      7234      7240      7236      7234      7240      7234      7236      7237
      7234      7236      7238      7234      7236      7239      7237      7236      7238
      7237      7236      7239      7238      7236      7239      7234      7240      7241
      7234      7240      7242      7234      7240      7243      7241      7240      7242
      7241      7240      7243      7242      7240      7243      7240      7243      7244
      7240      7243      7245      7240      7243      7246      7244      7243      7245
      7244      7243      7246      7245      7243      7246      7243      7246      7247
      7243      7246      7248      7243      7246      7249      7247      7246      7248
      7247      7246      7249      7248      7246      7249      7246      7249      7250
      7246      7249      7251      7246      7249      7255      7250      7249      7251
      7250      7249      7255      7251      7249      7255      7249      7251      7252
      7249      7251      7253      7249      7251      7254      7252      7251      7253
      7252      7251      7254      7253      7251      7254      7249      7255      7256
      7249      7255      7257      7249      7255      7258      7256      7255      7257
      7256      7255      7258      7257      7255      7258      7260      7259      7261
      7260      7259      7263      7260      7259      7305      7261      7259      7263
      7261      7259      7305      7263      7259      7305      7259      7261      7262
      7259      7263      7264      7259      7263      7265      7259      7263      7266
      7264      7263      7265      7264      7263      7266      7265      7263      7266
      7263      7266      7267      7263      7266      7297      7267      7266      7297
      7266      7267      7268      7266      7267      7269      7268      7267      7269
      7267      7269      7270      7267      7269      7271      7267      7269      7272
      7270      7269      7271      7270      7269      7272      7271      7269      7272
      7269      7272      7273      7269      7272      7274      7269      7272      7295
      7273      7272      7274      7273      7272      7295      7274      7272      7295
      7272      7274      7275      7272      7274      7276      7272      7274      7284
      7275      7274      7276      7275      7274      7284      7276      7274      7284
      7274      7276      7277      7274      7276      7278      7274      7276      7279
      7277      7276      7278      7277      7276      7279      7278      7276      7279
      7276      7279      7280      7276      7279      7281      7276      7279      7282
      7280      7279      7281      7280      7279      7282      7281      7279      7282
      7279      7282      7283      7279      7282      7284      7279      7282      7308
      7283      7282      7284      7283      7282      7308      7284      7282      7308
      7274      7284      7282      7274      7284      7285      7274      7284      7289
      7282      7284      7285      7282      7284      7289      7285      7284      7289
      7284      7285      7286      7284      7285      7287      7284      7285      7288
      7286      7285      7287      7286      7285      7288      7287      7285      7288
      7284      7289      7290      7284      7289      7291      7284      7289      7292
      7290      7289      7291      7290      7289      7292      7291      7289      7292
      7289      7292      7293      7289      7292      7294      7289      7292      7295
      7293      7292      7294      7293      7292      7295      7294      7292      7295
      7272      7295      7292      7272      7295      7296      7272      7295      7297
      7292      7295      7296      7292      7295      7297      7296      7295      7297
      7266      7297      7295      7266      7297      7298      7266      7297      7302
      7295      7297      7298      7295      7297      7302      7298      7297      7302
      7297      7298      7299      7297      7298      7300      7297      7298      7301
      7299      7298      7300      7299      7298      7301      7300      7298      7301
      7297      7302      7303      7297      7302      7304      7297      7302      7305
      7303      7302      7304      7303      7302      7305      7304      7302      7305
      7259      7305      7302      7259      7305      7306      7259      7305      7307
      7302      7305      7306      7302      7305      7307      7306      7305      7307
      7282      7308      7309      7282      7308      7310      7282      7308      7314
      7309      7308      7310      7309      7308      7314      7310      7308      7314
      7308      7310      7311      7308      7310      7312      7308      7310      7313
      7311      7310      7312      7311      7310      7313      7312      7310      7313
      7308      7314      7315      7308      7314      7316      7308      7314      7317
      7315      7314      7316      7315      7314      7317      7316      7314      7317
      7314      7317      7318      7314      7317      7319      7314      7317      7320
      7318      7317      7319      7318      7317      7320      7319      7317      7320
      7317      7320      7321      7317      7320      7322      7317      7320      7323
      7321      7320      7322      7321      7320      7323      7322      7320      7323
      7320      7323      7324      7320      7323      7325      7320      7323      7329
      7324      7323      7325      7324      7323      7329      7325      7323      7329
      7323      7325      7326      7323      7325      7327      7323      7325      7328
      7326      7325      7327      7326      7325      7328      7327      7325      7328
      7323      7329      7330      7323      7329      7331      7323      7329      7332
      7330      7329      7331      7330      7329      7332      7331      7329      7332
      7334      7333      7335      7334      7333      7337      7334      7333      7379
      7335      7333      7337      7335      7333      7379      7337      7333      7379
      7333      7335      7336      7333      7337      7338      7333      7337      7339
      7333      7337      7340      7338      7337      7339      7338      7337      7340
      7339      7337      7340      7337      7340      7341      7337      7340      7371
      7341      7340      7371      7340      7341      7342      7340      7341      7343
      7342      7341      7343      7341      7343      7344      7341      7343      7345
      7341      7343      7346      7344      7343      7345      7344      7343      7346
      7345      7343      7346      7343      7346      7347      7343      7346      7348
      7343      7346      7369      7347      7346      7348      7347      7346      7369
      7348      7346      7369      7346      7348      7349      7346      7348      7350
      7346      7348      7358      7349      7348      7350      7349      7348      7358
      7350      7348      7358      7348      7350      7351      7348      7350      7352
      7348      7350      7353      7351      7350      7352      7351      7350      7353
      7352      7350      7353      7350      7353      7354      7350      7353      7355
      7350      7353      7356      7354      7353      7355      7354      7353      7356
      7355      7353      7356      7353      7356      7357      7353      7356      7358
      7353      7356      7382      7357      7356      7358      7357      7356      7382
      7358      7356      7382      7348      7358      7356      7348      7358      7359
      7348      7358      7363      7356      7358      7359      7356      7358      7363
      7359      7358      7363      7358      7359      7360      7358      7359      7361
      7358      7359      7362      7360      7359      7361      7360      7359      7362
      7361      7359      7362      7358      7363      7364      7358      7363      7365
      7358      7363      7366      7364      7363      7365      7364      7363      7366
      7365      7363      7366      7363      7366      7367      7363      7366      7368
      7363      7366      7369      7367      7366      7368      7367      7366      7369
      7368      7366      7369      7346      7369      7366      7346      7369      7370
      7346      7369      7371      7366      7369      7370      7366      7369      7371
      7370      7369      7371      7340      7371      7369      7340      7371      7372
      7340      7371      7376      7369      7371      7372      7369      7371      7376
      7372      7371      7376      7371      7372      7373      7371      7372      7374
      7371      7372      7375      7373      7372      7374      7373      7372      7375
      7374      7372      7375      7371      7376      7377      7371      7376      7378
      7371      7376      7379      7377      7376      7378      7377      7376      7379
      7378      7376      7379      7333      7379      7376      7333      7379      7380
      7333      7379      7381      7376      7379      7380      7376      7379      7381
      7380      7379      7381      7356      7382      7383      7356      7382      7384
      7356      7382      7388      7383      7382      7384      7383      7382      7388
      7384      7382      7388      7382      7384      7385      7382      7384      7386
      7382      7384      7387      7385      7384      7386      7385      7384      7387
      7386      7384      7387      7382      7388      7389      7382      7388      7390
      7382      7388      7391      7389      7388      7390      7389      7388      7391
      7390      7388      7391      7388      7391      7392      7388      7391      7393
      7388      7391      7394      7392      7391      7393      7392      7391      7394
      7393      7391      7394      7391      7394      7395      7391      7394      7396
      7391      7394      7397      7395      7394      7396      7395      7394      7397
      7396      7394      7397      7394      7397      7398      7394      7397      7399
      7394      7397      7403      7398      7397      7399      7398      7397      7403
      7399      7397      7403      7397      7399      7400      7397      7399      7401
      7397      7399      7402      7400      7399      7401      7400      7399      7402
      7401      7399      7402      7397      7403      7404      7397      7403      7405
      7397      7403      7406      7404      7403      7405      7404      7403      7406
      7405      7403      7406      7408      7407      7409      7408      7407      7411
      7408      7407      7453      7409      7407      7411      7409      7407      7453
      7411      7407      7453      7407      7409      7410      7407      7411      7412
      7407      7411      7413      7407      7411      7414      7412      7411      7413
      7412      7411      7414      7413      7411      7414      7411      7414      7415
      7411      7414      7445      7415      7414      7445      7414      7415      7416
      7414      7415      7417      7416      7415      7417      7415      7417      7418
      7415      7417      7419      7415      7417      7420      7418      7417      7419
      7418      7417      7420      7419      7417      7420      7417      7420      7421
      7417      7420      7422      7417      7420      7443      7421      7420      7422
      7421      7420      7443      7422      7420      7443      7420      7422      7423
      7420      7422      7424      7420      7422      7432      7423      7422      7424
      7423      7422      7432      7424      7422      7432      7422      7424      7425
      7422      7424      7426      7422      7424      7427      7425      7424      7426
      7425      7424      7427      7426      7424      7427      7424      7427      7428
      7424      7427      7429      7424      7427      7430      7428      7427      7429
      7428      7427      7430      7429      7427      7430      7427      7430      7431
      7427      7430      7432      7427      7430      7456      7431      7430      7432
      7431      7430      7456      7432      7430      7456      7422      7432      7430
      7422      7432      7433      7422      7432      7437      7430      7432      7433
      7430      7432      7437      7433      7432      7437      7432      7433      7434
      7432      7433      7435      7432      7433      7436      7434      7433      7435
      7434      7433      7436      7435      7433      7436      7432      7437      7438
      7432      7437      7439      7432      7437      7440      7438      7437      7439
      7438      7437      7440      7439      7437      7440      7437      7440      7441
      7437      7440      7442      7437      7440      7443      7441      7440      7442
      7441      7440      7443      7442      7440      7443      7420      7443      7440
      7420      7443      7444      7420      7443      7445      7440      7443      7444
      7440      7443      7445      7444      7443      7445      7414      7445      7443
      7414      7445      7446      7414      7445      7450      7443      7445      7446
      7443      7445      7450      7446      7445      7450      7445      7446      7447
      7445      7446      7448      7445      7446      7449      7447      7446      7448
      7447      7446      7449      7448      7446      7449      7445      7450      7451
      7445      7450      7452      7445      7450      7453      7451      7450      7452
      7451      7450      7453      7452      7450      7453      7407      7453      7450
      7407      7453      7454      7407      7453      7455      7450      7453      7454
      7450      7453      7455      7454      7453      7455      7430      7456      7457
      7430      7456      7458      7430      7456      7462      7457      7456      7458
      7457      7456      7462      7458      7456      7462      7456      7458      7459
      7456      7458      7460      7456      7458      7461      7459      7458      7460
      7459      7458      7461      7460      7458      7461      7456      7462      7463
      7456      7462      7464      7456      7462      7465      7463      7462      7464
      7463      7462      7465      7464      7462      7465      7462      7465      7466
      7462      7465      7467      7462      7465      7468      7466      7465      7467
      7466      7465      7468      7467      7465      7468      7465      7468      7469
      7465      7468      7470      7465      7468      7471      7469      7468      7470
      7469      7468      7471      7470      7468      7471      7468      7471      7472
      7468      7471      7473      7468      7471      7477      7472      7471      7473
      7472      7471      7477      7473      7471      7477      7471      7473      7474
      7471      7473      7475      7471      7473      7476      7474      7473      7475
      7474      7473      7476      7475      7473      7476      7471      7477      7478
      7471      7477      7479      7471      7477      7480      7478      7477      7479
      7478      7477      7480      7479      7477      7480      7482      7481      7483
      7482      7481      7485      7482      7481      7527      7483      7481      7485
      7483      7481      7527      7485      7481      7527      7481      7483      7484
      7481      7485      7486      7481      7485      7487      7481      7485      7488
      7486      7485      7487      7486      7485      7488      7487      7485      7488
      7485      7488      7489      7485      7488      7519      7489      7488      7519
      7488      7489      7490      7488      7489      7491      7490      7489      7491
      7489      7491      7492      7489      7491      7493      7489      7491      7494
      7492      7491      7493      7492      7491      7494      7493      7491      7494
      7491      7494      7495      7491      7494      7496      7491      7494      7517
      7495      7494      7496      7495      7494      7517      7496      7494      7517
      7494      7496      7497      7494      7496      7498      7494      7496      7506
      7497      7496      7498      7497      7496      7506      7498      7496      7506
      7496      7498      7499      7496      7498      7500      7496      7498      7501
      7499      7498      7500      7499      7498      7501      7500      7498      7501
      7498      7501      7502      7498      7501      7503      7498      7501      7504
      7502      7501      7503      7502      7501      7504      7503      7501      7504
      7501      7504      7505      7501      7504      7506      7501      7504      7530
      7505      7504      7506      7505      7504      7530      7506      7504      7530
      7496      7506      7504      7496      7506      7507      7496      7506      7511
      7504      7506      7507      7504      7506      7511      7507      7506      7511
      7506      7507      7508      7506      7507      7509      7506      7507      7510
      7508      7507      7509      7508      7507      7510      7509      7507      7510
      7506      7511      7512      7506      7511      7513      7506      7511      7514
      7512      7511      7513      7512      7511      7514      7513      7511      7514
      7511      7514      7515      7511      7514      7516      7511      7514      7517
      7515      7514      7516      7515      7514      7517      7516      7514      7517
      7494      7517      7514      7494      7517      7518      7494      7517      7519
      7514      7517      7518      7514      7517      7519      7518      7517      7519
      7488      7519      7517      7488      7519      7520      7488      7519      7524
      7517      7519      7520      7517      7519      7524      7520      7519      7524
      7519      7520      7521      7519      7520      7522      7519      7520      7523
      7521      7520      7522      7521      7520      7523      7522      7520      7523
      7519      7524      7525      7519      7524      7526      7519      7524      7527
      7525      7524      7526      7525      7524      7527      7526      7524      7527
      7481      7527      7524      7481      7527      7528      7481      7527      7529
      7524      7527      7528      7524      7527      7529      7528      7527      7529
      7504      7530      7531      7504      7530      7532      7504      7530      7536
      7531      7530      7532      7531      7530      7536      7532      7530      7536
      7530      7532      7533      7530      7532      7534      7530      7532      7535
      7533      7532      7534      7533      7532      7535      7534      7532      7535
      7530      7536      7537      7530      7536      7538      7530      7536      7539
      7537      7536      7538      7537      7536      7539      7538      7536      7539
      7536      7539      7540      7536      7539      7541      7536      7539      7542
      7540      7539      7541      7540      7539      7542      7541      7539      7542
      7539      7542      7543      7539      7542      7544      7539      7542      7545
      7543      7542      7544      7543      7542      7545      7544      7542      7545
      7542      7545      7546      7542      7545      7547      7542      7545      7551
      7546      7545      7547      7546      7545      7551      7547      7545      7551
      7545      7547      7548      7545      7547      7549      7545      7547      7550
      7548      7547      7549      7548      7547      7550      7549      7547      7550
      7545      7551      7552      7545      7551      7553      7545      7551      7554
      7552      7551      7553      7552      7551      7554      7553      7551      7554
      7556      7555      7557      7556      7555      7559      7556      7555      7601
      7557      7555      7559      7557      7555      7601      7559      7555      7601
      7555      7557      7558      7555      7559      7560      7555      7559      7561
      7555      7559      7562      7560      7559      7561      7560      7559      7562
      7561      7559      7562      7559      7562      7563      7559      7562      7593
      7563      7562      7593      7562      7563      7564      7562      7563      7565
      7564      7563      7565      7563      7565      7566      7563      7565      7567
      7563      7565      7568      7566      7565      7567      7566      7565      7568
      7567      7565      7568      7565      7568      7569      7565      7568      7570
      7565      7568      7591      7569      7568      7570      7569      7568      7591
      7570      7568      7591      7568      7570      7571      7568      7570      7572
      7568      7570      7580      7571      7570      7572      7571      7570      7580
      7572      7570      7580      7570      7572      7573      7570      7572      7574
      7570      7572      7575      7573      7572      7574      7573      7572      7575
      7574      7572      7575      7572      7575      7576      7572      7575      7577
      7572      7575      7578      7576      7575      7577      7576      7575      7578
      7577      7575      7578      7575      7578      7579      7575      7578      7580
      7575      7578      7604      7579      7578      7580      7579      7578      7604
      7580      7578      7604      7570      7580      7578      7570      7580      7581
      7570      7580      7585      7578      7580      7581      7578      7580      7585
      7581      7580      7585      7580      7581      7582      7580      7581      7583
      7580      7581      7584      7582      7581      7583      7582      7581      7584
      7583      7581      7584      7580      7585      7586      7580      7585      7587
      7580      7585      7588      7586      7585      7587      7586      7585      7588
      7587      7585      7588      7585      7588      7589      7585      7588      7590
      7585      7588      7591      7589      7588      7590      7589      7588      7591
      7590      7588      7591      7568      7591      7588      7568      7591      7592
      7568      7591      7593      7588      7591      7592      7588      7591      7593
      7592      7591      7593      7562      7593      7591      7562      7593      7594
      7562      7593      7598      7591      7593      7594      7591      7593      7598
      7594      7593      7598      7593      7594      7595      7593      7594      7596
      7593      7594      7597      7595      7594      7596      7595      7594      7597
      7596      7594      7597      7593      7598      7599      7593      7598      7600
      7593      7598      7601      7599      7598      7600      7599      7598      7601
      7600      7598      7601      7555      7601      7598      7555      7601      7602
      7555      7601      7603      7598      7601      7602      7598      7601      7603
      7602      7601      7603      7578      7604      7605      7578      7604      7606
      7578      7604      7610      7605      7604      7606      7605      7604      7610
      7606      7604      7610      7604      7606      7607      7604      7606      7608
      7604      7606      7609      7607      7606      7608      7607      7606      7609
      7608      7606      7609      7604      7610      7611      7604      7610      7612
      7604      7610      7613      7611      7610      7612      7611      7610      7613
      7612      7610      7613      7610      7613      7614      7610      7613      7615
      7610      7613      7616      7614      7613      7615      7614      7613      7616
      7615      7613      7616      7613      7616      7617      7613      7616      7618
      7613      7616      7619      7617      7616      7618      7617      7616      7619
      7618      7616      7619      7616      7619      7620      7616      7619      7621
      7616      7619      7625      7620      7619      7621      7620      7619      7625
      7621      7619      7625      7619      7621      7622      7619      7621      7623
      7619      7621      7624      7622      7621      7623      7622      7621      7624
      7623      7621      7624      7619      7625      7626      7619      7625      7627
      7619      7625      7628      7626      7625      7627      7626      7625      7628
      7627      7625      7628      7630      7629      7631      7630      7629      7633
      7630      7629      7675      7631      7629      7633      7631      7629      7675
      7633      7629      7675      7629      7631      7632      7629      7633      7634
      7629      7633      7635      7629      7633      7636      7634      7633      7635
      7634      7633      7636      7635      7633      7636      7633      7636      7637
      7633      7636      7667      7637      7636      7667      7636      7637      7638
      7636      7637      7639      7638      7637      7639      7637      7639      7640
      7637      7639      7641      7637      7639      7642      7640      7639      7641
      7640      7639      7642      7641      7639      7642      7639      7642      7643
      7639      7642      7644      7639      7642      7665      7643      7642      7644
      7643      7642      7665      7644      7642      7665      7642      7644      7645
      7642      7644      7646      7642      7644      7654      7645      7644      7646
      7645      7644      7654      7646      7644      7654      7644      7646      7647
      7644      7646      7648      7644      7646      7649      7647      7646      7648
      7647      7646      7649      7648      7646      7649      7646      7649      7650
      7646      7649      7651      7646      7649      7652      7650      7649      7651
      7650      7649      7652      7651      7649      7652      7649      7652      7653
      7649      7652      7654      7649      7652      7678      7653      7652      7654
      7653      7652      7678      7654      7652      7678      7644      7654      7652
      7644      7654      7655      7644      7654      7659      7652      7654      7655
      7652      7654      7659      7655      7654      7659      7654      7655      7656
      7654      7655      7657      7654      7655      7658      7656      7655      7657
      7656      7655      7658      7657      7655      7658      7654      7659      7660
      7654      7659      7661      7654      7659      7662      7660      7659      7661
      7660      7659      7662      7661      7659      7662      7659      7662      7663
      7659      7662      7664      7659      7662      7665      7663      7662      7664
      7663      7662      7665      7664      7662      7665      7642      7665      7662
      7642      7665      7666      7642      7665      7667      7662      7665      7666
      7662      7665      7667      7666      7665      7667      7636      7667      7665
      7636      7667      7668      7636      7667      7672      7665      7667      7668
      7665      7667      7672      7668      7667      7672      7667      7668      7669
      7667      7668      7670      7667      7668      7671      7669      7668      7670
      7669      7668      7671      7670      7668      7671      7667      7672      7673
      7667      7672      7674      7667      7672      7675      7673      7672      7674
      7673      7672      7675      7674      7672      7675      7629      7675      7672
      7629      7675      7676      7629      7675      7677      7672      7675      7676
      7672      7675      7677      7676      7675      7677      7652      7678      7679
      7652      7678      7680      7652      7678      7684      7679      7678      7680
      7679      7678      7684      7680      7678      7684      7678      7680      7681
      7678      7680      7682      7678      7680      7683      7681      7680      7682
      7681      7680      7683      7682      7680      7683      7678      7684      7685
      7678      7684      7686      7678      7684      7687      7685      7684      7686
      7685      7684      7687      7686      7684      7687      7684      7687      7688
      7684      7687      7689      7684      7687      7690      7688      7687      7689
      7688      7687      7690      7689      7687      7690      7687      7690      7691
      7687      7690      7692      7687      7690      7693      7691      7690      7692
      7691      7690      7693      7692      7690      7693      7690      7693      7694
      7690      7693      7695      7690      7693      7699      7694      7693      7695
      7694      7693      7699      7695      7693      7699      7693      7695      7696
      7693      7695      7697      7693      7695      7698      7696      7695      7697
      7696      7695      7698      7697      7695      7698      7693      7699      7700
      7693      7699      7701      7693      7699      7702      7700      7699      7701
      7700      7699      7702      7701      7699      7702      7704      7703      7705
      7704      7703      7707      7704      7703      7749      7705      7703      7707
      7705      7703      7749      7707      7703      7749      7703      7705      7706
      7703      7707      7708      7703      7707      7709      7703      7707      7710
      7708      7707      7709      7708      7707      7710      7709      7707      7710
      7707      7710      7711      7707      7710      7741      7711      7710      7741
      7710      7711      7712      7710      7711      7713      7712      7711      7713
      7711      7713      7714      7711      7713      7715      7711      7713      7716
      7714      7713      7715      7714      7713      7716      7715      7713      7716
      7713      7716      7717      7713      7716      7718      7713      7716      7739
      7717      7716      7718      7717      7716      7739      7718      7716      7739
      7716      7718      7719      7716      7718      7720      7716      7718      7728
      7719      7718      7720      7719      7718      7728      7720      7718      7728
      7718      7720      7721      7718      7720      7722      7718      7720      7723
      7721      7720      7722      7721      7720      7723      7722      7720      7723
      7720      7723      7724      7720      7723      7725      7720      7723      7726
      7724      7723      7725      7724      7723      7726      7725      7723      7726
      7723      7726      7727      7723      7726      7728      7723      7726      7752
      7727      7726      7728      7727      7726      7752      7728      7726      7752
      7718      7728      7726      7718      7728      7729      7718      7728      7733
      7726      7728      7729      7726      7728      7733      7729      7728      7733
      7728      7729      7730      7728      7729      7731      7728      7729      7732
      7730      7729      7731      7730      7729      7732      7731      7729      7732
      7728      7733      7734      7728      7733      7735      7728      7733      7736
      7734      7733      7735      7734      7733      7736      7735      7733      7736
      7733      7736      7737      7733      7736      7738      7733      7736      7739
      7737      7736      7738      7737      7736      7739      7738      7736      7739
      7716      7739      7736      7716      7739      7740      7716      7739      7741
      7736      7739      7740      7736      7739      7741      7740      7739      7741
      7710      7741      7739      7710      7741      7742      7710      7741      7746
      7739      7741      7742      7739      7741      7746      7742      7741      7746
      7741      7742      7743      7741      7742      7744      7741      7742      7745
      7743      7742      7744      7743      7742      7745      7744      7742      7745
      7741      7746      7747      7741      7746      7748      7741      7746      7749
      7747      7746      7748      7747      7746      7749      7748      7746      7749
      7703      7749      7746      7703      7749      7750      7703      7749      7751
      7746      7749      7750      7746      7749      7751      7750      7749      7751
      7726      7752      7753      7726      7752      7754      7726      7752      7758
      7753      7752      7754      7753      7752      7758      7754      7752      7758
      7752      7754      7755      7752      7754      7756      7752      7754      7757
      7755      7754      7756      7755      7754      7757      7756      7754      7757
      7752      7758      7759      7752      7758      7760      7752      7758      7761
      7759      7758      7760      7759      7758      7761      7760      7758      7761
      7758      7761      7762      7758      7761      7763      7758      7761      7764
      7762      7761      7763      7762      7761      7764      7763      7761      7764
      7761      7764      7765      7761      7764      7766      7761      7764      7767
      7765      7764      7766      7765      7764      7767      7766      7764      7767
      7764      7767      7768      7764      7767      7769      7764      7767      7773
      7768      7767      7769      7768      7767      7773      7769      7767      7773
      7767      7769      7770      7767      7769      7771      7767      7769      7772
      7770      7769      7771      7770      7769      7772      7771      7769      7772
      7767      7773      7774      7767      7773      7775      7767      7773      7776
      7774      7773      7775      7774      7773      7776      7775      7773      7776
      7778      7777      7779      7778      7777      7781      7778      7777      7823
      7779      7777      7781      7779      7777      7823      7781      7777      7823
      7777      7779      7780      7777      7781      7782      7777      7781      7783
      7777      7781      7784      7782      7781      7783      7782      7781      7784
      7783      7781      7784      7781      7784      7785      7781      7784      7815
      7785      7784      7815      7784      7785      7786      7784      7785      7787
      7786      7785      7787      7785      7787      7788      7785      7787      7789
      7785      7787      7790      7788      7787      7789      7788      7787      7790
      7789      7787      7790      7787      7790      7791      7787      7790      7792
      7787      7790      7813      7791      7790      7792      7791      7790      7813
      7792      7790      7813      7790      7792      7793      7790      7792      7794
      7790      7792      7802      7793      7792      7794      7793      7792      7802
      7794      7792      7802      7792      7794      7795      7792      7794      7796
      7792      7794      7797      7795      7794      7796      7795      7794      7797
      7796      7794      7797      7794      7797      7798      7794      7797      7799
      7794      7797      7800      7798      7797      7799      7798      7797      7800
      7799      7797      7800      7797      7800      7801      7797      7800      7802
      7797      7800      7826      7801      7800      7802      7801      7800      7826
      7802      7800      7826      7792      7802      7800      7792      7802      7803
      7792      7802      7807      7800      7802      7803      7800      7802      7807
      7803      7802      7807      7802      7803      7804      7802      7803      7805
      7802      7803      7806      7804      7803      7805      7804      7803      7806
      7805      7803      7806      7802      7807      7808      7802      7807      7809
      7802      7807      7810      7808      7807      7809      7808      7807      7810
      7809      7807      7810      7807      7810      7811      7807      7810      7812
      7807      7810      7813      7811      7810      7812      7811      7810      7813
      7812      7810      7813      7790      7813      7810      7790      7813      7814
      7790      7813      7815      7810      7813      7814      7810      7813      7815
      7814      7813      7815      7784      7815      7813      7784      7815      7816
      7784      7815      7820      7813      7815      7816      7813      7815      7820
      7816      7815      7820      7815      7816      7817      7815      7816      7818
      7815      7816      7819      7817      7816      7818      7817      7816      7819
      7818      7816      7819      7815      7820      7821      7815      7820      7822
      7815      7820      7823      7821      7820      7822      7821      7820      7823
      7822      7820      7823      7777      7823      7820      7777      7823      7824
      7777      7823      7825      7820      7823      7824      7820      7823      7825
      7824      7823      7825      7800      7826      7827      7800      7826      7828
      7800      7826      7832      7827      7826      7828      7827      7826      7832
      7828      7826      7832      7826      7828      7829      7826      7828      7830
      7826      7828      7831      7829      7828      7830      7829      7828      7831
      7830      7828      7831      7826      7832      7833      7826      7832      7834
      7826      7832      7835      7833      7832      7834      7833      7832      7835
      7834      7832      7835      7832      7835      7836      7832      7835      7837
      7832      7835      7838      7836      7835      7837      7836      7835      7838
      7837      7835      7838      7835      7838      7839      7835      7838      7840
      7835      7838      7841      7839      7838      7840      7839      7838      7841
      7840      7838      7841      7838      7841      7842      7838      7841      7843
      7838      7841      7847      7842      7841      7843      7842      7841      7847
      7843      7841      7847      7841      7843      7844      7841      7843      7845
      7841      7843      7846      7844      7843      7845      7844      7843      7846
      7845      7843      7846      7841      7847      7848      7841      7847      7849
      7841      7847      7850      7848      7847      7849      7848      7847      7850
      7849      7847      7850      7852      7851      7853      7852      7851      7855
      7852      7851      7897      7853      7851      7855      7853      7851      7897
      7855      7851      7897      7851      7853      7854      7851      7855      7856
      7851      7855      7857      7851      7855      7858      7856      7855      7857
      7856      7855      7858      7857      7855      7858      7855      7858      7859
      7855      7858      7889      7859      7858      7889      7858      7859      7860
      7858      7859      7861      7860      7859      7861      7859      7861      7862
      7859      7861      7863      7859      7861      7864      7862      7861      7863
      7862      7861      7864      7863      7861      7864      7861      7864      7865
      7861      7864      7866      7861      7864      7887      7865      7864      7866
      7865      7864      7887      7866      7864      7887      7864      7866      7867
      7864      7866      7868      7864      7866      7876      7867      7866      7868
      7867      7866      7876      7868      7866      7876      7866      7868      7869
      7866      7868      7870      7866      7868      7871      7869      7868      7870
      7869      7868      7871      7870      7868      7871      7868      7871      7872
      7868      7871      7873      7868      7871      7874      7872      7871      7873
      7872      7871      7874      7873      7871      7874      7871      7874      7875
      7871      7874      7876      7871      7874      7900      7875      7874      7876
      7875      7874      7900      7876      7874      7900      7866      7876      7874
      7866      7876      7877      7866      7876      7881      7874      7876      7877
      7874      7876      7881      7877      7876      7881      7876      7877      7878
      7876      7877      7879      7876      7877      7880      7878      7877      7879
      7878      7877      7880      7879      7877      7880      7876      7881      7882
      7876      7881      7883      7876      7881      7884      7882      7881      7883
      7882      7881      7884      7883      7881      7884      7881      7884      7885
      7881      7884      7886      7881      7884      7887      7885      7884      7886
      7885      7884      7887      7886      7884      7887      7864      7887      7884
      7864      7887      7888      7864      7887      7889      7884      7887      7888
      7884      7887      7889      7888      7887      7889      7858      7889      7887
      7858      7889      7890      7858      7889      7894      7887      7889      7890
      7887      7889      7894      7890      7889      7894      7889      7890      7891
      7889      7890      7892      7889      7890      7893      7891      7890      7892
      7891      7890      7893      7892      7890      7893      7889      7894      7895
      7889      7894      7896      7889      7894      7897      7895      7894      7896
      7895      7894      7897      7896      7894      7897      7851      7897      7894
      7851      7897      7898      7851      7897      7899      7894      7897      7898
      7894      7897      7899      7898      7897      7899      7874      7900      7901
      7874      7900      7902      7874      7900      7906      7901      7900      7902
      7901      7900      7906      7902      7900      7906      7900      7902      7903
      7900      7902      7904      7900      7902      7905      7903      7902      7904
      7903      7902      7905      7904      7902      7905      7900      7906      7907
      7900      7906      7908      7900      7906      7909      7907      7906      7908
      7907      7906      7909      7908      7906      7909      7906      7909      7910
      7906      7909      7911      7906      7909      7912      7910      7909      7911
      7910      7909      7912      7911      7909      7912      7909      7912      7913
      7909      7912      7914      7909      7912      7915      7913      7912      7914
      7913      7912      7915      7914      7912      7915      7912      7915      7916
      7912      7915      7917      7912      7915      7921      7916      7915      7917
      7916      7915      7921      7917      7915      7921      7915      7917      7918
      7915      7917      7919      7915      7917      7920      7918      7917      7919
      7918      7917      7920      7919      7917      7920      7915      7921      7922
      7915      7921      7923      7915      7921      7924      7922      7921      7923
      7922      7921      7924      7923      7921      7924      7926      7925      7927
      7926      7925      7929      7926      7925      7971      7927      7925      7929
      7927      7925      7971      7929      7925      7971      7925      7927      7928
      7925      7929      7930      7925      7929      7931      7925      7929      7932
      7930      7929      7931      7930      7929      7932      7931      7929      7932
      7929      7932      7933      7929      7932      7963      7933      7932      7963
      7932      7933      7934      7932      7933      7935      7934      7933      7935
      7933      7935      7936      7933      7935      7937      7933      7935      7938
      7936      7935      7937      7936      7935      7938      7937      7935      7938
      7935      7938      7939      7935      7938      7940      7935      7938      7961
      7939      7938      7940      7939      7938      7961      7940      7938      7961
      7938      7940      7941      7938      7940      7942      7938      7940      7950
      7941      7940      7942      7941      7940      7950      7942      7940      7950
      7940      7942      7943      7940      7942      7944      7940      7942      7945
      7943      7942      7944      7943      7942      7945      7944      7942      7945
      7942      7945      7946      7942      7945      7947      7942      7945      7948
      7946      7945      7947      7946      7945      7948      7947      7945      7948
      7945      7948      7949      7945      7948      7950      7945      7948      7974
      7949      7948      7950      7949      7948      7974      7950      7948      7974
      7940      7950      7948      7940      7950      7951      7940      7950      7955
      7948      7950      7951      7948      7950      7955      7951      7950      7955
      7950      7951      7952      7950      7951      7953      7950      7951      7954
      7952      7951      7953      7952      7951      7954      7953      7951      7954
      7950      7955      7956      7950      7955      7957      7950      7955      7958
      7956      7955      7957      7956      7955      7958      7957      7955      7958
      7955      7958      7959      7955      7958      7960      7955      7958      7961
      7959      7958      7960      7959      7958      7961      7960      7958      7961
      7938      7961      7958      7938      7961      7962      7938      7961      7963
      7958      7961      7962      7958      7961      7963      7962      7961      7963
      7932      7963      7961      7932      7963      7964      7932      7963      7968
      7961      7963      7964      7961      7963      7968      7964      7963      7968
      7963      7964      7965      7963      7964      7966      7963      7964      7967
      7965      7964      7966      7965      7964      7967      7966      7964      7967
      7963      7968      7969      7963      7968      7970      7963      7968      7971
      7969      7968      7970      7969      7968      7971      7970      7968      7971
      7925      7971      7968      7925      7971      7972      7925      7971      7973
      7968      7971      7972      7968      7971      7973      7972      7971      7973
      7948      7974      7975      7948      7974      7976      7948      7974      7980
      7975      7974      7976      7975      7974      7980      7976      7974      7980
      7974      7976      7977      7974      7976      7978      7974      7976      7979
      7977      7976      7978      7977      7976      7979      7978      7976      7979
      7974      7980      7981      7974      7980      7982      7974      7980      7983
      7981      7980      7982      7981      7980      7983      7982      7980      7983
      7980      7983      7984      7980      7983      7985      7980      7983      7986
      7984      7983      7985      7984      7983      7986      7985      7983      7986
      7983      7986      7987      7983      7986      7988      7983      7986      7989
      7987      7986      7988      7987      7986      7989      7988      7986      7989
      7986      7989      7990      7986      7989      7991      7986      7989      7995
      7990      7989      7991      7990      7989      7995      7991      7989      7995
      7989      7991      7992      7989      7991      7993      7989      7991      7994
      7992      7991      7993      7992      7991      7994      7993      7991      7994
      7989      7995      7996      7989      7995      7997      7989      7995      7998
      7996      7995      7997      7996      7995      7998      7997      7995      7998
      8000      7999      8001      8000      7999      8003      8000      7999      8045
      8001      7999      8003      8001      7999      8045      8003      7999      8045
      7999      8001      8002      7999      8003      8004      7999      8003      8005
      7999      8003      8006      8004      8003      8005      8004      8003      8006
      8005      8003      8006      8003      8006      8007      8003      8006      8037
      8007      8006      8037      8006      8007      8008      8006      8007      8009
      8008      8007      8009      8007      8009      8010      8007      8009      8011
      8007      8009      8012      8010      8009      8011      8010      8009      8012
      8011      8009      8012      8009      8012      8013      8009      8012      8014
      8009      8012      8035      8013      8012      8014      8013      8012      8035
      8014      8012      8035      8012      8014      8015      8012      8014      8016
      8012      8014      8024      8015      8014      8016      8015      8014      8024
      8016      8014      8024      8014      8016      8017      8014      8016      8018
      8014      8016      8019      8017      8016      8018      8017      8016      8019
      8018      8016      8019      8016      8019      8020      8016      8019      8021
      8016      8019      8022      8020      8019      8021      8020      8019      8022
      8021      8019      8022      8019      8022      8023      8019      8022      8024
      8019      8022      8048      8023      8022      8024      8023      8022      8048
      8024      8022      8048      8014      8024      8022      8014      8024      8025
      8014      8024      8029      8022      8024      8025      8022      8024      8029
      8025      8024      8029      8024      8025      8026      8024      8025      8027
      8024      8025      8028      8026      8025      8027      8026      8025      8028
      8027      8025      8028      8024      8029      8030      8024      8029      8031
      8024      8029      8032      8030      8029      8031      8030      8029      8032
      8031      8029      8032      8029      8032      8033      8029      8032      8034
      8029      8032      8035      8033      8032      8034      8033      8032      8035
      8034      8032      8035      8012      8035      8032      8012      8035      8036
      8012      8035      8037      8032      8035      8036      8032      8035      8037
      8036      8035      8037      8006      8037      8035      8006      8037      8038
      8006      8037      8042      8035      8037      8038      8035      8037      8042
      8038      8037      8042      8037      8038      8039      8037      8038      8040
      8037      8038      8041      8039      8038      8040      8039      8038      8041
      8040      8038      8041      8037      8042      8043      8037      8042      8044
      8037      8042      8045      8043      8042      8044      8043      8042      8045
      8044      8042      8045      7999      8045      8042      7999      8045      8046
      7999      8045      8047      8042      8045      8046      8042      8045      8047
      8046      8045      8047      8022      8048      8049      8022      8048      8050
      8022      8048      8054      8049      8048      8050      8049      8048      8054
      8050      8048      8054      8048      8050      8051      8048      8050      8052
      8048      8050      8053      8051      8050      8052      8051      8050      8053
      8052      8050      8053      8048      8054      8055      8048      8054      8056
      8048      8054      8057      8055      8054      8056      8055      8054      8057
      8056      8054      8057      8054      8057      8058      8054      8057      8059
      8054      8057      8060      8058      8057      8059      8058      8057      8060
      8059      8057      8060      8057      8060      8061      8057      8060      8062
      8057      8060      8063      8061      8060      8062      8061      8060      8063
      8062      8060      8063      8060      8063      8064      8060      8063      8065
      8060      8063      8069      8064      8063      8065      8064      8063      8069
      8065      8063      8069      8063      8065      8066      8063      8065      8067
      8063      8065      8068      8066      8065      8067      8066      8065      8068
      8067      8065      8068      8063      8069      8070      8063      8069      8071
      8063      8069      8072      8070      8069      8071      8070      8069      8072
      8071      8069      8072      8074      8073      8075      8074      8073      8077
      8074      8073      8119      8075      8073      8077      8075      8073      8119
      8077      8073      8119      8073      8075      8076      8073      8077      8078
      8073      8077      8079      8073      8077      8080      8078      8077      8079
      8078      8077      8080      8079      8077      8080      8077      8080      8081
      8077      8080      8111      8081      8080      8111      8080      8081      8082
      8080      8081      8083      8082      8081      8083      8081      8083      8084
      8081      8083      8085      8081      8083      8086      8084      8083      8085
      8084      8083      8086      8085      8083      8086      8083      8086      8087
      8083      8086      8088      8083      8086      8109      8087      8086      8088
      8087      8086      8109      8088      8086      8109      8086      8088      8089
      8086      8088      8090      8086      8088      8098      8089      8088      8090
      8089      8088      8098      8090      8088      8098      8088      8090      8091
      8088      8090      8092      8088      8090      8093      8091      8090      8092
      8091      8090      8093      8092      8090      8093      8090      8093      8094
      8090      8093      8095      8090      8093      8096      8094      8093      8095
      8094      8093      8096      8095      8093      8096      8093      8096      8097
      8093      8096      8098      8093      8096      8122      8097      8096      8098
      8097      8096      8122      8098      8096      8122      8088      8098      8096
      8088      8098      8099      8088      8098      8103      8096      8098      8099
      8096      8098      8103      8099      8098      8103      8098      8099      8100
      8098      8099      8101      8098      8099      8102      8100      8099      8101
      8100      8099      8102      8101      8099      8102      8098      8103      8104
      8098      8103      8105      8098      8103      8106      8104      8103      8105
      8104      8103      8106      8105      8103      8106      8103      8106      8107
      8103      8106      8108      8103      8106      8109      8107      8106      8108
      8107      8106      8109      8108      8106      8109      8086      8109      8106
      8086      8109      8110      8086      8109      8111      8106      8109      8110
      8106      8109      8111      8110      8109      8111      8080      8111      8109
      8080      8111      8112      8080      8111      8116      8109      8111      8112
      8109      8111      8116      8112      8111      8116      8111      8112      8113
      8111      8112      8114      8111      8112      8115      8113      8112      8114
      8113      8112      8115      8114      8112      8115      8111      8116      8117
      8111      8116      8118      8111      8116      8119      8117      8116      8118
      8117      8116      8119      8118      8116      8119      8073      8119      8116
      8073      8119      8120      8073      8119      8121      8116      8119      8120
      8116      8119      8121      8120      8119      8121      8096      8122      8123
      8096      8122      8124      8096      8122      8128      8123      8122      8124
      8123      8122      8128      8124      8122      8128      8122      8124      8125
      8122      8124      8126      8122      8124      8127      8125      8124      8126
      8125      8124      8127      8126      8124      8127      8122      8128      8129
      8122      8128      8130      8122      8128      8131      8129      8128      8130
      8129      8128      8131      8130      8128      8131      8128      8131      8132
      8128      8131      8133      8128      8131      8134      8132      8131      8133
      8132      8131      8134      8133      8131      8134      8131      8134      8135
      8131      8134      8136      8131      8134      8137      8135      8134      8136
      8135      8134      8137      8136      8134      8137      8134      8137      8138
      8134      8137      8139      8134      8137      8143      8138      8137      8139
      8138      8137      8143      8139      8137      8143      8137      8139      8140
      8137      8139      8141      8137      8139      8142      8140      8139      8141
      8140      8139      8142      8141      8139      8142      8137      8143      8144
      8137      8143      8145      8137      8143      8146      8144      8143      8145
      8144      8143      8146      8145      8143      8146      8148      8147      8149
      8148      8147      8151      8148      8147      8193      8149      8147      8151
      8149      8147      8193      8151      8147      8193      8147      8149      8150
      8147      8151      8152      8147      8151      8153      8147      8151      8154
      8152      8151      8153      8152      8151      8154      8153      8151      8154
      8151      8154      8155      8151      8154      8185      8155      8154      8185
      8154      8155      8156      8154      8155      8157      8156      8155      8157
      8155      8157      8158      8155      8157      8159      8155      8157      8160
      8158      8157      8159      8158      8157      8160      8159      8157      8160
      8157      8160      8161      8157      8160      8162      8157      8160      8183
      8161      8160      8162      8161      8160      8183      8162      8160      8183
      8160      8162      8163      8160      8162      8164      8160      8162      8172
      8163      8162      8164      8163      8162      8172      8164      8162      8172
      8162      8164      8165      8162      8164      8166      8162      8164      8167
      8165      8164      8166      8165      8164      8167      8166      8164      8167
      8164      8167      8168      8164      8167      8169      8164      8167      8170
      8168      8167      8169      8168      8167      8170      8169      8167      8170
      8167      8170      8171      8167      8170      8172      8167      8170      8196
      8171      8170      8172      8171      8170      8196      8172      8170      8196
      8162      8172      8170      8162      8172      8173      8162      8172      8177
      8170      8172      8173      8170      8172      8177      8173      8172      8177
      8172      8173      8174      8172      8173      8175      8172      8173      8176
      8174      8173      8175      8174      8173      8176      8175      8173      8176
      8172      8177      8178      8172      8177      8179      8172      8177      8180
      8178      8177      8179      8178      8177      8180      8179      8177      8180
      8177      8180      8181      8177      8180      8182      8177      8180      8183
      8181      8180      8182      8181      8180      8183      8182      8180      8183
      8160      8183      8180      8160      8183      8184      8160      8183      8185
      8180      8183      8184      8180      8183      8185      8184      8183      8185
      8154      8185      8183      8154      8185      8186      8154      8185      8190
      8183      8185      8186      8183      8185      8190      8186      8185      8190
      8185      8186      8187      8185      8186      8188      8185      8186      8189
      8187      8186      8188      8187      8186      8189      8188      8186      8189
      8185      8190      8191      8185      8190      8192      8185      8190      8193
      8191      8190      8192      8191      8190      8193      8192      8190      8193
      8147      8193      8190      8147      8193      8194      8147      8193      8195
      8190      8193      8194      8190      8193      8195      8194      8193      8195
      8170      8196      8197      8170      8196      8198      8170      8196      8202
      8197      8196      8198      8197      8196      8202      8198      8196      8202
      8196      8198      8199      8196      8198      8200      8196      8198      8201
      8199      8198      8200      8199      8198      8201      8200      8198      8201
      8196      8202      8203      8196      8202      8204      8196      8202      8205
      8203      8202      8204      8203      8202      8205      8204      8202      8205
      8202      8205      8206      8202      8205      8207      8202      8205      8208
      8206      8205      8207      8206      8205      8208      8207      8205      8208
      8205      8208      8209      8205      8208      8210      8205      8208      8211
      8209      8208      8210      8209      8208      8211      8210      8208      8211
      8208      8211      8212      8208      8211      8213      8208      8211      8217
      8212      8211      8213      8212      8211      8217      8213      8211      8217
      8211      8213      8214      8211      8213      8215      8211      8213      8216
      8214      8213      8215      8214      8213      8216      8215      8213      8216
      8211      8217      8218      8211      8217      8219      8211      8217      8220
      8218      8217      8219      8218      8217      8220      8219      8217      8220
      8222      8221      8223      8222      8221      8225      8222      8221      8267
      8223      8221      8225      8223      8221      8267      8225      8221      8267
      8221      8223      8224      8221      8225      8226      8221      8225      8227
      8221      8225      8228      8226      8225      8227      8226      8225      8228
      8227      8225      8228      8225      8228      8229      8225      8228      8259
      8229      8228      8259      8228      8229      8230      8228      8229      8231
      8230      8229      8231      8229      8231      8232      8229      8231      8233
      8229      8231      8234      8232      8231      8233      8232      8231      8234
      8233      8231      8234      8231      8234      8235      8231      8234      8236
      8231      8234      8257      8235      8234      8236      8235      8234      8257
      8236      8234      8257      8234      8236      8237      8234      8236      8238
      8234      8236      8246      8237      8236      8238      8237      8236      8246
      8238      8236      8246      8236      8238      8239      8236      8238      8240
      8236      8238      8241      8239      8238      8240      8239      8238      8241
      8240      8238      8241      8238      8241      8242      8238      8241      8243
      8238      8241      8244      8242      8241      8243      8242      8241      8244
      8243      8241      8244      8241      8244      8245      8241      8244      8246
      8241      8244      8270      8245      8244      8246      8245      8244      8270
      8246      8244      8270      8236      8246      8244      8236      8246      8247
      8236      8246      8251      8244      8246      8247      8244      8246      8251
      8247      8246      8251      8246      8247      8248      8246      8247      8249
      8246      8247      8250      8248      8247      8249      8248      8247      8250
      8249      8247      8250      8246      8251      8252      8246      8251      8253
      8246      8251      8254      8252      8251      8253      8252      8251      8254
      8253      8251      8254      8251      8254      8255      8251      8254      8256
      8251      8254      8257      8255      8254      8256      8255      8254      8257
      8256      8254      8257      8234      8257      8254      8234      8257      8258
      8234      8257      8259      8254      8257      8258      8254      8257      8259
      8258      8257      8259      8228      8259      8257      8228      8259      8260
      8228      8259      8264      8257      8259      8260      8257      8259      8264
      8260      8259      8264      8259      8260      8261      8259      8260      8262
      8259      8260      8263      8261      8260      8262      8261      8260      8263
      8262      8260      8263      8259      8264      8265      8259      8264      8266
      8259      8264      8267      8265      8264      8266      8265      8264      8267
      8266      8264      8267      8221      8267      8264      8221      8267      8268
      8221      8267      8269      8264      8267      8268      8264      8267      8269
      8268      8267      8269      8244      8270      8271      8244      8270      8272
      8244      8270      8276      8271      8270      8272      8271      8270      8276
      8272      8270      8276      8270      8272      8273      8270      8272      8274
      8270      8272      8275      8273      8272      8274      8273      8272      8275
      8274      8272      8275      8270      8276      8277      8270      8276      8278
      8270      8276      8279      8277      8276      8278      8277      8276      8279
      8278      8276      8279      8276      8279      8280      8276      8279      8281
      8276      8279      8282      8280      8279      8281      8280      8279      8282
      8281      8279      8282      8279      8282      8283      8279      8282      8284
      8279      8282      8285      8283      8282      8284      8283      8282      8285
      8284      8282      8285      8282      8285      8286      8282      8285      8287
      8282      8285      8291      8286      8285      8287      8286      8285      8291
      8287      8285      8291      8285      8287      8288      8285      8287      8289
      8285      8287      8290      8288      8287      8289      8288      8287      8290
      8289      8287      8290      8285      8291      8292      8285      8291      8293
      8285      8291      8294      8292      8291      8293      8292      8291      8294
      8293      8291      8294      8296      8295      8297      8296      8295      8299
      8296      8295      8341      8297      8295      8299      8297      8295      8341
      8299      8295      8341      8295      8297      8298      8295      8299      8300
      8295      8299      8301      8295      8299      8302      8300      8299      8301
      8300      8299      8302      8301      8299      8302      8299      8302      8303
      8299      8302      8333      8303      8302      8333      8302      8303      8304
      8302      8303      8305      8304      8303      8305      8303      8305      8306
      8303      8305      8307      8303      8305      8308      8306      8305      8307
      8306      8305      8308      8307      8305      8308      8305      8308      8309
      8305      8308      8310      8305      8308      8331      8309      8308      8310
      8309      8308      8331      8310      8308      8331      8308      8310      8311
      8308      8310      8312      8308      8310      8320      8311      8310      8312
      8311      8310      8320      8312      8310      8320      8310      8312      8313
      8310      8312      8314      8310      8312      8315      8313      8312      8314
      8313      8312      8315      8314      8312      8315      8312      8315      8316
      8312      8315      8317      8312      8315      8318      8316      8315      8317
      8316      8315      8318      8317      8315      8318      8315      8318      8319
      8315      8318      8320      8315      8318      8344      8319      8318      8320
      8319      8318      8344      8320      8318      8344      8310      8320      8318
      8310      8320      8321      8310      8320      8325      8318      8320      8321
      8318      8320      8325      8321      8320      8325      8320      8321      8322
      8320      8321      8323      8320      8321      8324      8322      8321      8323
      8322      8321      8324      8323      8321      8324      8320      8325      8326
      8320      8325      8327      8320      8325      8328      8326      8325      8327
      8326      8325      8328      8327      8325      8328      8325      8328      8329
      8325      8328      8330      8325      8328      8331      8329      8328      8330
      8329      8328      8331      8330      8328      8331      8308      8331      8328
      8308      8331      8332      8308      8331      8333      8328      8331      8332
      8328      8331      8333      8332      8331      8333      8302      8333      8331
      8302      8333      8334      8302      8333      8338      8331      8333      8334
      8331      8333      8338      8334      8333      8338      8333      8334      8335
      8333      8334      8336      8333      8334      8337      8335      8334      8336
      8335      8334      8337      8336      8334      8337      8333      8338      8339
      8333      8338      8340      8333      8338      8341      8339      8338      8340
      8339      8338      8341      8340      8338      8341      8295      8341      8338
      8295      8341      8342      8295      8341      8343      8338      8341      8342
      8338      8341      8343      8342      8341      8343      8318      8344      8345
      8318      8344      8346      8318      8344      8350      8345      8344      8346
      8345      8344      8350      8346      8344      8350      8344      8346      8347
      8344      8346      8348      8344      8346      8349      8347      8346      8348
      8347      8346      8349      8348      8346      8349      8344      8350      8351
      8344      8350      8352      8344      8350      8353      8351      8350      8352
      8351      8350      8353      8352      8350      8353      8350      8353      8354
      8350      8353      8355      8350      8353      8356      8354      8353      8355
      8354      8353      8356      8355      8353      8356      8353      8356      8357
      8353      8356      8358      8353      8356      8359      8357      8356      8358
      8357      8356      8359      8358      8356      8359      8356      8359      8360
      8356      8359      8361      8356      8359      8365      8360      8359      8361
      8360      8359      8365      8361      8359      8365      8359      8361      8362
      8359      8361      8363      8359      8361      8364      8362      8361      8363
      8362      8361      8364      8363      8361      8364      8359      8365      8366
      8359      8365      8367      8359      8365      8368      8366      8365      8367
      8366      8365      8368      8367      8365      8368      8370      8369      8371
      8370      8369      8372      8370      8369      8373      8371      8369      8372
      8371      8369      8373      8372      8369      8373      8369      8373      8374
      8369      8373      8375      8369      8373      8378      8374      8373      8375
      8374      8373      8378      8375      8373      8378      8373      8375      8376
      8373      8375      8377      8376      8375      8377      8373      8378      8379
      8373      8378      8380      8373      8378      8384      8379      8378      8380
      8379      8378      8384      8380      8378      8384      8382      8381      8383
      8382      8381      8384      8382      8381      8385      8383      8381      8384
      8383      8381      8385      8384      8381      8385      8378      8384      8381
      8381      8385      8386      8385      8386      8387      8385      8386      8388
      8385      8386      8389      8387      8386      8388      8387      8386      8389
      8388      8386      8389      8386      8389      8390      8386      8389      8391
      8386      8389      8397      8390      8389      8391      8390      8389      8397
      8391      8389      8397      8389      8391      8392      8391      8392      8393
      8391      8392      8394      8393      8392      8394      8392      8394      8395
      8392      8394      8396      8392      8394      8406      8395      8394      8396
      8395      8394      8406      8396      8394      8406      8389      8397      8398
      8389      8397      8399      8389      8397      8400      8398      8397      8399
      8398      8397      8400      8399      8397      8400      8397      8400      8401
      8400      8401      8402      8400      8401      8403      8402      8401      8403
      8401      8403      8404      8401      8403      8405      8401      8403      8453
      8404      8403      8405      8404      8403      8453      8405      8403      8453
      8394      8406      8407      8394      8406      8408      8394      8406      8409
      8407      8406      8408      8407      8406      8409      8408      8406      8409
      8406      8409      8410      8406      8409      8411      8406      8409      8412
      8410      8409      8411      8410      8409      8412      8411      8409      8412
      8409      8412      8413      8409      8412      8414      8409      8412      8415
      8413      8412      8414      8413      8412      8415      8414      8412      8415
      8412      8415      8416      8412      8415      8417      8412      8415      8418
      8416      8415      8417      8416      8415      8418      8417      8415      8418
      8415      8418      8419      8415      8418      8420      8415      8418      8421
      8419      8418      8420      8419      8418      8421      8420      8418      8421
      8418      8421      8422      8418      8421      8423      8418      8421      8424
      8422      8421      8423      8422      8421      8424      8423      8421      8424
      8421      8424      8425      8421      8424      8426      8425      8424      8426
      8424      8426      8427      8424      8426      8428      8427      8426      8428
      8426      8428      8429      8426      8428      8430      8426      8428      8431
      8429      8428      8430      8429      8428      8431      8430      8428      8431
      8428      8431      8432      8428      8431      8433      8428      8431      8434
      8432      8431      8433      8432      8431      8434      8433      8431      8434
      8431      8434      8435      8431      8434      8436      8431      8434      8437
      8435      8434      8436      8435      8434      8437      8436      8434      8437
      8434      8437      8438      8434      8437      8439      8434      8437      8440
      8438      8437      8439      8438      8437      8440      8439      8437      8440
      8437      8440      8441      8437      8440      8442      8437      8440      8443
      8441      8440      8442      8441      8440      8443      8442      8440      8443
      8440      8443      8444      8440      8443      8445      8440      8443      8446
      8444      8443      8445      8444      8443      8446      8445      8443      8446
      8443      8446      8447      8443      8446      8448      8443      8446      8449
      8447      8446      8448      8447      8446      8449      8448      8446      8449
      8446      8449      8450      8446      8449      8451      8446      8449      8452
      8450      8449      8451      8450      8449      8452      8451      8449      8452
      8403      8453      8454      8403      8453      8455      8403      8453      8456
      8454      8453      8455      8454      8453      8456      8455      8453      8456
      8453      8456      8457      8453      8456      8458      8453      8456      8459
      8457      8456      8458      8457      8456      8459      8458      8456      8459
      8456      8459      8460      8456      8459      8461      8456      8459      8462
      8460      8459      8461      8460      8459      8462      8461      8459      8462
      8459      8462      8463      8459      8462      8464      8459      8462      8465
      8463      8462      8464      8463      8462      8465      8464      8462      8465
      8462      8465      8466      8462      8465      8467      8462      8465      8468
      8466      8465      8467      8466      8465      8468      8467      8465      8468
      8465      8468      8469      8465      8468      8470      8465      8468      8471
      8469      8468      8470      8469      8468      8471      8470      8468      8471
      8468      8471      8472      8468      8471      8473      8468      8471      8474
      8472      8471      8473      8472      8471      8474      8473      8471      8474
      8471      8474      8475      8471      8474      8476      8471      8474      8477
      8475      8474      8476      8475      8474      8477      8476      8474      8477
      8474      8477      8478      8474      8477      8479      8474      8477      8480
      8478      8477      8479      8478      8477      8480      8479      8477      8480
      8477      8480      8481      8477      8480      8482      8477      8480      8483
      8481      8480      8482      8481      8480      8483      8482      8480      8483
      8480      8483      8484      8480      8483      8485      8480      8483      8486
      8484      8483      8485      8484      8483      8486      8485      8483      8486
      8483      8486      8487      8483      8486      8488      8483      8486      8489
      8487      8486      8488      8487      8486      8489      8488      8486      8489
      8486      8489      8490      8486      8489      8491      8486      8489      8492
      8490      8489      8491      8490      8489      8492      8491      8489      8492
      8489      8492      8493      8489      8492      8494      8489      8492      8495
      8493      8492      8494      8493      8492      8495      8494      8492      8495
      8497      8496      8501      8497      8496      8505      8497      8496      8509
      8501      8496      8505      8501      8496      8509      8505      8496      8509
      8496      8497      8498      8496      8497      8499      8496      8497      8500
      8498      8497      8499      8498      8497      8500      8499      8497      8500
      8496      8501      8502      8496      8501      8503      8496      8501      8504
      8502      8501      8503      8502      8501      8504      8503      8501      8504
      8496      8505      8506      8496      8505      8507      8496      8505      8508
      8506      8505      8507      8506      8505      8508      8507      8505      8508
      8496      8509      8510      8496      8509      8511      8496      8509      8512
      8510      8509      8511      8510      8509      8512      8511      8509      8512
      8509      8512      8513      8509      8512      8514      8509      8512      8519
      8513      8512      8514      8513      8512      8519      8514      8512      8519
      8516      8515      8517      8516      8515      8518      8516      8515      8519
      8517      8515      8518      8517      8515      8519      8518      8515      8519
      8515      8518      8520      8512      8519      8515      8518      8520      8521
      8518      8520      8522      8518      8520      8525      8521      8520      8522
      8521      8520      8525      8522      8520      8525      8524      8523      8525
      8524      8523      8575      8525      8523      8575      8520      8525      8523
      8520      8525      8526      8520      8525      8527      8523      8525      8526
      8523      8525      8527      8526      8525      8527      8525      8527      8528
      8525      8527      8529      8525      8527      8531      8528      8527      8529
      8528      8527      8531      8529      8527      8531      8527      8529      8530
      8527      8531      8532      8527      8531      8533      8532      8531      8533
      8531      8533      8534      8531      8533      8535      8534      8533      8535
      8533      8535      8536      8533      8535      8537      8533      8535      8538
      8536      8535      8537      8536      8535      8538      8537      8535      8538
      8535      8538      8539      8535      8538      8540      8535      8538      8541
      8539      8538      8540      8539      8538      8541      8540      8538      8541
      8538      8541      8542      8538      8541      8543      8538      8541      8544
      8542      8541      8543      8542      8541      8544      8543      8541      8544
      8541      8544      8545      8541      8544      8546      8541      8544      8547
      8545      8544      8546      8545      8544      8547      8546      8544      8547
      8544      8547      8548      8544      8547      8549      8544      8547      8550
      8548      8547      8549      8548      8547      8550      8549      8547      8550
      8547      8550      8551      8547      8550      8552      8547      8550      8553
      8551      8550      8552      8551      8550      8553      8552      8550      8553
      8550      8553      8554      8550      8553      8555      8550      8553      8556
      8554      8553      8555      8554      8553      8556      8555      8553      8556
      8553      8556      8557      8553      8556      8558      8553      8556      8559
      8557      8556      8558      8557      8556      8559      8558      8556      8559
      8556      8559      8560      8556      8559      8561      8556      8559      8562
      8560      8559      8561      8560      8559      8562      8561      8559      8562
      8559      8562      8563      8559      8562      8564      8559      8562      8565
      8563      8562      8564      8563      8562      8565      8564      8562      8565
      8562      8565      8566      8562      8565      8567      8562      8565      8568
      8566      8565      8567      8566      8565      8568      8567      8565      8568
      8565      8568      8569      8565      8568      8570      8565      8568      8571
      8569      8568      8570      8569      8568      8571      8570      8568      8571
      8568      8571      8572      8568      8571      8573      8568      8571      8574
      8572      8571      8573      8572      8571      8574      8573      8571      8574
      8523      8575      8576      8523      8575      8577      8576      8575      8577
      8575      8577      8578      8575      8577      8579      8575      8577      8580
      8578      8577      8579      8578      8577      8580      8579      8577      8580
      8577      8580      8581      8577      8580      8582      8577      8580      8583
      8581      8580      8582      8581      8580      8583      8582      8580      8583
      8580      8583      8584      8580      8583      8585      8580      8583      8586
      8584      8583      8585      8584      8583      8586      8585      8583      8586
      8583      8586      8587      8583      8586      8588      8583      8586      8589
      8587      8586      8588      8587      8586      8589      8588      8586      8589
      8586      8589      8590      8586      8589      8591      8586      8589      8592
      8590      8589      8591      8590      8589      8592      8591      8589      8592
      8589      8592      8593      8589      8592      8594      8589      8592      8595
      8593      8592      8594      8593      8592      8595      8594      8592      8595
      8592      8595      8596      8592      8595      8597      8592      8595      8598
      8596      8595      8597      8596      8595      8598      8597      8595      8598
      8595      8598      8599      8595      8598      8600      8595      8598      8601
      8599      8598      8600      8599      8598      8601      8600      8598      8601
      8598      8601      8602      8598      8601      8603      8598      8601      8604
      8602      8601      8603      8602      8601      8604      8603      8601      8604
      8601      8604      8605      8601      8604      8606      8601      8604      8607
      8605      8604      8606      8605      8604      8607      8606      8604      8607
      8604      8607      8608      8604      8607      8609      8604      8607      8610
      8608      8607      8609      8608      8607      8610      8609      8607      8610
      8607      8610      8611      8607      8610      8612      8607      8610      8613
      8611      8610      8612      8611      8610      8613      8612      8610      8613
      8610      8613      8614      8610      8613      8615      8610      8613      8616
      8614      8613      8615      8614      8613      8616      8615      8613      8616
      8613      8616      8617      8613      8616      8618      8613      8616      8619
      8617      8616      8618      8617      8616      8619      8618      8616      8619
      8616      8619      8620      8616      8619      8621      8616      8619      8622
      8620      8619      8621      8620      8619      8622      8621      8619      8622
      8624      8623      8625      8624      8623      8626      8624      8623      8627
      8625      8623      8626      8625      8623      8627      8626      8623      8627
      8623      8627      8628      8623      8627      8629      8623      8627      8632
      8628      8627      8629      8628      8627      8632      8629      8627      8632
      8627      8629      8630      8627      8629      8631      8630      8629      8631
      8627      8632      8633      8627      8632      8634      8627      8632      8638
      8633      8632      8634      8633      8632      8638      8634      8632      8638
      8636      8635      8637      8636      8635      8638      8636      8635      8639
      8637      8635      8638      8637      8635      8639      8638      8635      8639
      8632      8638      8635      8635      8639      8640      8639      8640      8641
      8639      8640      8642      8639      8640      8643      8641      8640      8642
      8641      8640      8643      8642      8640      8643      8640      8643      8644
      8640      8643      8645      8640      8643      8651      8644      8643      8645
      8644      8643      8651      8645      8643      8651      8643      8645      8646
      8645      8646      8647      8645      8646      8648      8647      8646      8648
      8646      8648      8649      8646      8648      8650      8646      8648      8660
      8649      8648      8650      8649      8648      8660      8650      8648      8660
      8643      8651      8652      8643      8651      8653      8643      8651      8654
      8652      8651      8653      8652      8651      8654      8653      8651      8654
      8651      8654      8655      8654      8655      8656      8654      8655      8657
      8656      8655      8657      8655      8657      8658      8655      8657      8659
      8655      8657      8707      8658      8657      8659      8658      8657      8707
      8659      8657      8707      8648      8660      8661      8648      8660      8662
      8648      8660      8663      8661      8660      8662      8661      8660      8663
      8662      8660      8663      8660      8663      8664      8660      8663      8665
      8660      8663      8666      8664      8663      8665      8664      8663      8666
      8665      8663      8666      8663      8666      8667      8663      8666      8668
      8663      8666      8669      8667      8666      8668      8667      8666      8669
      8668      8666      8669      8666      8669      8670      8666      8669      8671
      8666      8669      8672      8670      8669      8671      8670      8669      8672
      8671      8669      8672      8669      8672      8673      8669      8672      8674
      8669      8672      8675      8673      8672      8674      8673      8672      8675
      8674      8672      8675      8672      8675      8676      8672      8675      8677
      8672      8675      8678      8676      8675      8677      8676      8675      8678
      8677      8675      8678      8675      8678      8679      8675      8678      8680
      8679      8678      8680      8678      8680      8681      8678      8680      8682
      8681      8680      8682      8680      8682      8683      8680      8682      8684
      8680      8682      8685      8683      8682      8684      8683      8682      8685
      8684      8682      8685      8682      8685      8686      8682      8685      8687
      8682      8685      8688      8686      8685      8687      8686      8685      8688
      8687      8685      8688      8685      8688      8689      8685      8688      8690
      8685      8688      8691      8689      8688      8690      8689      8688      8691
      8690      8688      8691      8688      8691      8692      8688      8691      8693
      8688      8691      8694      8692      8691      8693      8692      8691      8694
      8693      8691      8694      8691      8694      8695      8691      8694      8696
      8691      8694      8697      8695      8694      8696      8695      8694      8697
      8696      8694      8697      8694      8697      8698      8694      8697      8699
      8694      8697      8700      8698      8697      8699      8698      8697      8700
      8699      8697      8700      8697      8700      8701      8697      8700      8702
      8697      8700      8703      8701      8700      8702      8701      8700      8703
      8702      8700      8703      8700      8703      8704      8700      8703      8705
      8700      8703      8706      8704      8703      8705      8704      8703      8706
      8705      8703      8706      8657      8707      8708      8657      8707      8709
      8657      8707      8710      8708      8707      8709      8708      8707      8710
      8709      8707      8710      8707      8710      8711      8707      8710      8712
      8707      8710      8713      8711      8710      8712      8711      8710      8713
      8712      8710      8713      8710      8713      8714      8710      8713      8715
      8710      8713      8716      8714      8713      8715      8714      8713      8716
      8715      8713      8716      8713      8716      8717      8713      8716      8718
      8713      8716      8719      8717      8716      8718      8717      8716      8719
      8718      8716      8719      8716      8719      8720      8716      8719      8721
      8716      8719      8722      8720      8719      8721      8720      8719      8722
      8721      8719      8722      8719      8722      8723      8719      8722      8724
      8719      8722      8725      8723      8722      8724      8723      8722      8725
      8724      8722      8725      8722      8725      8726      8722      8725      8727
      8722      8725      8728      8726      8725      8727      8726      8725      8728
      8727      8725      8728      8725      8728      8729      8725      8728      8730
      8725      8728      8731      8729      8728      8730      8729      8728      8731
      8730      8728      8731      8728      8731      8732      8728      8731      8733
      8728      8731      8734      8732      8731      8733      8732      8731      8734
      8733      8731      8734      8731      8734      8735      8731      8734      8736
      8731      8734      8737      8735      8734      8736      8735      8734      8737
      8736      8734      8737      8734      8737      8738      8734      8737      8739
      8734      8737      8740      8738      8737      8739      8738      8737      8740
      8739      8737      8740      8737      8740      8741      8737      8740      8742
      8737      8740      8743      8741      8740      8742      8741      8740      8743
      8742      8740      8743      8740      8743      8744      8740      8743      8745
      8740      8743      8746      8744      8743      8745      8744      8743      8746
      8745      8743      8746      8743      8746      8747      8743      8746      8748
      8743      8746      8749      8747      8746      8748      8747      8746      8749
      8748      8746      8749      8751      8750      8752      8751      8750      8753
      8751      8750      8754      8752      8750      8753      8752      8750      8754
      8753      8750      8754      8750      8754      8755      8750      8754      8756
      8750      8754      8759      8755      8754      8756      8755      8754      8759
      8756      8754      8759      8754      8756      8757      8754      8756      8758
      8757      8756      8758      8754      8759      8760      8754      8759      8761
      8754      8759      8765      8760      8759      8761      8760      8759      8765
      8761      8759      8765      8763      8762      8764      8763      8762      8765
      8763      8762      8766      8764      8762      8765      8764      8762      8766
      8765      8762      8766      8759      8765      8762      8762      8766      8767
      8766      8767      8768      8766      8767      8769      8766      8767      8770
      8768      8767      8769      8768      8767      8770      8769      8767      8770
      8767      8770      8771      8767      8770      8772      8767      8770      8778
      8771      8770      8772      8771      8770      8778      8772      8770      8778
      8770      8772      8773      8772      8773      8774      8772      8773      8775
      8774      8773      8775      8773      8775      8776      8773      8775      8777
      8773      8775      8787      8776      8775      8777      8776      8775      8787
      8777      8775      8787      8770      8778      8779      8770      8778      8780
      8770      8778      8781      8779      8778      8780      8779      8778      8781
      8780      8778      8781      8778      8781      8782      8781      8782      8783
      8781      8782      8784      8783      8782      8784      8782      8784      8785
      8782      8784      8786      8782      8784      8834      8785      8784      8786
      8785      8784      8834      8786      8784      8834      8775      8787      8788
      8775      8787      8789      8775      8787      8790      8788      8787      8789
      8788      8787      8790      8789      8787      8790      8787      8790      8791
      8787      8790      8792      8787      8790      8793      8791      8790      8792
      8791      8790      8793      8792      8790      8793      8790      8793      8794
      8790      8793      8795      8790      8793      8796      8794      8793      8795
      8794      8793      8796      8795      8793      8796      8793      8796      8797
      8793      8796      8798      8793      8796      8799      8797      8796      8798
      8797      8796      8799      8798      8796      8799      8796      8799      8800
      8796      8799      8801      8796      8799      8802      8800      8799      8801
      8800      8799      8802      8801      8799      8802      8799      8802      8803
      8799      8802      8804      8799      8802      8805      8803      8802      8804
      8803      8802      8805      8804      8802      8805      8802      8805      8806
      8802      8805      8807      8806      8805      8807      8805      8807      8808
      8805      8807      8809      8808      8807      8809      8807      8809      8810
      8807      8809      8811      8807      8809      8812      8810      8809      8811
      8810      8809      8812      8811      8809      8812      8809      8812      8813
      8809      8812      8814      8809      8812      8815      8813      8812      8814
      8813      8812      8815      8814      8812      8815      8812      8815      8816
      8812      8815      8817      8812      8815      8818      8816      8815      8817
      8816      8815      8818      8817      8815      8818      8815      8818      8819
      8815      8818      8820      8815      8818      8821      8819      8818      8820
      8819      8818      8821      8820      8818      8821      8818      8821      8822
      8818      8821      8823      8818      8821      8824      8822      8821      8823
      8822      8821      8824      8823      8821      8824      8821      8824      8825
      8821      8824      8826      8821      8824      8827      8825      8824      8826
      8825      8824      8827      8826      8824      8827      8824      8827      8828
      8824      8827      8829      8824      8827      8830      8828      8827      8829
      8828      8827      8830      8829      8827      8830      8827      8830      8831
      8827      8830      8832      8827      8830      8833      8831      8830      8832
      8831      8830      8833      8832      8830      8833      8784      8834      8835
      8784      8834      8836      8784      8834      8837      8835      8834      8836
      8835      8834      8837      8836      8834      8837      8834      8837      8838
      8834      8837      8839      8834      8837      8840      8838      8837      8839
      8838      8837      8840      8839      8837      8840      8837      8840      8841
      8837      8840      8842      8837      8840      8843      8841      8840      8842
      8841      8840      8843      8842      8840      8843      8840      8843      8844
      8840      8843      8845      8840      8843      8846      8844      8843      8845
      8844      8843      8846      8845      8843      8846      8843      8846      8847
      8843      8846      8848      8843      8846      8849      8847      8846      8848
      8847      8846      8849      8848      8846      8849      8846      8849      8850
      8846      8849      8851      8846      8849      8852      8850      8849      8851
      8850      8849      8852      8851      8849      8852      8849      8852      8853
      8849      8852      8854      8849      8852      8855      8853      8852      8854
      8853      8852      8855      8854      8852      8855      8852      8855      8856
      8852      8855      8857      8852      8855      8858      8856      8855      8857
      8856      8855      8858      8857      8855      8858      8855      8858      8859
      8855      8858      8860      8855      8858      8861      8859      8858      8860
      8859      8858      8861      8860      8858      8861      8858      8861      8862
      8858      8861      8863      8858      8861      8864      8862      8861      8863
      8862      8861      8864      8863      8861      8864      8861      8864      8865
      8861      8864      8866      8861      8864      8867      8865      8864      8866
      8865      8864      8867      8866      8864      8867      8864      8867      8868
      8864      8867      8869      8864      8867      8870      8868      8867      8869
      8868      8867      8870      8869      8867      8870      8867      8870      8871
      8867      8870      8872      8867      8870      8873      8871      8870      8872
      8871      8870      8873      8872      8870      8873      8870      8873      8874
      8870      8873      8875      8870      8873      8876      8874      8873      8875
      8874      8873      8876      8875      8873      8876      8878      8877      8881
      8878      8877      8885      8878      8877      8889      8881      8877      8885
      8881      8877      8889      8885      8877      8889      8877      8878      8879
      8877      8878      8880      8877      8878      8893      8879      8878      8880
      8879      8878      8893      8880      8878      8893      8877      8881      8882
      8877      8881      8883      8877      8881      8884      8882      8881      8883
      8882      8881      8884      8883      8881      8884      8877      8885      8886
      8877      8885      8887      8877      8885      8888      8886      8885      8887
      8886      8885      8888      8887      8885      8888      8877      8889      8890
      8877      8889      8891      8877      8889      8892      8890      8889      8891
      8890      8889      8892      8891      8889      8892      8878      8893      8894
      8878      8893      8895      8878      8893      8899      8894      8893      8895
      8894      8893      8899      8895      8893      8899      8897      8896      8898
      8897      8896      8899      8897      8896      8900      8898      8896      8899
      8898      8896      8900      8899      8896      8900      8893      8899      8896
      8896      8900      8901      8900      8901      8902      8900      8901      8903
      8900      8901      8904      8902      8901      8903      8902      8901      8904
      8903      8901      8904      8901      8904      8905      8901      8904      8906
      8901      8904      8912      8905      8904      8906      8905      8904      8912
      8906      8904      8912      8904      8906      8907      8906      8907      8908
      8906      8907      8909      8908      8907      8909      8907      8909      8910
      8907      8909      8911      8907      8909      8921      8910      8909      8911
      8910      8909      8921      8911      8909      8921      8904      8912      8913
      8904      8912      8914      8904      8912      8915      8913      8912      8914
      8913      8912      8915      8914      8912      8915      8912      8915      8916
      8915      8916      8917      8915      8916      8918      8917      8916      8918
      8916      8918      8919      8916      8918      8920      8916      8918      8968
      8919      8918      8920      8919      8918      8968      8920      8918      8968
      8909      8921      8922      8909      8921      8923      8909      8921      8924
      8922      8921      8923      8922      8921      8924      8923      8921      8924
      8921      8924      8925      8921      8924      8926      8921      8924      8927
      8925      8924      8926      8925      8924      8927      8926      8924      8927
      8924      8927      8928      8924      8927      8929      8924      8927      8930
      8928      8927      8929      8928      8927      8930      8929      8927      8930
      8927      8930      8931      8927      8930      8932      8927      8930      8933
      8931      8930      8932      8931      8930      8933      8932      8930      8933
      8930      8933      8934      8930      8933      8935      8930      8933      8936
      8934      8933      8935      8934      8933      8936      8935      8933      8936
      8933      8936      8937      8933      8936      8938      8933      8936      8939
      8937      8936      8938      8937      8936      8939      8938      8936      8939
      8936      8939      8940      8936      8939      8941      8940      8939      8941
      8939      8941      8942      8939      8941      8943      8942      8941      8943
      8941      8943      8944      8941      8943      8945      8941      8943      8946
      8944      8943      8945      8944      8943      8946      8945      8943      8946
      8943      8946      8947      8943      8946      8948      8943      8946      8949
      8947      8946      8948      8947      8946      8949      8948      8946      8949
      8946      8949      8950      8946      8949      8951      8946      8949      8952
      8950      8949      8951      8950      8949      8952      8951      8949      8952
      8949      8952      8953      8949      8952      8954      8949      8952      8955
      8953      8952      8954      8953      8952      8955      8954      8952      8955
      8952      8955      8956      8952      8955      8957      8952      8955      8958
      8956      8955      8957      8956      8955      8958      8957      8955      8958
      8955      8958      8959      8955      8958      8960      8955      8958      8961
      8959      8958      8960      8959      8958      8961      8960      8958      8961
      8958      8961      8962      8958      8961      8963      8958      8961      8964
      8962      8961      8963      8962      8961      8964      8963      8961      8964
      8961      8964      8965      8961      8964      8966      8961      8964      8967
      8965      8964      8966      8965      8964      8967      8966      8964      8967
      8918      8968      8969      8918      8968      8970      8918      8968      8971
      8969      8968      8970      8969      8968      8971      8970      8968      8971
      8968      8971      8972      8968      8971      8973      8968      8971      8974
      8972      8971      8973      8972      8971      8974      8973      8971      8974
      8971      8974      8975      8971      8974      8976      8971      8974      8977
      8975      8974      8976      8975      8974      8977      8976      8974      8977
      8974      8977      8978      8974      8977      8979      8974      8977      8980
      8978      8977      8979      8978      8977      8980      8979      8977      8980
      8977      8980      8981      8977      8980      8982      8977      8980      8983
      8981      8980      8982      8981      8980      8983      8982      8980      8983
      8980      8983      8984      8980      8983      8985      8980      8983      8986
      8984      8983      8985      8984      8983      8986      8985      8983      8986
      8983      8986      8987      8983      8986      8988      8983      8986      8989
      8987      8986      8988      8987      8986      8989      8988      8986      8989
      8986      8989      8990      8986      8989      8991      8986      8989      8992
      8990      8989      8991      8990      8989      8992      8991      8989      8992
      8989      8992      8993      8989      8992      8994      8989      8992      8995
      8993      8992      8994      8993      8992      8995      8994      8992      8995
      8992      8995      8996      8992      8995      8997      8992      8995      8998
      8996      8995      8997      8996      8995      8998      8997      8995      8998
      8995      8998      8999      8995      8998      9000      8995      8998      9001
      8999      8998      9000      8999      8998      9001      9000      8998      9001
      8998      9001      9002      8998      9001      9003      8998      9001      9004
      9002      9001      9003      9002      9001      9004      9003      9001      9004
      9001      9004      9005      9001      9004      9006      9001      9004      9007
      9005      9004      9006      9005      9004      9007      9006      9004      9007
      9004      9007      9008      9004      9007      9009      9004      9007      9010
      9008      9007      9009      9008      9007      9010      9009      9007      9010
      9012      9011      9016      9012      9011      9020      9012      9011      9024
      9016      9011      9020      9016      9011      9024      9020      9011      9024
      9011      9012      9013      9011      9012      9014      9011      9012      9015
      9013      9012      9014      9013      9012      9015      9014      9012      9015
      9011      9016      9017      9011      9016      9018      9011      9016      9019
      9017      9016      9018      9017      9016      9019      9018      9016      9019
      9011      9020      9021      9011      9020      9022      9011      9020      9023
      9021      9020      9022      9021      9020      9023      9022      9020      9023
      9011      9024      9025      9011      9024      9026      9011      9024      9027
      9025      9024      9026      9025      9024      9027      9026      9024      9027
      9024      9027      9028      9024      9027      9029      9024      9027      9034
      9028      9027      9029      9028      9027      9034      9029      9027      9034
      9031      9030      9032      9031      9030      9033      9031      9030      9034
      9032      9030      9033      9032      9030      9034      9033      9030      9034
      9030      9033      9035      9027      9034      9030      9033      9035      9036
      9033      9035      9037      9033      9035      9040      9036      9035      9037
      9036      9035      9040      9037      9035      9040      9039      9038      9040
      9039      9038      9090      9040      9038      9090      9035      9040      9038
      9035      9040      9041      9035      9040      9042      9038      9040      9041
      9038      9040      9042      9041      9040      9042      9040      9042      9043
      9040      9042      9044      9040      9042      9046      9043      9042      9044
      9043      9042      9046      9044      9042      9046      9042      9044      9045
      9042      9046      9047      9042      9046      9048      9047      9046      9048
      9046      9048      9049      9046      9048      9050      9049      9048      9050
      9048      9050      9051      9048      9050      9052      9048      9050      9053
      9051      9050      9052      9051      9050      9053      9052      9050      9053
      9050      9053      9054      9050      9053      9055      9050      9053      9056
      9054      9053      9055      9054      9053      9056      9055      9053      9056
      9053      9056      9057      9053      9056      9058      9053      9056      9059
      9057      9056      9058      9057      9056      9059      9058      9056      9059
      9056      9059      9060      9056      9059      9061      9056      9059      9062
      9060      9059      9061      9060      9059      9062      9061      9059      9062
      9059      9062      9063      9059      9062      9064      9059      9062      9065
      9063      9062      9064      9063      9062      9065      9064      9062      9065
      9062      9065      9066      9062      9065      9067      9062      9065      9068
      9066      9065      9067      9066      9065      9068      9067      9065      9068
      9065      9068      9069      9065      9068      9070      9065      9068      9071
      9069      9068      9070      9069      9068      9071      9070      9068      9071
      9068      9071      9072      9068      9071      9073      9068      9071      9074
      9072      9071      9073      9072      9071      9074      9073      9071      9074
      9071      9074      9075      9071      9074      9076      9071      9074      9077
      9075      9074      9076      9075      9074      9077      9076      9074      9077
      9074      9077      9078      9074      9077      9079      9074      9077      9080
      9078      9077      9079      9078      9077      9080      9079      9077      9080
      9077      9080      9081      9077      9080      9082      9077      9080      9083
      9081      9080      9082      9081      9080      9083      9082      9080      9083
      9080      9083      9084      9080      9083      9085      9080      9083      9086
      9084      9083      9085      9084      9083      9086      9085      9083      9086
      9083      9086      9087      9083      9086      9088      9083      9086      9089
      9087      9086      9088      9087      9086      9089      9088      9086      9089
      9038      9090      9091      9038      9090      9092      9091      9090      9092
      9090      9092      9093      9090      9092      9094      9090      9092      9095
      9093      9092      9094      9093      9092      9095      9094      9092      9095
      9092      9095      9096      9092      9095      9097      9092      9095      9098
      9096      9095      9097      9096      9095      9098      9097      9095      9098
      9095      9098      9099      9095      9098      9100      9095      9098      9101
      9099      9098      9100      9099      9098      9101      9100      9098      9101
      9098      9101      9102      9098      9101      9103      9098      9101      9104
      9102      9101      9103      9102      9101      9104      9103      9101      9104
      9101      9104      9105      9101      9104      9106      9101      9104      9107
      9105      9104      9106      9105      9104      9107      9106      9104      9107
      9104      9107      9108      9104      9107      9109      9104      9107      9110
      9108      9107      9109      9108      9107      9110      9109      9107      9110
      9107      9110      9111      9107      9110      9112      9107      9110      9113
      9111      9110      9112      9111      9110      9113      9112      9110      9113
      9110      9113      9114      9110      9113      9115      9110      9113      9116
      9114      9113      9115      9114      9113      9116      9115      9113      9116
      9113      9116      9117      9113      9116      9118      9113      9116      9119
      9117      9116      9118      9117      9116      9119      9118      9116      9119
      9116      9119      9120      9116      9119      9121      9116      9119      9122
      9120      9119      9121      9120      9119      9122      9121      9119      9122
      9119      9122      9123      9119      9122      9124      9119      9122      9125
      9123      9122      9124      9123      9122      9125      9124      9122      9125
      9122      9125      9126      9122      9125      9127      9122      9125      9128
      9126      9125      9127      9126      9125      9128      9127      9125      9128
      9125      9128      9129      9125      9128      9130      9125      9128      9131
      9129      9128      9130      9129      9128      9131      9130      9128      9131
      9128      9131      9132      9128      9131      9133      9128      9131      9134
      9132      9131      9133      9132      9131      9134      9133      9131      9134
      9131      9134      9135      9131      9134      9136      9131      9134      9137
      9135      9134      9136      9135      9134      9137      9136      9134      9137
      9139      9138      9142      9139      9138      9146      9139      9138      9150
      9142      9138      9146      9142      9138      9150      9146      9138      9150
      9138      9139      9140      9138      9139      9141      9138      9139      9154
      9140      9139      9141      9140      9139      9154      9141      9139      9154
      9138      9142      9143      9138      9142      9144      9138      9142      9145
      9143      9142      9144      9143      9142      9145      9144      9142      9145
      9138      9146      9147      9138      9146      9148      9138      9146      9149
      9147      9146      9148      9147      9146      9149      9148      9146      9149
      9138      9150      9151      9138      9150      9152      9138      9150      9153
      9151      9150      9152      9151      9150      9153      9152      9150      9153
      9139      9154      9155      9139      9154      9156      9139      9154      9160
      9155      9154      9156      9155      9154      9160      9156      9154      9160
      9158      9157      9159      9158      9157      9160      9158      9157      9161
      9159      9157      9160      9159      9157      9161      9160      9157      9161
      9154      9160      9157      9157      9161      9162      9161      9162      9163
      9161      9162      9164      9161      9162      9165      9163      9162      9164
      9163      9162      9165      9164      9162      9165      9162      9165      9166
      9162      9165      9167      9162      9165      9173      9166      9165      9167
      9166      9165      9173      9167      9165      9173      9165      9167      9168
      9167      9168      9169      9167      9168      9170      9169      9168      9170
      9168      9170      9171      9168      9170      9172      9168      9170      9182
      9171      9170      9172      9171      9170      9182      9172      9170      9182
      9165      9173      9174      9165      9173      9175      9165      9173      9176
      9174      9173      9175      9174      9173      9176      9175      9173      9176
      9173      9176      9177      9176      9177      9178      9176      9177      9179
      9178      9177      9179      9177      9179      9180      9177      9179      9181
      9177      9179      9229      9180      9179      9181      9180      9179      9229
      9181      9179      9229      9170      9182      9183      9170      9182      9184
      9170      9182      9185      9183      9182      9184      9183      9182      9185
      9184      9182      9185      9182      9185      9186      9182      9185      9187
      9182      9185      9188      9186      9185      9187      9186      9185      9188
      9187      9185      9188      9185      9188      9189      9185      9188      9190
      9185      9188      9191      9189      9188      9190      9189      9188      9191
      9190      9188      9191      9188      9191      9192      9188      9191      9193
      9188      9191      9194      9192      9191      9193      9192      9191      9194
      9193      9191      9194      9191      9194      9195      9191      9194      9196
      9191      9194      9197      9195      9194      9196      9195      9194      9197
      9196      9194      9197      9194      9197      9198      9194      9197      9199
      9194      9197      9200      9198      9197      9199      9198      9197      9200
      9199      9197      9200      9197      9200      9201      9197      9200      9202
      9201      9200      9202      9200      9202      9203      9200      9202      9204
      9203      9202      9204      9202      9204      9205      9202      9204      9206
      9202      9204      9207      9205      9204      9206      9205      9204      9207
      9206      9204      9207      9204      9207      9208      9204      9207      9209
      9204      9207      9210      9208      9207      9209      9208      9207      9210
      9209      9207      9210      9207      9210      9211      9207      9210      9212
      9207      9210      9213      9211      9210      9212      9211      9210      9213
      9212      9210      9213      9210      9213      9214      9210      9213      9215
      9210      9213      9216      9214      9213      9215      9214      9213      9216
      9215      9213      9216      9213      9216      9217      9213      9216      9218
      9213      9216      9219      9217      9216      9218      9217      9216      9219
      9218      9216      9219      9216      9219      9220      9216      9219      9221
      9216      9219      9222      9220      9219      9221      9220      9219      9222
      9221      9219      9222      9219      9222      9223      9219      9222      9224
      9219      9222      9225      9223      9222      9224      9223      9222      9225
      9224      9222      9225      9222      9225      9226      9222      9225      9227
      9222      9225      9228      9226      9225      9227      9226      9225      9228
      9227      9225      9228      9179      9229      9230      9179      9229      9231
      9179      9229      9232      9230      9229      9231      9230      9229      9232
      9231      9229      9232      9229      9232      9233      9229      9232      9234
      9229      9232      9235      9233      9232      9234      9233      9232      9235
      9234      9232      9235      9232      9235      9236      9232      9235      9237
      9232      9235      9238      9236      9235      9237      9236      9235      9238
      9237      9235      9238      9235      9238      9239      9235      9238      9240
      9235      9238      9241      9239      9238      9240      9239      9238      9241
      9240      9238      9241      9238      9241      9242      9238      9241      9243
      9238      9241      9244      9242      9241      9243      9242      9241      9244
      9243      9241      9244      9241      9244      9245      9241      9244      9246
      9241      9244      9247      9245      9244      9246      9245      9244      9247
      9246      9244      9247      9244      9247      9248      9244      9247      9249
      9244      9247      9250      9248      9247      9249      9248      9247      9250
      9249      9247      9250      9247      9250      9251      9247      9250      9252
      9247      9250      9253      9251      9250      9252      9251      9250      9253
      9252      9250      9253      9250      9253      9254      9250      9253      9255
      9250      9253      9256      9254      9253      9255      9254      9253      9256
      9255      9253      9256      9253      9256      9257      9253      9256      9258
      9253      9256      9259      9257      9256      9258      9257      9256      9259
      9258      9256      9259      9256      9259      9260      9256      9259      9261
      9256      9259      9262      9260      9259      9261      9260      9259      9262
      9261      9259      9262      9259      9262      9263      9259      9262      9264
      9259      9262      9265      9263      9262      9264      9263      9262      9265
      9264      9262      9265      9262      9265      9266      9262      9265      9267
      9262      9265      9268      9266      9265      9267      9266      9265      9268
      9267      9265      9268      9265      9268      9269      9265      9268      9270
      9265      9268      9271      9269      9268      9270      9269      9268      9271
      9270      9268      9271      9273      9272      9277      9273      9272      9281
      9273      9272      9285      9277      9272      9281      9277      9272      9285
      9281      9272      9285      9272      9273      9274      9272      9273      9275
      9272      9273      9276      9274      9273      9275      9274      9273      9276
      9275      9273      9276      9272      9277      9278      9272      9277      9279
      9272      9277      9280      9278      9277      9279      9278      9277      9280
      9279      9277      9280      9272      9281      9282      9272      9281      9283
      9272      9281      9284      9282      9281      9283      9282      9281      9284
      9283      9281      9284      9272      9285      9286      9272      9285      9287
      9272      9285      9288      9286      9285      9287      9286      9285      9288
      9287      9285      9288      9285      9288      9289      9285      9288      9290
      9285      9288      9295      9289      9288      9290      9289      9288      9295
      9290      9288      9295      9292      9291      9293      9292      9291      9294
      9292      9291      9295      9293      9291      9294      9293      9291      9295
      9294      9291      9295      9291      9294      9296      9288      9295      9291
      9294      9296      9297      9294      9296      9298      9294      9296      9301
      9297      9296      9298      9297      9296      9301      9298      9296      9301
      9300      9299      9301      9300      9299      9351      9301      9299      9351
      9296      9301      9299      9296      9301      9302      9296      9301      9303
      9299      9301      9302      9299      9301      9303      9302      9301      9303
      9301      9303      9304      9301      9303      9305      9301      9303      9307
      9304      9303      9305      9304      9303      9307      9305      9303      9307
      9303      9305      9306      9303      9307      9308      9303      9307      9309
      9308      9307      9309      9307      9309      9310      9307      9309      9311
      9310      9309      9311      9309      9311      9312      9309      9311      9313
      9309      9311      9314      9312      9311      9313      9312      9311      9314
      9313      9311      9314      9311      9314      9315      9311      9314      9316
      9311      9314      9317      9315      9314      9316      9315      9314      9317
      9316      9314      9317      9314      9317      9318      9314      9317      9319
      9314      9317      9320      9318      9317      9319      9318      9317      9320
      9319      9317      9320      9317      9320      9321      9317      9320      9322
      9317      9320      9323      9321      9320      9322      9321      9320      9323
      9322      9320      9323      9320      9323      9324      9320      9323      9325
      9320      9323      9326      9324      9323      9325      9324      9323      9326
      9325      9323      9326      9323      9326      9327      9323      9326      9328
      9323      9326      9329      9327      9326      9328      9327      9326      9329
      9328      9326      9329      9326      9329      9330      9326      9329      9331
      9326      9329      9332      9330      9329      9331      9330      9329      9332
      9331      9329      9332      9329      9332      9333      9329      9332      9334
      9329      9332      9335      9333      9332      9334      9333      9332      9335
      9334      9332      9335      9332      9335      9336      9332      9335      9337
      9332      9335      9338      9336      9335      9337      9336      9335      9338
      9337      9335      9338      9335      9338      9339      9335      9338      9340
      9335      9338      9341      9339      9338      9340      9339      9338      9341
      9340      9338      9341      9338      9341      9342      9338      9341      9343
      9338      9341      9344      9342      9341      9343      9342      9341      9344
      9343      9341      9344      9341      9344      9345      9341      9344      9346
      9341      9344      9347      9345      9344      9346      9345      9344      9347
      9346      9344      9347      9344      9347      9348      9344      9347      9349
      9344      9347      9350      9348      9347      9349      9348      9347      9350
      9349      9347      9350      9299      9351      9352      9299      9351      9353
      9352      9351      9353      9351      9353      9354      9351      9353      9355
      9351      9353      9356      9354      9353      9355      9354      9353      9356
      9355      9353      9356      9353      9356      9357      9353      9356      9358
      9353      9356      9359      9357      9356      9358      9357      9356      9359
      9358      9356      9359      9356      9359      9360      9356      9359      9361
      9356      9359      9362      9360      9359      9361      9360      9359      9362
      9361      9359      9362      9359      9362      9363      9359      9362      9364
      9359      9362      9365      9363      9362      9364      9363      9362      9365
      9364      9362      9365      9362      9365      9366      9362      9365      9367
      9362      9365      9368      9366      9365      9367      9366      9365      9368
      9367      9365      9368      9365      9368      9369      9365      9368      9370
      9365      9368      9371      9369      9368      9370      9369      9368      9371
      9370      9368      9371      9368      9371      9372      9368      9371      9373
      9368      9371      9374      9372      9371      9373      9372      9371      9374
      9373      9371      9374      9371      9374      9375      9371      9374      9376
      9371      9374      9377      9375      9374      9376      9375      9374      9377
      9376      9374      9377      9374      9377      9378      9374      9377      9379
      9374      9377      9380      9378      9377      9379      9378      9377      9380
      9379      9377      9380      9377      9380      9381      9377      9380      9382
      9377      9380      9383      9381      9380      9382      9381      9380      9383
      9382      9380      9383      9380      9383      9384      9380      9383      9385
      9380      9383      9386      9384      9383      9385      9384      9383      9386
      9385      9383      9386      9383      9386      9387      9383      9386      9388
      9383      9386      9389      9387      9386      9388      9387      9386      9389
      9388      9386      9389      9386      9389      9390      9386      9389      9391
      9386      9389      9392      9390      9389      9391      9390      9389      9392
      9391      9389      9392      9389      9392      9393      9389      9392      9394
      9389      9392      9395      9393      9392      9394      9393      9392      9395
      9394      9392      9395      9392      9395      9396      9392      9395      9397
      9392      9395      9398      9396      9395      9397      9396      9395      9398
      9397      9395      9398      9400      9399      9401      9400      9399      9402
      9400      9399      9403      9401      9399      9402      9401      9399      9403
      9402      9399      9403      9399      9403      9404      9399      9403      9405
      9399      9403      9406      9404      9403      9405      9404      9403      9406
      9405      9403      9406      9403      9406      9407      9403      9406      9408
      9403      9406      9413      9407      9406      9408      9407      9406      9413
      9408      9406      9413      9410      9409      9411      9410      9409      9412
      9410      9409      9413      9411      9409      9412      9411      9409      9413
      9412      9409      9413      9409      9412      9414      9406      9413      9409
      9412      9414      9415      9412      9414      9416      9412      9414      9417
      9415      9414      9416      9415      9414      9417      9416      9414      9417
      9414      9417      9418      9414      9417      9419      9414      9417      9425
      9418      9417      9419      9418      9417      9425      9419      9417      9425
      9417      9419      9420      9419      9420      9421      9419      9420      9422
      9421      9420      9422      9420      9422      9423      9420      9422      9424
      9420      9422      9434      9423      9422      9424      9423      9422      9434
      9424      9422      9434      9417      9425      9426      9417      9425      9427
      9417      9425      9428      9426      9425      9427      9426      9425      9428
      9427      9425      9428      9425      9428      9429      9428      9429      9430
      9428      9429      9431      9430      9429      9431      9429      9431      9432
      9429      9431      9433      9429      9431      9481      9432      9431      9433
      9432      9431      9481      9433      9431      9481      9422      9434      9435
      9422      9434      9436      9422      9434      9437      9435      9434      9436
      9435      9434      9437      9436      9434      9437      9434      9437      9438
      9434      9437      9439      9434      9437      9440      9438      9437      9439
      9438      9437      9440      9439      9437      9440      9437      9440      9441
      9437      9440      9442      9437      9440      9443      9441      9440      9442
      9441      9440      9443      9442      9440      9443      9440      9443      9444
      9440      9443      9445      9440      9443      9446      9444      9443      9445
      9444      9443      9446      9445      9443      9446      9443      9446      9447
      9443      9446      9448      9443      9446      9449      9447      9446      9448
      9447      9446      9449      9448      9446      9449      9446      9449      9450
      9446      9449      9451      9446      9449      9452      9450      9449      9451
      9450      9449      9452      9451      9449      9452      9449      9452      9453
      9449      9452      9454      9453      9452      9454      9452      9454      9455
      9452      9454      9456      9455      9454      9456      9454      9456      9457
      9454      9456      9458      9454      9456      9459      9457      9456      9458
      9457      9456      9459      9458      9456      9459      9456      9459      9460
      9456      9459      9461      9456      9459      9462      9460      9459      9461
      9460      9459      9462      9461      9459      9462      9459      9462      9463
      9459      9462      9464      9459      9462      9465      9463      9462      9464
      9463      9462      9465      9464      9462      9465      9462      9465      9466
      9462      9465      9467      9462      9465      9468      9466      9465      9467
      9466      9465      9468      9467      9465      9468      9465      9468      9469
      9465      9468      9470      9465      9468      9471      9469      9468      9470
      9469      9468      9471      9470      9468      9471      9468      9471      9472
      9468      9471      9473      9468      9471      9474      9472      9471      9473
      9472      9471      9474      9473      9471      9474      9471      9474      9475
      9471      9474      9476      9471      9474      9477      9475      9474      9476
      9475      9474      9477      9476      9474      9477      9474      9477      9478
      9474      9477      9479      9474      9477      9480      9478      9477      9479
      9478      9477      9480      9479      9477      9480      9431      9481      9482
      9431      9481      9483      9431      9481      9484      9482      9481      9483
      9482      9481      9484      9483      9481      9484      9481      9484      9485
      9481      9484      9486      9481      9484      9487      9485      9484      9486
      9485      9484      9487      9486      9484      9487      9484      9487      9488
      9484      9487      9489      9484      9487      9490      9488      9487      9489
      9488      9487      9490      9489      9487      9490      9487      9490      9491
      9487      9490      9492      9487      9490      9493      9491      9490      9492
      9491      9490      9493      9492      9490      9493      9490      9493      9494
      9490      9493      9495      9490      9493      9496      9494      9493      9495
      9494      9493      9496      9495      9493      9496      9493      9496      9497
      9493      9496      9498      9493      9496      9499      9497      9496      9498
      9497      9496      9499      9498      9496      9499      9496      9499      9500
      9496      9499      9501      9496      9499      9502      9500      9499      9501
      9500      9499      9502      9501      9499      9502      9499      9502      9503
      9499      9502      9504      9499      9502      9505      9503      9502      9504
      9503      9502      9505      9504      9502      9505      9502      9505      9506
      9502      9505      9507      9502      9505      9508      9506      9505      9507
      9506      9505      9508      9507      9505      9508      9505      9508      9509
      9505      9508      9510      9505      9508      9511      9509      9508      9510
      9509      9508      9511      9510      9508      9511      9508      9511      9512
      9508      9511      9513      9508      9511      9514      9512      9511      9513
      9512      9511      9514      9513      9511      9514      9511      9514      9515
      9511      9514      9516      9511      9514      9517      9515      9514      9516
      9515      9514      9517      9516      9514      9517      9514      9517      9518
      9514      9517      9519      9514      9517      9520      9518      9517      9519
      9518      9517      9520      9519      9517      9520      9517      9520      9521
      9517      9520      9522      9517      9520      9523      9521      9520      9522
      9521      9520      9523      9522      9520      9523      9525      9524      9526
      9525      9524      9527      9525      9524      9528      9526      9524      9527
      9526      9524      9528      9527      9524      9528      9524      9528      9529
      9524      9528      9530      9524      9528      9533      9529      9528      9530
      9529      9528      9533      9530      9528      9533      9528      9530      9531
      9528      9530      9532      9531      9530      9532      9528      9533      9534
      9528      9533      9535      9528      9533      9539      9534      9533      9535
      9534      9533      9539      9535      9533      9539      9537      9536      9538
      9537      9536      9539      9537      9536      9540      9538      9536      9539
      9538      9536      9540      9539      9536      9540      9533      9539      9536
      9536      9540      9541      9540      9541      9542      9540      9541      9543
      9540      9541      9544      9542      9541      9543      9542      9541      9544
      9543      9541      9544      9541      9544      9545      9541      9544      9546
      9541      9544      9552      9545      9544      9546      9545      9544      9552
      9546      9544      9552      9544      9546      9547      9546      9547      9548
      9546      9547      9549      9548      9547      9549      9547      9549      9550
      9547      9549      9551      9547      9549      9561      9550      9549      9551
      9550      9549      9561      9551      9549      9561      9544      9552      9553
      9544      9552      9554      9544      9552      9555      9553      9552      9554
      9553      9552      9555      9554      9552      9555      9552      9555      9556
      9555      9556      9557      9555      9556      9558      9557      9556      9558
      9556      9558      9559      9556      9558      9560      9556      9558      9608
      9559      9558      9560      9559      9558      9608      9560      9558      9608
      9549      9561      9562      9549      9561      9563      9549      9561      9564
      9562      9561      9563      9562      9561      9564      9563      9561      9564
      9561      9564      9565      9561      9564      9566      9561      9564      9567
      9565      9564      9566      9565      9564      9567      9566      9564      9567
      9564      9567      9568      9564      9567      9569      9564      9567      9570
      9568      9567      9569      9568      9567      9570      9569      9567      9570
      9567      9570      9571      9567      9570      9572      9567      9570      9573
      9571      9570      9572      9571      9570      9573      9572      9570      9573
      9570      9573      9574      9570      9573      9575      9570      9573      9576
      9574      9573      9575      9574      9573      9576      9575      9573      9576
      9573      9576      9577      9573      9576      9578      9573      9576      9579
      9577      9576      9578      9577      9576      9579      9578      9576      9579
      9576      9579      9580      9576      9579      9581      9580      9579      9581
      9579      9581      9582      9579      9581      9583      9582      9581      9583
      9581      9583      9584      9581      9583      9585      9581      9583      9586
      9584      9583      9585      9584      9583      9586      9585      9583      9586
      9583      9586      9587      9583      9586      9588      9583      9586      9589
      9587      9586      9588      9587      9586      9589      9588      9586      9589
      9586      9589      9590      9586      9589      9591      9586      9589      9592
      9590      9589      9591      9590      9589      9592      9591      9589      9592
      9589      9592      9593      9589      9592      9594      9589      9592      9595
      9593      9592      9594      9593      9592      9595      9594      9592      9595
      9592      9595      9596      9592      9595      9597      9592      9595      9598
      9596      9595      9597      9596      9595      9598      9597      9595      9598
      9595      9598      9599      9595      9598      9600      9595      9598      9601
      9599      9598      9600      9599      9598      9601      9600      9598      9601
      9598      9601      9602      9598      9601      9603      9598      9601      9604
      9602      9601      9603      9602      9601      9604      9603      9601      9604
      9601      9604      9605      9601      9604      9606      9601      9604      9607
      9605      9604      9606      9605      9604      9607      9606      9604      9607
      9558      9608      9609      9558      9608      9610      9558      9608      9611
      9609      9608      9610      9609      9608      9611      9610      9608      9611
      9608      9611      9612      9608      9611      9613      9608      9611      9614
      9612      9611      9613      9612      9611      9614      9613      9611      9614
      9611      9614      9615      9611      9614      9616      9611      9614      9617
      9615      9614      9616      9615      9614      9617      9616      9614      9617
      9614      9617      9618      9614      9617      9619      9614      9617      9620
      9618      9617      9619      9618      9617      9620      9619      9617      9620
      9617      9620      9621      9617      9620      9622      9617      9620      9623
      9621      9620      9622      9621      9620      9623      9622      9620      9623
      9620      9623      9624      9620      9623      9625      9620      9623      9626
      9624      9623      9625      9624      9623      9626      9625      9623      9626
      9623      9626      9627      9623      9626      9628      9623      9626      9629
      9627      9626      9628      9627      9626      9629      9628      9626      9629
      9626      9629      9630      9626      9629      9631      9626      9629      9632
      9630      9629      9631      9630      9629      9632      9631      9629      9632
      9629      9632      9633      9629      9632      9634      9629      9632      9635
      9633      9632      9634      9633      9632      9635      9634      9632      9635
      9632      9635      9636      9632      9635      9637      9632      9635      9638
      9636      9635      9637      9636      9635      9638      9637      9635      9638
      9635      9638      9639      9635      9638      9640      9635      9638      9641
      9639      9638      9640      9639      9638      9641      9640      9638      9641
      9638      9641      9642      9638      9641      9643      9638      9641      9644
      9642      9641      9643      9642      9641      9644      9643      9641      9644
      9641      9644      9645      9641      9644      9646      9641      9644      9647
      9645      9644      9646      9645      9644      9647      9646      9644      9647
      9644      9647      9648      9644      9647      9649      9644      9647      9650
      9648      9647      9649      9648      9647      9650      9649      9647      9650
      9652      9651      9655      9652      9651      9659      9652      9651      9663
      9655      9651      9659      9655      9651      9663      9659      9651      9663
      9651      9652      9653      9651      9652      9654      9651      9652      9667
      9653      9652      9654      9653      9652      9667      9654      9652      9667
      9651      9655      9656      9651      9655      9657      9651      9655      9658
      9656      9655      9657      9656      9655      9658      9657      9655      9658
      9651      9659      9660      9651      9659      9661      9651      9659      9662
      9660      9659      9661      9660      9659      9662      9661      9659      9662
      9651      9663      9664      9651      9663      9665      9651      9663      9666
      9664      9663      9665      9664      9663      9666      9665      9663      9666
      9652      9667      9668      9652      9667      9669      9652      9667      9673
      9668      9667      9669      9668      9667      9673      9669      9667      9673
      9671      9670      9672      9671      9670      9673      9671      9670      9674
      9672      9670      9673      9672      9670      9674      9673      9670      9674
      9667      9673      9670      9670      9674      9675      9674      9675      9676
      9674      9675      9677      9674      9675      9678      9676      9675      9677
      9676      9675      9678      9677      9675      9678      9675      9678      9679
      9675      9678      9680      9675      9678      9686      9679      9678      9680
      9679      9678      9686      9680      9678      9686      9678      9680      9681
      9680      9681      9682      9680      9681      9683      9682      9681      9683
      9681      9683      9684      9681      9683      9685      9681      9683      9695
      9684      9683      9685      9684      9683      9695      9685      9683      9695
      9678      9686      9687      9678      9686      9688      9678      9686      9689
      9687      9686      9688      9687      9686      9689      9688      9686      9689
      9686      9689      9690      9689      9690      9691      9689      9690      9692
      9691      9690      9692      9690      9692      9693      9690      9692      9694
      9690      9692      9742      9693      9692      9694      9693      9692      9742
      9694      9692      9742      9683      9695      9696      9683      9695      9697
      9683      9695      9698      9696      9695      9697      9696      9695      9698
      9697      9695      9698      9695      9698      9699      9695      9698      9700
      9695      9698      9701      9699      9698      9700      9699      9698      9701
      9700      9698      9701      9698      9701      9702      9698      9701      9703
      9698      9701      9704      9702      9701      9703      9702      9701      9704
      9703      9701      9704      9701      9704      9705      9701      9704      9706
      9701      9704      9707      9705      9704      9706      9705      9704      9707
      9706      9704      9707      9704      9707      9708      9704      9707      9709
      9704      9707      9710      9708      9707      9709      9708      9707      9710
      9709      9707      9710      9707      9710      9711      9707      9710      9712
      9707      9710      9713      9711      9710      9712      9711      9710      9713
      9712      9710      9713      9710      9713      9714      9710      9713      9715
      9714      9713      9715      9713      9715      9716      9713      9715      9717
      9716      9715      9717      9715      9717      9718      9715      9717      9719
      9715      9717      9720      9718      9717      9719      9718      9717      9720
      9719      9717      9720      9717      9720      9721      9717      9720      9722
      9717      9720      9723      9721      9720      9722      9721      9720      9723
      9722      9720      9723      9720      9723      9724      9720      9723      9725
      9720      9723      9726      9724      9723      9725      9724      9723      9726
      9725      9723      9726      9723      9726      9727      9723      9726      9728
      9723      9726      9729      9727      9726      9728      9727      9726      9729
      9728      9726      9729      9726      9729      9730      9726      9729      9731
      9726      9729      9732      9730      9729      9731      9730      9729      9732
      9731      9729      9732      9729      9732      9733      9729      9732      9734
      9729      9732      9735      9733      9732      9734      9733      9732      9735
      9734      9732      9735      9732      9735      9736      9732      9735      9737
      9732      9735      9738      9736      9735      9737      9736      9735      9738
      9737      9735      9738      9735      9738      9739      9735      9738      9740
      9735      9738      9741      9739      9738      9740      9739      9738      9741
      9740      9738      9741      9692      9742      9743      9692      9742      9744
      9692      9742      9745      9743      9742      9744      9743      9742      9745
      9744      9742      9745      9742      9745      9746      9742      9745      9747
      9742      9745      9748      9746      9745      9747      9746      9745      9748
      9747      9745      9748      9745      9748      9749      9745      9748      9750
      9745      9748      9751      9749      9748      9750      9749      9748      9751
      9750      9748      9751      9748      9751      9752      9748      9751      9753
      9748      9751      9754      9752      9751      9753      9752      9751      9754
      9753      9751      9754      9751      9754      9755      9751      9754      9756
      9751      9754      9757      9755      9754      9756      9755      9754      9757
      9756      9754      9757      9754      9757      9758      9754      9757      9759
      9754      9757      9760      9758      9757      9759      9758      9757      9760
      9759      9757      9760      9757      9760      9761      9757      9760      9762
      9757      9760      9763      9761      9760      9762      9761      9760      9763
      9762      9760      9763      9760      9763      9764      9760      9763      9765
      9760      9763      9766      9764      9763      9765      9764      9763      9766
      9765      9763      9766      9763      9766      9767      9763      9766      9768
      9763      9766      9769      9767      9766      9768      9767      9766      9769
      9768      9766      9769      9766      9769      9770      9766      9769      9771
      9766      9769      9772      9770      9769      9771      9770      9769      9772
      9771      9769      9772      9769      9772      9773      9769      9772      9774
      9769      9772      9775      9773      9772      9774      9773      9772      9775
      9774      9772      9775      9772      9775      9776      9772      9775      9777
      9772      9775      9778      9776      9775      9777      9776      9775      9778
      9777      9775      9778      9775      9778      9779      9775      9778      9780
      9775      9778      9781      9779      9778      9780      9779      9778      9781
      9780      9778      9781      9778      9781      9782      9778      9781      9783
      9778      9781      9784      9782      9781      9783      9782      9781      9784
      9783      9781      9784      9786      9785      9787      9786      9785      9788
      9786      9785      9789      9787      9785      9788      9787      9785      9789
      9788      9785      9789      9785      9789      9790      9785      9789      9791
      9785      9789      9792      9790      9789      9791      9790      9789      9792
      9791      9789      9792      9789      9792      9793      9789      9792      9794
      9789      9792      9799      9793      9792      9794      9793      9792      9799
      9794      9792      9799      9796      9795      9797      9796      9795      9798
      9796      9795      9799      9797      9795      9798      9797      9795      9799
      9798      9795      9799      9795      9798      9800      9792      9799      9795
      9798      9800      9801      9798      9800      9802      9798      9800      9803
      9801      9800      9802      9801      9800      9803      9802      9800      9803
      9800      9803      9804      9800      9803      9805      9800      9803      9811
      9804      9803      9805      9804      9803      9811      9805      9803      9811
      9803      9805      9806      9805      9806      9807      9805      9806      9808
      9807      9806      9808      9806      9808      9809      9806      9808      9810
      9806      9808      9820      9809      9808      9810      9809      9808      9820
      9810      9808      9820      9803      9811      9812      9803      9811      9813
      9803      9811      9814      9812      9811      9813      9812      9811      9814
      9813      9811      9814      9811      9814      9815      9814      9815      9816
      9814      9815      9817      9816      9815      9817      9815      9817      9818
      9815      9817      9819      9815      9817      9867      9818      9817      9819
      9818      9817      9867      9819      9817      9867      9808      9820      9821
      9808      9820      9822      9808      9820      9823      9821      9820      9822
      9821      9820      9823      9822      9820      9823      9820      9823      9824
      9820      9823      9825      9820      9823      9826      9824      9823      9825
      9824      9823      9826      9825      9823      9826      9823      9826      9827
      9823      9826      9828      9823      9826      9829      9827      9826      9828
      9827      9826      9829      9828      9826      9829      9826      9829      9830
      9826      9829      9831      9826      9829      9832      9830      9829      9831
      9830      9829      9832      9831      9829      9832      9829      9832      9833
      9829      9832      9834      9829      9832      9835      9833      9832      9834
      9833      9832      9835      9834      9832      9835      9832      9835      9836
      9832      9835      9837      9832      9835      9838      9836      9835      9837
      9836      9835      9838      9837      9835      9838      9835      9838      9839
      9835      9838      9840      9839      9838      9840      9838      9840      9841
      9838      9840      9842      9841      9840      9842      9840      9842      9843
      9840      9842      9844      9840      9842      9845      9843      9842      9844
      9843      9842      9845      9844      9842      9845      9842      9845      9846
      9842      9845      9847      9842      9845      9848      9846      9845      9847
      9846      9845      9848      9847      9845      9848      9845      9848      9849
      9845      9848      9850      9845      9848      9851      9849      9848      9850
      9849      9848      9851      9850      9848      9851      9848      9851      9852
      9848      9851      9853      9848      9851      9854      9852      9851      9853
      9852      9851      9854      9853      9851      9854      9851      9854      9855
      9851      9854      9856      9851      9854      9857      9855      9854      9856
      9855      9854      9857      9856      9854      9857      9854      9857      9858
      9854      9857      9859      9854      9857      9860      9858      9857      9859
      9858      9857      9860      9859      9857      9860      9857      9860      9861
      9857      9860      9862      9857      9860      9863      9861      9860      9862
      9861      9860      9863      9862      9860      9863      9860      9863      9864
      9860      9863      9865      9860      9863      9866      9864      9863      9865
      9864      9863      9866      9865      9863      9866      9817      9867      9868
      9817      9867      9869      9817      9867      9870      9868      9867      9869
      9868      9867      9870      9869      9867      9870      9867      9870      9871
      9867      9870      9872      9867      9870      9873      9871      9870      9872
      9871      9870      9873      9872      9870      9873      9870      9873      9874
      9870      9873      9875      9870      9873      9876      9874      9873      9875
      9874      9873      9876      9875      9873      9876      9873      9876      9877
      9873      9876      9878      9873      9876      9879      9877      9876      9878
      9877      9876      9879      9878      9876      9879      9876      9879      9880
      9876      9879      9881      9876      9879      9882      9880      9879      9881
      9880      9879      9882      9881      9879      9882      9879      9882      9883
      9879      9882      9884      9879      9882      9885      9883      9882      9884
      9883      9882      9885      9884      9882      9885      9882      9885      9886
      9882      9885      9887      9882      9885      9888      9886      9885      9887
      9886      9885      9888      9887      9885      9888      9885      9888      9889
      9885      9888      9890      9885      9888      9891      9889      9888      9890
      9889      9888      9891      9890      9888      9891      9888      9891      9892
      9888      9891      9893      9888      9891      9894      9892      9891      9893
      9892      9891      9894      9893      9891      9894      9891      9894      9895
      9891      9894      9896      9891      9894      9897      9895      9894      9896
      9895      9894      9897      9896      9894      9897      9894      9897      9898
      9894      9897      9899      9894      9897      9900      9898      9897      9899
      9898      9897      9900      9899      9897      9900      9897      9900      9901
      9897      9900      9902      9897      9900      9903      9901      9900      9902
      9901      9900      9903      9902      9900      9903      9900      9903      9904
      9900      9903      9905      9900      9903      9906      9904      9903      9905
      9904      9903      9906      9905      9903      9906      9903      9906      9907
      9903      9906      9908      9903      9906      9909      9907      9906      9908
      9907      9906      9909      9908      9906      9909      9911      9910      9914
      9911      9910      9918      9911      9910      9922      9914      9910      9918
      9914      9910      9922      9918      9910      9922      9910      9911      9912
      9910      9911      9913      9910      9911      9926      9912      9911      9913
      9912      9911      9926      9913      9911      9926      9910      9914      9915
      9910      9914      9916      9910      9914      9917      9915      9914      9916
      9915      9914      9917      9916      9914      9917      9910      9918      9919
      9910      9918      9920      9910      9918      9921      9919      9918      9920
      9919      9918      9921      9920      9918      9921      9910      9922      9923
      9910      9922      9924      9910      9922      9925      9923      9922      9924
      9923      9922      9925      9924      9922      9925      9911      9926      9927
      9911      9926      9928      9911      9926      9932      9927      9926      9928
      9927      9926      9932      9928      9926      9932      9930      9929      9931
      9930      9929      9932      9930      9929      9933      9931      9929      9932
      9931      9929      9933      9932      9929      9933      9926      9932      9929
      9929      9933      9934      9933      9934      9935      9933      9934      9936
      9933      9934      9937      9935      9934      9936      9935      9934      9937
      9936      9934      9937      9934      9937      9938      9934      9937      9939
      9934      9937      9945      9938      9937      9939      9938      9937      9945
      9939      9937      9945      9937      9939      9940      9939      9940      9941
      9939      9940      9942      9941      9940      9942      9940      9942      9943
      9940      9942      9944      9940      9942      9954      9943      9942      9944
      9943      9942      9954      9944      9942      9954      9937      9945      9946
      9937      9945      9947      9937      9945      9948      9946      9945      9947
      9946      9945      9948      9947      9945      9948      9945      9948      9949
      9948      9949      9950      9948      9949      9951      9950      9949      9951
      9949      9951      9952      9949      9951      9953      9949      9951     10001
      9952      9951      9953      9952      9951     10001      9953      9951     10001
      9942      9954      9955      9942      9954      9956      9942      9954      9957
      9955      9954      9956      9955      9954      9957      9956      9954      9957
      9954      9957      9958      9954      9957      9959      9954      9957      9960
      9958      9957      9959      9958      9957      9960      9959      9957      9960
      9957      9960      9961      9957      9960      9962      9957      9960      9963
      9961      9960      9962      9961      9960      9963      9962      9960      9963
      9960      9963      9964      9960      9963      9965      9960      9963      9966
      9964      9963      9965      9964      9963      9966      9965      9963      9966
      9963      9966      9967      9963      9966      9968      9963      9966      9969
      9967      9966      9968      9967      9966      9969      9968      9966      9969
      9966      9969      9970      9966      9969      9971      9966      9969      9972
      9970      9969      9971      9970      9969      9972      9971      9969      9972
      9969      9972      9973      9969      9972      9974      9973      9972      9974
      9972      9974      9975      9972      9974      9976      9975      9974      9976
      9974      9976      9977      9974      9976      9978      9974      9976      9979
      9977      9976      9978      9977      9976      9979      9978      9976      9979
      9976      9979      9980      9976      9979      9981      9976      9979      9982
      9980      9979      9981      9980      9979      9982      9981      9979      9982
      9979      9982      9983      9979      9982      9984      9979      9982      9985
      9983      9982      9984      9983      9982      9985      9984      9982      9985
      9982      9985      9986      9982      9985      9987      9982      9985      9988
      9986      9985      9987      9986      9985      9988      9987      9985      9988
      9985      9988      9989      9985      9988      9990      9985      9988      9991
      9989      9988      9990      9989      9988      9991      9990      9988      9991
      9988      9991      9992      9988      9991      9993      9988      9991      9994
      9992      9991      9993      9992      9991      9994      9993      9991      9994
      9991      9994      9995      9991      9994      9996      9991      9994      9997
      9995      9994      9996      9995      9994      9997      9996      9994      9997
      9994      9997      9998      9994      9997      9999      9994      9997     10000
      9998      9997      9999      9998      9997     10000      9999      9997     10000
      9951     10001     10002      9951     10001     10003      9951     10001     10004
     10002     10001     10003     10002     10001     10004     10003     10001     10004
     10001     10004     10005     10001     10004     10006     10001     10004     10007
     10005     10004     10006     10005     10004     10007     10006     10004     10007
     10004     10007     10008     10004     10007     10009     10004     10007     10010
     10008     10007     10009     10008     10007     10010     10009     10007     10010
     10007     10010     10011     10007     10010     10012     10007     10010     10013
     10011     10010     10012     10011     10010     10013     10012     10010     10013
     10010     10013     10014     10010     10013     10015     10010     10013     10016
     10014     10013     10015     10014     10013     10016     10015     10013     10016
     10013     10016     10017     10013     10016     10018     10013     10016     10019
     10017     10016     10018     10017     10016     10019     10018     10016     10019
     10016     10019     10020     10016     10019     10021     10016     10019     10022
     10020     10019     10021     10020     10019     10022     10021     10019     10022
     10019     10022     10023     10019     10022     10024     10019     10022     10025
     10023     10022     10024     10023     10022     10025     10024     10022     10025
     10022     10025     10026     10022     10025     10027     10022     10025     10028
     10026     10025     10027     10026     10025     10028     10027     10025     10028
     10025     10028     10029     10025     10028     10030     10025     10028     10031
     10029     10028     10030     10029     10028     10031     10030     10028     10031
     10028     10031     10032     10028     10031     10033     10028     10031     10034
     10032     10031     10033     10032     10031     10034     10033     10031     10034
     10031     10034     10035     10031     10034     10036     10031     10034     10037
     10035     10034     10036     10035     10034     10037     10036     10034     10037
     10034     10037     10038     10034     10037     10039     10034     10037     10040
     10038     10037     10039     10038     10037     10040     10039     10037     10040
     10037     10040     10041     10037     10040     10042     10037     10040     10043
     10041     10040     10042     10041     10040     10043     10042     10040     10043
     10045     10044     10049     10045     10044     10053     10045     10044     10057
     10049     10044     10053     10049     10044     10057     10053     10044     10057
     10044     10045     10046     10044     10045     10047     10044     10045     10048
     10046     10045     10047     10046     10045     10048     10047     10045     10048
     10044     10049     10050     10044     10049     10051     10044     10049     10052
     10050     10049     10051     10050     10049     10052     10051     10049     10052
     10044     10053     10054     10044     10053     10055     10044     10053     10056
     10054     10053     10055     10054     10053     10056     10055     10053     10056
     10044     10057     10058     10044     10057     10059     10044     10057     10060
     10058     10057     10059     10058     10057     10060     10059     10057     10060
     10057     10060     10061     10057     10060     10062     10057     10060     10067
     10061     10060     10062     10061     10060     10067     10062     10060     10067
     10064     10063     10065     10064     10063     10066     10064     10063     10067
     10065     10063     10066     10065     10063     10067     10066     10063     10067
     10063     10066     10068     10060     10067     10063     10066     10068     10069
     10066     10068     10070     10066     10068     10073     10069     10068     10070
     10069     10068     10073     10070     10068     10073     10072     10071     10073
     10072     10071     10123     10073     10071     10123     10068     10073     10071
     10068     10073     10074     10068     10073     10075     10071     10073     10074
     10071     10073     10075     10074     10073     10075     10073     10075     10076
     10073     10075     10077     10073     10075     10079     10076     10075     10077
     10076     10075     10079     10077     10075     10079     10075     10077     10078
     10075     10079     10080     10075     10079     10081     10080     10079     10081
     10079     10081     10082     10079     10081     10083     10082     10081     10083
     10081     10083     10084     10081     10083     10085     10081     10083     10086
     10084     10083     10085     10084     10083     10086     10085     10083     10086
     10083     10086     10087     10083     10086     10088     10083     10086     10089
     10087     10086     10088     10087     10086     10089     10088     10086     10089
     10086     10089     10090     10086     10089     10091     10086     10089     10092
     10090     10089     10091     10090     10089     10092     10091     10089     10092
     10089     10092     10093     10089     10092     10094     10089     10092     10095
     10093     10092     10094     10093     10092     10095     10094     10092     10095
     10092     10095     10096     10092     10095     10097     10092     10095     10098
     10096     10095     10097     10096     10095     10098     10097     10095     10098
     10095     10098     10099     10095     10098     10100     10095     10098     10101
     10099     10098     10100     10099     10098     10101     10100     10098     10101
     10098     10101     10102     10098     10101     10103     10098     10101     10104
     10102     10101     10103     10102     10101     10104     10103     10101     10104
     10101     10104     10105     10101     10104     10106     10101     10104     10107
     10105     10104     10106     10105     10104     10107     10106     10104     10107
     10104     10107     10108     10104     10107     10109     10104     10107     10110
     10108     10107     10109     10108     10107     10110     10109     10107     10110
     10107     10110     10111     10107     10110     10112     10107     10110     10113
     10111     10110     10112     10111     10110     10113     10112     10110     10113
     10110     10113     10114     10110     10113     10115     10110     10113     10116
     10114     10113     10115     10114     10113     10116     10115     10113     10116
     10113     10116     10117     10113     10116     10118     10113     10116     10119
     10117     10116     10118     10117     10116     10119     10118     10116     10119
     10116     10119     10120     10116     10119     10121     10116     10119     10122
     10120     10119     10121     10120     10119     10122     10121     10119     10122
     10071     10123     10124     10071     10123     10125     10124     10123     10125
     10123     10125     10126     10123     10125     10127     10123     10125     10128
     10126     10125     10127     10126     10125     10128     10127     10125     10128
     10125     10128     10129     10125     10128     10130     10125     10128     10131
     10129     10128     10130     10129     10128     10131     10130     10128     10131
     10128     10131     10132     10128     10131     10133     10128     10131     10134
     10132     10131     10133     10132     10131     10134     10133     10131     10134
     10131     10134     10135     10131     10134     10136     10131     10134     10137
     10135     10134     10136     10135     10134     10137     10136     10134     10137
     10134     10137     10138     10134     10137     10139     10134     10137     10140
     10138     10137     10139     10138     10137     10140     10139     10137     10140
     10137     10140     10141     10137     10140     10142     10137     10140     10143
     10141     10140     10142     10141     10140     10143     10142     10140     10143
     10140     10143     10144     10140     10143     10145     10140     10143     10146
     10144     10143     10145     10144     10143     10146     10145     10143     10146
     10143     10146     10147     10143     10146     10148     10143     10146     10149
     10147     10146     10148     10147     10146     10149     10148     10146     10149
     10146     10149     10150     10146     10149     10151     10146     10149     10152
     10150     10149     10151     10150     10149     10152     10151     10149     10152
     10149     10152     10153     10149     10152     10154     10149     10152     10155
     10153     10152     10154     10153     10152     10155     10154     10152     10155
     10152     10155     10156     10152     10155     10157     10152     10155     10158
     10156     10155     10157     10156     10155     10158     10157     10155     10158
     10155     10158     10159     10155     10158     10160     10155     10158     10161
     10159     10158     10160     10159     10158     10161     10160     10158     10161
     10158     10161     10162     10158     10161     10163     10158     10161     10164
     10162     10161     10163     10162     10161     10164     10163     10161     10164
     10161     10164     10165     10161     10164     10166     10161     10164     10167
     10165     10164     10166     10165     10164     10167     10166     10164     10167
     10164     10167     10168     10164     10167     10169     10164     10167     10170
     10168     10167     10169     10168     10167     10170     10169     10167     10170
     10172     10171     10175     10172     10171     10179     10172     10171     10183
     10175     10171     10179     10175     10171     10183     10179     10171     10183
     10171     10172     10173     10171     10172     10174     10171     10172     10187
     10173     10172     10174     10173     10172     10187     10174     10172     10187
     10171     10175     10176     10171     10175     10177     10171     10175     10178
     10176     10175     10177     10176     10175     10178     10177     10175     10178
     10171     10179     10180     10171     10179     10181     10171     10179     10182
     10180     10179     10181     10180     10179     10182     10181     10179     10182
     10171     10183     10184     10171     10183     10185     10171     10183     10186
     10184     10183     10185     10184     10183     10186     10185     10183     10186
     10172     10187     10188     10172     10187     10189     10172     10187     10193
     10188     10187     10189     10188     10187     10193     10189     10187     10193
     10191     10190     10192     10191     10190     10193     10191     10190     10194
     10192     10190     10193     10192     10190     10194     10193     10190     10194
     10187     10193     10190     10190     10194     10195     10194     10195     10196
     10194     10195     10197     10194     10195     10198     10196     10195     10197
     10196     10195     10198     10197     10195     10198     10195     10198     10199
     10195     10198     10200     10195     10198     10206     10199     10198     10200
     10199     10198     10206     10200     10198     10206     10198     10200     10201
     10200     10201     10202     10200     10201     10203     10202     10201     10203
     10201     10203     10204     10201     10203     10205     10201     10203     10215
     10204     10203     10205     10204     10203     10215     10205     10203     10215
     10198     10206     10207     10198     10206     10208     10198     10206     10209
     10207     10206     10208     10207     10206     10209     10208     10206     10209
     10206     10209     10210     10209     10210     10211     10209     10210     10212
     10211     10210     10212     10210     10212     10213     10210     10212     10214
     10210     10212     10262     10213     10212     10214     10213     10212     10262
     10214     10212     10262     10203     10215     10216     10203     10215     10217
     10203     10215     10218     10216     10215     10217     10216     10215     10218
     10217     10215     10218     10215     10218     10219     10215     10218     10220
     10215     10218     10221     10219     10218     10220     10219     10218     10221
     10220     10218     10221     10218     10221     10222     10218     10221     10223
     10218     10221     10224     10222     10221     10223     10222     10221     10224
     10223     10221     10224     10221     10224     10225     10221     10224     10226
     10221     10224     10227     10225     10224     10226     10225     10224     10227
     10226     10224     10227     10224     10227     10228     10224     10227     10229
     10224     10227     10230     10228     10227     10229     10228     10227     10230
     10229     10227     10230     10227     10230     10231     10227     10230     10232
     10227     10230     10233     10231     10230     10232     10231     10230     10233
     10232     10230     10233     10230     10233     10234     10230     10233     10235
     10234     10233     10235     10233     10235     10236     10233     10235     10237
     10236     10235     10237     10235     10237     10238     10235     10237     10239
     10235     10237     10240     10238     10237     10239     10238     10237     10240
     10239     10237     10240     10237     10240     10241     10237     10240     10242
     10237     10240     10243     10241     10240     10242     10241     10240     10243
     10242     10240     10243     10240     10243     10244     10240     10243     10245
     10240     10243     10246     10244     10243     10245     10244     10243     10246
     10245     10243     10246     10243     10246     10247     10243     10246     10248
     10243     10246     10249     10247     10246     10248     10247     10246     10249
     10248     10246     10249     10246     10249     10250     10246     10249     10251
     10246     10249     10252     10250     10249     10251     10250     10249     10252
     10251     10249     10252     10249     10252     10253     10249     10252     10254
     10249     10252     10255     10253     10252     10254     10253     10252     10255
     10254     10252     10255     10252     10255     10256     10252     10255     10257
     10252     10255     10258     10256     10255     10257     10256     10255     10258
     10257     10255     10258     10255     10258     10259     10255     10258     10260
     10255     10258     10261     10259     10258     10260     10259     10258     10261
     10260     10258     10261     10212     10262     10263     10212     10262     10264
     10212     10262     10265     10263     10262     10264     10263     10262     10265
     10264     10262     10265     10262     10265     10266     10262     10265     10267
     10262     10265     10268     10266     10265     10267     10266     10265     10268
     10267     10265     10268     10265     10268     10269     10265     10268     10270
     10265     10268     10271     10269     10268     10270     10269     10268     10271
     10270     10268     10271     10268     10271     10272     10268     10271     10273
     10268     10271     10274     10272     10271     10273     10272     10271     10274
     10273     10271     10274     10271     10274     10275     10271     10274     10276
     10271     10274     10277     10275     10274     10276     10275     10274     10277
     10276     10274     10277     10274     10277     10278     10274     10277     10279
     10274     10277     10280     10278     10277     10279     10278     10277     10280
     10279     10277     10280     10277     10280     10281     10277     10280     10282
     10277     10280     10283     10281     10280     10282     10281     10280     10283
     10282     10280     10283     10280     10283     10284     10280     10283     10285
     10280     10283     10286     10284     10283     10285     10284     10283     10286
     10285     10283     10286     10283     10286     10287     10283     10286     10288
     10283     10286     10289     10287     10286     10288     10287     10286     10289
     10288     10286     10289     10286     10289     10290     10286     10289     10291
     10286     10289     10292     10290     10289     10291     10290     10289     10292
     10291     10289     10292     10289     10292     10293     10289     10292     10294
     10289     10292     10295     10293     10292     10294     10293     10292     10295
     10294     10292     10295     10292     10295     10296     10292     10295     10297
     10292     10295     10298     10296     10295     10297     10296     10295     10298
     10297     10295     10298     10295     10298     10299     10295     10298     10300
     10295     10298     10301     10299     10298     10300     10299     10298     10301
     10300     10298     10301     10298     10301     10302     10298     10301     10303
     10298     10301     10304     10302     10301     10303     10302     10301     10304
     10303     10301     10304     10306     10305     10307     10306     10305     10308
     10306     10305     10309     10307     10305     10308     10307     10305     10309
     10308     10305     10309     10305     10309     10310     10305     10309     10311
     10305     10309     10312     10310     10309     10311     10310     10309     10312
     10311     10309     10312     10309     10312     10313     10309     10312     10314
     10309     10312     10319     10313     10312     10314     10313     10312     10319
     10314     10312     10319     10316     10315     10317     10316     10315     10318
     10316     10315     10319     10317     10315     10318     10317     10315     10319
     10318     10315     10319     10315     10318     10320     10312     10319     10315
     10318     10320     10321     10318     10320     10322     10318     10320     10323
     10321     10320     10322     10321     10320     10323     10322     10320     10323
     10320     10323     10324     10320     10323     10325     10320     10323     10331
     10324     10323     10325     10324     10323     10331     10325     10323     10331
     10323     10325     10326     10325     10326     10327     10325     10326     10328
     10327     10326     10328     10326     10328     10329     10326     10328     10330
     10326     10328     10340     10329     10328     10330     10329     10328     10340
     10330     10328     10340     10323     10331     10332     10323     10331     10333
     10323     10331     10334     10332     10331     10333     10332     10331     10334
     10333     10331     10334     10331     10334     10335     10334     10335     10336
     10334     10335     10337     10336     10335     10337     10335     10337     10338
     10335     10337     10339     10335     10337     10387     10338     10337     10339
     10338     10337     10387     10339     10337     10387     10328     10340     10341
     10328     10340     10342     10328     10340     10343     10341     10340     10342
     10341     10340     10343     10342     10340     10343     10340     10343     10344
     10340     10343     10345     10340     10343     10346     10344     10343     10345
     10344     10343     10346     10345     10343     10346     10343     10346     10347
     10343     10346     10348     10343     10346     10349     10347     10346     10348
     10347     10346     10349     10348     10346     10349     10346     10349     10350
     10346     10349     10351     10346     10349     10352     10350     10349     10351
     10350     10349     10352     10351     10349     10352     10349     10352     10353
     10349     10352     10354     10349     10352     10355     10353     10352     10354
     10353     10352     10355     10354     10352     10355     10352     10355     10356
     10352     10355     10357     10352     10355     10358     10356     10355     10357
     10356     10355     10358     10357     10355     10358     10355     10358     10359
     10355     10358     10360     10359     10358     10360     10358     10360     10361
     10358     10360     10362     10361     10360     10362     10360     10362     10363
     10360     10362     10364     10360     10362     10365     10363     10362     10364
     10363     10362     10365     10364     10362     10365     10362     10365     10366
     10362     10365     10367     10362     10365     10368     10366     10365     10367
     10366     10365     10368     10367     10365     10368     10365     10368     10369
     10365     10368     10370     10365     10368     10371     10369     10368     10370
     10369     10368     10371     10370     10368     10371     10368     10371     10372
     10368     10371     10373     10368     10371     10374     10372     10371     10373
     10372     10371     10374     10373     10371     10374     10371     10374     10375
     10371     10374     10376     10371     10374     10377     10375     10374     10376
     10375     10374     10377     10376     10374     10377     10374     10377     10378
     10374     10377     10379     10374     10377     10380     10378     10377     10379
     10378     10377     10380     10379     10377     10380     10377     10380     10381
     10377     10380     10382     10377     10380     10383     10381     10380     10382
     10381     10380     10383     10382     10380     10383     10380     10383     10384
     10380     10383     10385     10380     10383     10386     10384     10383     10385
     10384     10383     10386     10385     10383     10386     10337     10387     10388
     10337     10387     10389     10337     10387     10390     10388     10387     10389
     10388     10387     10390     10389     10387     10390     10387     10390     10391
     10387     10390     10392     10387     10390     10393     10391     10390     10392
     10391     10390     10393     10392     10390     10393     10390     10393     10394
     10390     10393     10395     10390     10393     10396     10394     10393     10395
     10394     10393     10396     10395     10393     10396     10393     10396     10397
     10393     10396     10398     10393     10396     10399     10397     10396     10398
     10397     10396     10399     10398     10396     10399     10396     10399     10400
     10396     10399     10401     10396     10399     10402     10400     10399     10401
     10400     10399     10402     10401     10399     10402     10399     10402     10403
     10399     10402     10404     10399     10402     10405     10403     10402     10404
     10403     10402     10405     10404     10402     10405     10402     10405     10406
     10402     10405     10407     10402     10405     10408     10406     10405     10407
     10406     10405     10408     10407     10405     10408     10405     10408     10409
     10405     10408     10410     10405     10408     10411     10409     10408     10410
     10409     10408     10411     10410     10408     10411     10408     10411     10412
     10408     10411     10413     10408     10411     10414     10412     10411     10413
     10412     10411     10414     10413     10411     10414     10411     10414     10415
     10411     10414     10416     10411     10414     10417     10415     10414     10416
     10415     10414     10417     10416     10414     10417     10414     10417     10418
     10414     10417     10419     10414     10417     10420     10418     10417     10419
     10418     10417     10420     10419     10417     10420     10417     10420     10421
     10417     10420     10422     10417     10420     10423     10421     10420     10422
     10421     10420     10423     10422     10420     10423     10420     10423     10424
     10420     10423     10425     10420     10423     10426     10424     10423     10425
     10424     10423     10426     10425     10423     10426     10423     10426     10427
     10423     10426     10428     10423     10426     10429     10427     10426     10428
     10427     10426     10429     10428     10426     10429     10431     10430     10432
     10431     10430     10433     10431     10430     10434     10432     10430     10433
     10432     10430     10434     10433     10430     10434     10430     10434     10435
     10430     10434     10436     10430     10434     10437     10435     10434     10436
     10435     10434     10437     10436     10434     10437     10434     10437     10438
     10434     10437     10439     10434     10437     10444     10438     10437     10439
     10438     10437     10444     10439     10437     10444     10441     10440     10442
     10441     10440     10443     10441     10440     10444     10442     10440     10443
     10442     10440     10444     10443     10440     10444     10440     10443     10445
     10437     10444     10440     10443     10445     10446     10443     10445     10447
     10443     10445     10448     10446     10445     10447     10446     10445     10448
     10447     10445     10448     10445     10448     10449     10445     10448     10450
     10445     10448     10456     10449     10448     10450     10449     10448     10456
     10450     10448     10456     10448     10450     10451     10450     10451     10452
     10450     10451     10453     10452     10451     10453     10451     10453     10454
     10451     10453     10455     10451     10453     10465     10454     10453     10455
     10454     10453     10465     10455     10453     10465     10448     10456     10457
     10448     10456     10458     10448     10456     10459     10457     10456     10458
     10457     10456     10459     10458     10456     10459     10456     10459     10460
     10459     10460     10461     10459     10460     10462     10461     10460     10462
     10460     10462     10463     10460     10462     10464     10460     10462     10512
     10463     10462     10464     10463     10462     10512     10464     10462     10512
     10453     10465     10466     10453     10465     10467     10453     10465     10468
     10466     10465     10467     10466     10465     10468     10467     10465     10468
     10465     10468     10469     10465     10468     10470     10465     10468     10471
     10469     10468     10470     10469     10468     10471     10470     10468     10471
     10468     10471     10472     10468     10471     10473     10468     10471     10474
     10472     10471     10473     10472     10471     10474     10473     10471     10474
     10471     10474     10475     10471     10474     10476     10471     10474     10477
     10475     10474     10476     10475     10474     10477     10476     10474     10477
     10474     10477     10478     10474     10477     10479     10474     10477     10480
     10478     10477     10479     10478     10477     10480     10479     10477     10480
     10477     10480     10481     10477     10480     10482     10477     10480     10483
     10481     10480     10482     10481     10480     10483     10482     10480     10483
     10480     10483     10484     10480     10483     10485     10484     10483     10485
     10483     10485     10486     10483     10485     10487     10486     10485     10487
     10485     10487     10488     10485     10487     10489     10485     10487     10490
     10488     10487     10489     10488     10487     10490     10489     10487     10490
     10487     10490     10491     10487     10490     10492     10487     10490     10493
     10491     10490     10492     10491     10490     10493     10492     10490     10493
     10490     10493     10494     10490     10493     10495     10490     10493     10496
     10494     10493     10495     10494     10493     10496     10495     10493     10496
     10493     10496     10497     10493     10496     10498     10493     10496     10499
     10497     10496     10498     10497     10496     10499     10498     10496     10499
     10496     10499     10500     10496     10499     10501     10496     10499     10502
     10500     10499     10501     10500     10499     10502     10501     10499     10502
     10499     10502     10503     10499     10502     10504     10499     10502     10505
     10503     10502     10504     10503     10502     10505     10504     10502     10505
     10502     10505     10506     10502     10505     10507     10502     10505     10508
     10506     10505     10507     10506     10505     10508     10507     10505     10508
     10505     10508     10509     10505     10508     10510     10505     10508     10511
     10509     10508     10510     10509     10508     10511     10510     10508     10511
     10462     10512     10513     10462     10512     10514     10462     10512     10515
     10513     10512     10514     10513     10512     10515     10514     10512     10515
     10512     10515     10516     10512     10515     10517     10512     10515     10518
     10516     10515     10517     10516     10515     10518     10517     10515     10518
     10515     10518     10519     10515     10518     10520     10515     10518     10521
     10519     10518     10520     10519     10518     10521     10520     10518     10521
     10518     10521     10522     10518     10521     10523     10518     10521     10524
     10522     10521     10523     10522     10521     10524     10523     10521     10524
     10521     10524     10525     10521     10524     10526     10521     10524     10527
     10525     10524     10526     10525     10524     10527     10526     10524     10527
     10524     10527     10528     10524     10527     10529     10524     10527     10530
     10528     10527     10529     10528     10527     10530     10529     10527     10530
     10527     10530     10531     10527     10530     10532     10527     10530     10533
     10531     10530     10532     10531     10530     10533     10532     10530     10533
     10530     10533     10534     10530     10533     10535     10530     10533     10536
     10534     10533     10535     10534     10533     10536     10535     10533     10536
     10533     10536     10537     10533     10536     10538     10533     10536     10539
     10537     10536     10538     10537     10536     10539     10538     10536     10539
     10536     10539     10540     10536     10539     10541     10536     10539     10542
     10540     10539     10541     10540     10539     10542     10541     10539     10542
     10539     10542     10543     10539     10542     10544     10539     10542     10545
     10543     10542     10544     10543     10542     10545     10544     10542     10545
     10542     10545     10546     10542     10545     10547     10542     10545     10548
     10546     10545     10547     10546     10545     10548     10547     10545     10548
     10545     10548     10549     10545     10548     10550     10545     10548     10551
     10549     10548     10550     10549     10548     10551     10550     10548     10551
     10548     10551     10552     10548     10551     10553     10548     10551     10554
     10552     10551     10553     10552     10551     10554     10553     10551     10554
     10556     10555     10557     10556     10555     10558     10556     10555     10559
     10557     10555     10558     10557     10555     10559     10558     10555     10559
     10555     10559     10560     10555     10559     10561     10555     10559     10562
     10560     10559     10561     10560     10559     10562     10561     10559     10562
     10559     10562     10563     10559     10562     10564     10559     10562     10569
     10563     10562     10564     10563     10562     10569     10564     10562     10569
     10566     10565     10567     10566     10565     10568     10566     10565     10569
     10567     10565     10568     10567     10565     10569     10568     10565     10569
     10565     10568     10570     10562     10569     10565     10568     10570     10571
     10568     10570     10572     10568     10570     10573     10571     10570     10572
     10571     10570     10573     10572     10570     10573     10570     10573     10574
     10570     10573     10575     10570     10573     10581     10574     10573     10575
     10574     10573     10581     10575     10573     10581     10573     10575     10576
     10575     10576     10577     10575     10576     10578     10577     10576     10578
     10576     10578     10579     10576     10578     10580     10576     10578     10590
     10579     10578     10580     10579     10578     10590     10580     10578     10590
     10573     10581     10582     10573     10581     10583     10573     10581     10584
     10582     10581     10583     10582     10581     10584     10583     10581     10584
     10581     10584     10585     10584     10585     10586     10584     10585     10587
     10586     10585     10587     10585     10587     10588     10585     10587     10589
     10585     10587     10637     10588     10587     10589     10588     10587     10637
     10589     10587     10637     10578     10590     10591     10578     10590     10592
     10578     10590     10593     10591     10590     10592     10591     10590     10593
     10592     10590     10593     10590     10593     10594     10590     10593     10595
     10590     10593     10596     10594     10593     10595     10594     10593     10596
     10595     10593     10596     10593     10596     10597     10593     10596     10598
     10593     10596     10599     10597     10596     10598     10597     10596     10599
     10598     10596     10599     10596     10599     10600     10596     10599     10601
     10596     10599     10602     10600     10599     10601     10600     10599     10602
     10601     10599     10602     10599     10602     10603     10599     10602     10604
     10599     10602     10605     10603     10602     10604     10603     10602     10605
     10604     10602     10605     10602     10605     10606     10602     10605     10607
     10602     10605     10608     10606     10605     10607     10606     10605     10608
     10607     10605     10608     10605     10608     10609     10605     10608     10610
     10609     10608     10610     10608     10610     10611     10608     10610     10612
     10611     10610     10612     10610     10612     10613     10610     10612     10614
     10610     10612     10615     10613     10612     10614     10613     10612     10615
     10614     10612     10615     10612     10615     10616     10612     10615     10617
     10612     10615     10618     10616     10615     10617     10616     10615     10618
     10617     10615     10618     10615     10618     10619     10615     10618     10620
     10615     10618     10621     10619     10618     10620     10619     10618     10621
     10620     10618     10621     10618     10621     10622     10618     10621     10623
     10618     10621     10624     10622     10621     10623     10622     10621     10624
     10623     10621     10624     10621     10624     10625     10621     10624     10626
     10621     10624     10627     10625     10624     10626     10625     10624     10627
     10626     10624     10627     10624     10627     10628     10624     10627     10629
     10624     10627     10630     10628     10627     10629     10628     10627     10630
     10629     10627     10630     10627     10630     10631     10627     10630     10632
     10627     10630     10633     10631     10630     10632     10631     10630     10633
     10632     10630     10633     10630     10633     10634     10630     10633     10635
     10630     10633     10636     10634     10633     10635     10634     10633     10636
     10635     10633     10636     10587     10637     10638     10587     10637     10639
     10587     10637     10640     10638     10637     10639     10638     10637     10640
     10639     10637     10640     10637     10640     10641     10637     10640     10642
     10637     10640     10643     10641     10640     10642     10641     10640     10643
     10642     10640     10643     10640     10643     10644     10640     10643     10645
     10640     10643     10646     10644     10643     10645     10644     10643     10646
     10645     10643     10646     10643     10646     10647     10643     10646     10648
     10643     10646     10649     10647     10646     10648     10647     10646     10649
     10648     10646     10649     10646     10649     10650     10646     10649     10651
     10646     10649     10652     10650     10649     10651     10650     10649     10652
     10651     10649     10652     10649     10652     10653     10649     10652     10654
     10649     10652     10655     10653     10652     10654     10653     10652     10655
     10654     10652     10655     10652     10655     10656     10652     10655     10657
     10652     10655     10658     10656     10655     10657     10656     10655     10658
     10657     10655     10658     10655     10658     10659     10655     10658     10660
     10655     10658     10661     10659     10658     10660     10659     10658     10661
     10660     10658     10661     10658     10661     10662     10658     10661     10663
     10658     10661     10664     10662     10661     10663     10662     10661     10664
     10663     10661     10664     10661     10664     10665     10661     10664     10666
     10661     10664     10667     10665     10664     10666     10665     10664     10667
     10666     10664     10667     10664     10667     10668     10664     10667     10669
     10664     10667     10670     10668     10667     10669     10668     10667     10670
     10669     10667     10670     10667     10670     10671     10667     10670     10672
     10667     10670     10673     10671     10670     10672     10671     10670     10673
     10672     10670     10673     10670     10673     10674     10670     10673     10675
     10670     10673     10676     10674     10673     10675     10674     10673     10676
     10675     10673     10676     10673     10676     10677     10673     10676     10678
     10673     10676     10679     10677     10676     10678     10677     10676     10679
     10678     10676     10679     10681     10680     10682     10681     10680     10683
     10681     10680     10684     10682     10680     10683     10682     10680     10684
     10683     10680     10684     10680     10684     10685     10680     10684     10686
     10680     10684     10687     10685     10684     10686     10685     10684     10687
     10686     10684     10687     10684     10687     10688     10684     10687     10689
     10684     10687     10694     10688     10687     10689     10688     10687     10694
     10689     10687     10694     10691     10690     10692     10691     10690     10693
     10691     10690     10694     10692     10690     10693     10692     10690     10694
     10693     10690     10694     10690     10693     10695     10687     10694     10690
     10693     10695     10696     10693     10695     10697     10693     10695     10698
     10696     10695     10697     10696     10695     10698     10697     10695     10698
     10695     10698     10699     10695     10698     10700     10695     10698     10706
     10699     10698     10700     10699     10698     10706     10700     10698     10706
     10698     10700     10701     10700     10701     10702     10700     10701     10703
     10702     10701     10703     10701     10703     10704     10701     10703     10705
     10701     10703     10715     10704     10703     10705     10704     10703     10715
     10705     10703     10715     10698     10706     10707     10698     10706     10708
     10698     10706     10709     10707     10706     10708     10707     10706     10709
     10708     10706     10709     10706     10709     10710     10709     10710     10711
     10709     10710     10712     10711     10710     10712     10710     10712     10713
     10710     10712     10714     10710     10712     10762     10713     10712     10714
     10713     10712     10762     10714     10712     10762     10703     10715     10716
     10703     10715     10717     10703     10715     10718     10716     10715     10717
     10716     10715     10718     10717     10715     10718     10715     10718     10719
     10715     10718     10720     10715     10718     10721     10719     10718     10720
     10719     10718     10721     10720     10718     10721     10718     10721     10722
     10718     10721     10723     10718     10721     10724     10722     10721     10723
     10722     10721     10724     10723     10721     10724     10721     10724     10725
     10721     10724     10726     10721     10724     10727     10725     10724     10726
     10725     10724     10727     10726     10724     10727     10724     10727     10728
     10724     10727     10729     10724     10727     10730     10728     10727     10729
     10728     10727     10730     10729     10727     10730     10727     10730     10731
     10727     10730     10732     10727     10730     10733     10731     10730     10732
     10731     10730     10733     10732     10730     10733     10730     10733     10734
     10730     10733     10735     10734     10733     10735     10733     10735     10736
     10733     10735     10737     10736     10735     10737     10735     10737     10738
     10735     10737     10739     10735     10737     10740     10738     10737     10739
     10738     10737     10740     10739     10737     10740     10737     10740     10741
     10737     10740     10742     10737     10740     10743     10741     10740     10742
     10741     10740     10743     10742     10740     10743     10740     10743     10744
     10740     10743     10745     10740     10743     10746     10744     10743     10745
     10744     10743     10746     10745     10743     10746     10743     10746     10747
     10743     10746     10748     10743     10746     10749     10747     10746     10748
     10747     10746     10749     10748     10746     10749     10746     10749     10750
     10746     10749     10751     10746     10749     10752     10750     10749     10751
     10750     10749     10752     10751     10749     10752     10749     10752     10753
     10749     10752     10754     10749     10752     10755     10753     10752     10754
     10753     10752     10755     10754     10752     10755     10752     10755     10756
     10752     10755     10757     10752     10755     10758     10756     10755     10757
     10756     10755     10758     10757     10755     10758     10755     10758     10759
     10755     10758     10760     10755     10758     10761     10759     10758     10760
     10759     10758     10761     10760     10758     10761     10712     10762     10763
     10712     10762     10764     10712     10762     10765     10763     10762     10764
     10763     10762     10765     10764     10762     10765     10762     10765     10766
     10762     10765     10767     10762     10765     10768     10766     10765     10767
     10766     10765     10768     10767     10765     10768     10765     10768     10769
     10765     10768     10770     10765     10768     10771     10769     10768     10770
     10769     10768     10771     10770     10768     10771     10768     10771     10772
     10768     10771     10773     10768     10771     10774     10772     10771     10773
     10772     10771     10774     10773     10771     10774     10771     10774     10775
     10771     10774     10776     10771     10774     10777     10775     10774     10776
     10775     10774     10777     10776     10774     10777     10774     10777     10778
     10774     10777     10779     10774     10777     10780     10778     10777     10779
     10778     10777     10780     10779     10777     10780     10777     10780     10781
     10777     10780     10782     10777     10780     10783     10781     10780     10782
     10781     10780     10783     10782     10780     10783     10780     10783     10784
     10780     10783     10785     10780     10783     10786     10784     10783     10785
     10784     10783     10786     10785     10783     10786     10783     10786     10787
     10783     10786     10788     10783     10786     10789     10787     10786     10788
     10787     10786     10789     10788     10786     10789     10786     10789     10790
     10786     10789     10791     10786     10789     10792     10790     10789     10791
     10790     10789     10792     10791     10789     10792     10789     10792     10793
     10789     10792     10794     10789     10792     10795     10793     10792     10794
     10793     10792     10795     10794     10792     10795     10792     10795     10796
     10792     10795     10797     10792     10795     10798     10796     10795     10797
     10796     10795     10798     10797     10795     10798     10795     10798     10799
     10795     10798     10800     10795     10798     10801     10799     10798     10800
     10799     10798     10801     10800     10798     10801     10798     10801     10802
     10798     10801     10803     10798     10801     10804     10802     10801     10803
     10802     10801     10804     10803     10801     10804     10806     10805     10810
     10806     10805     10814     10806     10805     10818     10810     10805     10814
     10810     10805     10818     10814     10805     10818     10805     10806     10807
     10805     10806     10808     10805     10806     10809     10807     10806     10808
     10807     10806     10809     10808     10806     10809     10805     10810     10811
     10805     10810     10812     10805     10810     10813     10811     10810     10812
     10811     10810     10813     10812     10810     10813     10805     10814     10815
     10805     10814     10816     10805     10814     10817     10815     10814     10816
     10815     10814     10817     10816     10814     10817     10805     10818     10819
     10805     10818     10820     10805     10818     10821     10819     10818     10820
     10819     10818     10821     10820     10818     10821     10818     10821     10822
     10818     10821     10823     10818     10821     10828     10822     10821     10823
     10822     10821     10828     10823     10821     10828     10825     10824     10826
     10825     10824     10827     10825     10824     10828     10826     10824     10827
     10826     10824     10828     10827     10824     10828     10824     10827     10829
     10821     10828     10824     10827     10829     10830     10827     10829     10831
     10827     10829     10834     10830     10829     10831     10830     10829     10834
     10831     10829     10834     10833     10832     10834     10833     10832     10884
     10834     10832     10884     10829     10834     10832     10829     10834     10835
     10829     10834     10836     10832     10834     10835     10832     10834     10836
     10835     10834     10836     10834     10836     10837     10834     10836     10838
     10834     10836     10840     10837     10836     10838     10837     10836     10840
     10838     10836     10840     10836     10838     10839     10836     10840     10841
     10836     10840     10842     10841     10840     10842     10840     10842     10843
     10840     10842     10844     10843     10842     10844     10842     10844     10845
     10842     10844     10846     10842     10844     10847     10845     10844     10846
     10845     10844     10847     10846     10844     10847     10844     10847     10848
     10844     10847     10849     10844     10847     10850     10848     10847     10849
     10848     10847     10850     10849     10847     10850     10847     10850     10851
     10847     10850     10852     10847     10850     10853     10851     10850     10852
     10851     10850     10853     10852     10850     10853     10850     10853     10854
     10850     10853     10855     10850     10853     10856     10854     10853     10855
     10854     10853     10856     10855     10853     10856     10853     10856     10857
     10853     10856     10858     10853     10856     10859     10857     10856     10858
     10857     10856     10859     10858     10856     10859     10856     10859     10860
     10856     10859     10861     10856     10859     10862     10860     10859     10861
     10860     10859     10862     10861     10859     10862     10859     10862     10863
     10859     10862     10864     10859     10862     10865     10863     10862     10864
     10863     10862     10865     10864     10862     10865     10862     10865     10866
     10862     10865     10867     10862     10865     10868     10866     10865     10867
     10866     10865     10868     10867     10865     10868     10865     10868     10869
     10865     10868     10870     10865     10868     10871     10869     10868     10870
     10869     10868     10871     10870     10868     10871     10868     10871     10872
     10868     10871     10873     10868     10871     10874     10872     10871     10873
     10872     10871     10874     10873     10871     10874     10871     10874     10875
     10871     10874     10876     10871     10874     10877     10875     10874     10876
     10875     10874     10877     10876     10874     10877     10874     10877     10878
     10874     10877     10879     10874     10877     10880     10878     10877     10879
     10878     10877     10880     10879     10877     10880     10877     10880     10881
     10877     10880     10882     10877     10880     10883     10881     10880     10882
     10881     10880     10883     10882     10880     10883     10832     10884     10885
     10832     10884     10886     10885     10884     10886     10884     10886     10887
     10884     10886     10888     10884     10886     10889     10887     10886     10888
     10887     10886     10889     10888     10886     10889     10886     10889     10890
     10886     10889     10891     10886     10889     10892     10890     10889     10891
     10890     10889     10892     10891     10889     10892     10889     10892     10893
     10889     10892     10894     10889     10892     10895     10893     10892     10894
     10893     10892     10895     10894     10892     10895     10892     10895     10896
     10892     10895     10897     10892     10895     10898     10896     10895     10897
     10896     10895     10898     10897     10895     10898     10895     10898     10899
     10895     10898     10900     10895     10898     10901     10899     10898     10900
     10899     10898     10901     10900     10898     10901     10898     10901     10902
     10898     10901     10903     10898     10901     10904     10902     10901     10903
     10902     10901     10904     10903     10901     10904     10901     10904     10905
     10901     10904     10906     10901     10904     10907     10905     10904     10906
     10905     10904     10907     10906     10904     10907     10904     10907     10908
     10904     10907     10909     10904     10907     10910     10908     10907     10909
     10908     10907     10910     10909     10907     10910     10907     10910     10911
     10907     10910     10912     10907     10910     10913     10911     10910     10912
     10911     10910     10913     10912     10910     10913     10910     10913     10914
     10910     10913     10915     10910     10913     10916     10914     10913     10915
     10914     10913     10916     10915     10913     10916     10913     10916     10917
     10913     10916     10918     10913     10916     10919     10917     10916     10918
     10917     10916     10919     10918     10916     10919     10916     10919     10920
     10916     10919     10921     10916     10919     10922     10920     10919     10921
     10920     10919     10922     10921     10919     10922     10919     10922     10923
     10919     10922     10924     10919     10922     10925     10923     10922     10924
     10923     10922     10925     10924     10922     10925     10922     10925     10926
     10922     10925     10927     10922     10925     10928     10926     10925     10927
     10926     10925     10928     10927     10925     10928     10925     10928     10929
     10925     10928     10930     10925     10928     10931     10929     10928     10930
     10929     10928     10931     10930     10928     10931     10933     10932     10936
     10933     10932     10940     10933     10932     10944     10936     10932     10940
     10936     10932     10944     10940     10932     10944     10932     10933     10934
     10932     10933     10935     10932     10933     10948     10934     10933     10935
     10934     10933     10948     10935     10933     10948     10932     10936     10937
     10932     10936     10938     10932     10936     10939     10937     10936     10938
     10937     10936     10939     10938     10936     10939     10932     10940     10941
     10932     10940     10942     10932     10940     10943     10941     10940     10942
     10941     10940     10943     10942     10940     10943     10932     10944     10945
     10932     10944     10946     10932     10944     10947     10945     10944     10946
     10945     10944     10947     10946     10944     10947     10933     10948     10949
     10933     10948     10950     10933     10948     10954     10949     10948     10950
     10949     10948     10954     10950     10948     10954     10952     10951     10953
     10952     10951     10954     10952     10951     10955     10953     10951     10954
     10953     10951     10955     10954     10951     10955     10948     10954     10951
     10951     10955     10956     10955     10956     10957     10955     10956     10958
     10955     10956     10959     10957     10956     10958     10957     10956     10959
     10958     10956     10959     10956     10959     10960     10956     10959     10961
     10956     10959     10967     10960     10959     10961     10960     10959     10967
     10961     10959     10967     10959     10961     10962     10961     10962     10963
     10961     10962     10964     10963     10962     10964     10962     10964     10965
     10962     10964     10966     10962     10964     10976     10965     10964     10966
     10965     10964     10976     10966     10964     10976     10959     10967     10968
     10959     10967     10969     10959     10967     10970     10968     10967     10969
     10968     10967     10970     10969     10967     10970     10967     10970     10971
     10970     10971     10972     10970     10971     10973     10972     10971     10973
     10971     10973     10974     10971     10973     10975     10971     10973     11023
     10974     10973     10975     10974     10973     11023     10975     10973     11023
     10964     10976     10977     10964     10976     10978     10964     10976     10979
     10977     10976     10978     10977     10976     10979     10978     10976     10979
     10976     10979     10980     10976     10979     10981     10976     10979     10982
     10980     10979     10981     10980     10979     10982     10981     10979     10982
     10979     10982     10983     10979     10982     10984     10979     10982     10985
     10983     10982     10984     10983     10982     10985     10984     10982     10985
     10982     10985     10986     10982     10985     10987     10982     10985     10988
     10986     10985     10987     10986     10985     10988     10987     10985     10988
     10985     10988     10989     10985     10988     10990     10985     10988     10991
     10989     10988     10990     10989     10988     10991     10990     10988     10991
     10988     10991     10992     10988     10991     10993     10988     10991     10994
     10992     10991     10993     10992     10991     10994     10993     10991     10994
     10991     10994     10995     10991     10994     10996     10995     10994     10996
     10994     10996     10997     10994     10996     10998     10997     10996     10998
     10996     10998     10999     10996     10998     11000     10996     10998     11001
     10999     10998     11000     10999     10998     11001     11000     10998     11001
     10998     11001     11002     10998     11001     11003     10998     11001     11004
     11002     11001     11003     11002     11001     11004     11003     11001     11004
     11001     11004     11005     11001     11004     11006     11001     11004     11007
     11005     11004     11006     11005     11004     11007     11006     11004     11007
     11004     11007     11008     11004     11007     11009     11004     11007     11010
     11008     11007     11009     11008     11007     11010     11009     11007     11010
     11007     11010     11011     11007     11010     11012     11007     11010     11013
     11011     11010     11012     11011     11010     11013     11012     11010     11013
     11010     11013     11014     11010     11013     11015     11010     11013     11016
     11014     11013     11015     11014     11013     11016     11015     11013     11016
     11013     11016     11017     11013     11016     11018     11013     11016     11019
     11017     11016     11018     11017     11016     11019     11018     11016     11019
     11016     11019     11020     11016     11019     11021     11016     11019     11022
     11020     11019     11021     11020     11019     11022     11021     11019     11022
     10973     11023     11024     10973     11023     11025     10973     11023     11026
     11024     11023     11025     11024     11023     11026     11025     11023     11026
     11023     11026     11027     11023     11026     11028     11023     11026     11029
     11027     11026     11028     11027     11026     11029     11028     11026     11029
     11026     11029     11030     11026     11029     11031     11026     11029     11032
     11030     11029     11031     11030     11029     11032     11031     11029     11032
     11029     11032     11033     11029     11032     11034     11029     11032     11035
     11033     11032     11034     11033     11032     11035     11034     11032     11035
     11032     11035     11036     11032     11035     11037     11032     11035     11038
     11036     11035     11037     11036     11035     11038     11037     11035     11038
     11035     11038     11039     11035     11038     11040     11035     11038     11041
     11039     11038     11040     11039     11038     11041     11040     11038     11041
     11038     11041     11042     11038     11041     11043     11038     11041     11044
     11042     11041     11043     11042     11041     11044     11043     11041     11044
     11041     11044     11045     11041     11044     11046     11041     11044     11047
     11045     11044     11046     11045     11044     11047     11046     11044     11047
     11044     11047     11048     11044     11047     11049     11044     11047     11050
     11048     11047     11049     11048     11047     11050     11049     11047     11050
     11047     11050     11051     11047     11050     11052     11047     11050     11053
     11051     11050     11052     11051     11050     11053     11052     11050     11053
     11050     11053     11054     11050     11053     11055     11050     11053     11056
     11054     11053     11055     11054     11053     11056     11055     11053     11056
     11053     11056     11057     11053     11056     11058     11053     11056     11059
     11057     11056     11058     11057     11056     11059     11058     11056     11059
     11056     11059     11060     11056     11059     11061     11056     11059     11062
     11060     11059     11061     11060     11059     11062     11061     11059     11062
     11059     11062     11063     11059     11062     11064     11059     11062     11065
     11063     11062     11064     11063     11062     11065     11064     11062     11065
     11067     11066     11068     11067     11066     11069     11067     11066     11070
     11068     11066     11069     11068     11066     11070     11069     11066     11070
     11066     11070     11071     11066     11070     11072     11066     11070     11073
     11071     11070     11072     11071     11070     11073     11072     11070     11073
     11070     11073     11074     11070     11073     11075     11070     11073     11080
     11074     11073     11075     11074     11073     11080     11075     11073     11080
     11077     11076     11078     11077     11076     11079     11077     11076     11080
     11078     11076     11079     11078     11076     11080     11079     11076     11080
     11076     11079     11081     11073     11080     11076     11079     11081     11082
     11079     11081     11083     11079     11081     11084     11082     11081     11083
     11082     11081     11084     11083     11081     11084     11081     11084     11085
     11081     11084     11086     11081     11084     11092     11085     11084     11086
     11085     11084     11092     11086     11084     11092     11084     11086     11087
     11086     11087     11088     11086     11087     11089     11088     11087     11089
     11087     11089     11090     11087     11089     11091     11087     11089     11101
     11090     11089     11091     11090     11089     11101     11091     11089     11101
     11084     11092     11093     11084     11092     11094     11084     11092     11095
     11093     11092     11094     11093     11092     11095     11094     11092     11095
     11092     11095     11096     11095     11096     11097     11095     11096     11098
     11097     11096     11098     11096     11098     11099     11096     11098     11100
     11096     11098     11148     11099     11098     11100     11099     11098     11148
     11100     11098     11148     11089     11101     11102     11089     11101     11103
     11089     11101     11104     11102     11101     11103     11102     11101     11104
     11103     11101     11104     11101     11104     11105     11101     11104     11106
     11101     11104     11107     11105     11104     11106     11105     11104     11107
     11106     11104     11107     11104     11107     11108     11104     11107     11109
     11104     11107     11110     11108     11107     11109     11108     11107     11110
     11109     11107     11110     11107     11110     11111     11107     11110     11112
     11107     11110     11113     11111     11110     11112     11111     11110     11113
     11112     11110     11113     11110     11113     11114     11110     11113     11115
     11110     11113     11116     11114     11113     11115     11114     11113     11116
     11115     11113     11116     11113     11116     11117     11113     11116     11118
     11113     11116     11119     11117     11116     11118     11117     11116     11119
     11118     11116     11119     11116     11119     11120     11116     11119     11121
     11120     11119     11121     11119     11121     11122     11119     11121     11123
     11122     11121     11123     11121     11123     11124     11121     11123     11125
     11121     11123     11126     11124     11123     11125     11124     11123     11126
     11125     11123     11126     11123     11126     11127     11123     11126     11128
     11123     11126     11129     11127     11126     11128     11127     11126     11129
     11128     11126     11129     11126     11129     11130     11126     11129     11131
     11126     11129     11132     11130     11129     11131     11130     11129     11132
     11131     11129     11132     11129     11132     11133     11129     11132     11134
     11129     11132     11135     11133     11132     11134     11133     11132     11135
     11134     11132     11135     11132     11135     11136     11132     11135     11137
     11132     11135     11138     11136     11135     11137     11136     11135     11138
     11137     11135     11138     11135     11138     11139     11135     11138     11140
     11135     11138     11141     11139     11138     11140     11139     11138     11141
     11140     11138     11141     11138     11141     11142     11138     11141     11143
     11138     11141     11144     11142     11141     11143     11142     11141     11144
     11143     11141     11144     11141     11144     11145     11141     11144     11146
     11141     11144     11147     11145     11144     11146     11145     11144     11147
     11146     11144     11147     11098     11148     11149     11098     11148     11150
     11098     11148     11151     11149     11148     11150     11149     11148     11151
     11150     11148     11151     11148     11151     11152     11148     11151     11153
     11148     11151     11154     11152     11151     11153     11152     11151     11154
     11153     11151     11154     11151     11154     11155     11151     11154     11156
     11151     11154     11157     11155     11154     11156     11155     11154     11157
     11156     11154     11157     11154     11157     11158     11154     11157     11159
     11154     11157     11160     11158     11157     11159     11158     11157     11160
     11159     11157     11160     11157     11160     11161     11157     11160     11162
     11157     11160     11163     11161     11160     11162     11161     11160     11163
     11162     11160     11163     11160     11163     11164     11160     11163     11165
     11160     11163     11166     11164     11163     11165     11164     11163     11166
     11165     11163     11166     11163     11166     11167     11163     11166     11168
     11163     11166     11169     11167     11166     11168     11167     11166     11169
     11168     11166     11169     11166     11169     11170     11166     11169     11171
     11166     11169     11172     11170     11169     11171     11170     11169     11172
     11171     11169     11172     11169     11172     11173     11169     11172     11174
     11169     11172     11175     11173     11172     11174     11173     11172     11175
     11174     11172     11175     11172     11175     11176     11172     11175     11177
     11172     11175     11178     11176     11175     11177     11176     11175     11178
     11177     11175     11178     11175     11178     11179     11175     11178     11180
     11175     11178     11181     11179     11178     11180     11179     11178     11181
     11180     11178     11181     11178     11181     11182     11178     11181     11183
     11178     11181     11184     11182     11181     11183     11182     11181     11184
     11183     11181     11184     11181     11184     11185     11181     11184     11186
     11181     11184     11187     11185     11184     11186     11185     11184     11187
     11186     11184     11187     11184     11187     11188     11184     11187     11189
     11184     11187     11190     11188     11187     11189     11188     11187     11190
     11189     11187     11190     11192     11191     11195     11192     11191     11199
     11192     11191     11203     11195     11191     11199     11195     11191     11203
     11199     11191     11203     11191     11192     11193     11191     11192     11194
     11191     11192     11207     11193     11192     11194     11193     11192     11207
     11194     11192     11207     11191     11195     11196     11191     11195     11197
     11191     11195     11198     11196     11195     11197     11196     11195     11198
     11197     11195     11198     11191     11199     11200     11191     11199     11201
     11191     11199     11202     11200     11199     11201     11200     11199     11202
     11201     11199     11202     11191     11203     11204     11191     11203     11205
     11191     11203     11206     11204     11203     11205     11204     11203     11206
     11205     11203     11206     11192     11207     11208     11192     11207     11209
     11192     11207     11213     11208     11207     11209     11208     11207     11213
     11209     11207     11213     11211     11210     11212     11211     11210     11213
     11211     11210     11214     11212     11210     11213     11212     11210     11214
     11213     11210     11214     11207     11213     11210     11210     11214     11215
     11214     11215     11216     11214     11215     11217     11214     11215     11218
     11216     11215     11217     11216     11215     11218     11217     11215     11218
     11215     11218     11219     11215     11218     11220     11215     11218     11226
     11219     11218     11220     11219     11218     11226     11220     11218     11226
     11218     11220     11221     11220     11221     11222     11220     11221     11223
     11222     11221     11223     11221     11223     11224     11221     11223     11225
     11221     11223     11235     11224     11223     11225     11224     11223     11235
     11225     11223     11235     11218     11226     11227     11218     11226     11228
     11218     11226     11229     11227     11226     11228     11227     11226     11229
     11228     11226     11229     11226     11229     11230     11229     11230     11231
     11229     11230     11232     11231     11230     11232     11230     11232     11233
     11230     11232     11234     11230     11232     11282     11233     11232     11234
     11233     11232     11282     11234     11232     11282     11223     11235     11236
     11223     11235     11237     11223     11235     11238     11236     11235     11237
     11236     11235     11238     11237     11235     11238     11235     11238     11239
     11235     11238     11240     11235     11238     11241     11239     11238     11240
     11239     11238     11241     11240     11238     11241     11238     11241     11242
     11238     11241     11243     11238     11241     11244     11242     11241     11243
     11242     11241     11244     11243     11241     11244     11241     11244     11245
     11241     11244     11246     11241     11244     11247     11245     11244     11246
     11245     11244     11247     11246     11244     11247     11244     11247     11248
     11244     11247     11249     11244     11247     11250     11248     11247     11249
     11248     11247     11250     11249     11247     11250     11247     11250     11251
     11247     11250     11252     11247     11250     11253     11251     11250     11252
     11251     11250     11253     11252     11250     11253     11250     11253     11254
     11250     11253     11255     11254     11253     11255     11253     11255     11256
     11253     11255     11257     11256     11255     11257     11255     11257     11258
     11255     11257     11259     11255     11257     11260     11258     11257     11259
     11258     11257     11260     11259     11257     11260     11257     11260     11261
     11257     11260     11262     11257     11260     11263     11261     11260     11262
     11261     11260     11263     11262     11260     11263     11260     11263     11264
     11260     11263     11265     11260     11263     11266     11264     11263     11265
     11264     11263     11266     11265     11263     11266     11263     11266     11267
     11263     11266     11268     11263     11266     11269     11267     11266     11268
     11267     11266     11269     11268     11266     11269     11266     11269     11270
     11266     11269     11271     11266     11269     11272     11270     11269     11271
     11270     11269     11272     11271     11269     11272     11269     11272     11273
     11269     11272     11274     11269     11272     11275     11273     11272     11274
     11273     11272     11275     11274     11272     11275     11272     11275     11276
     11272     11275     11277     11272     11275     11278     11276     11275     11277
     11276     11275     11278     11277     11275     11278     11275     11278     11279
     11275     11278     11280     11275     11278     11281     11279     11278     11280
     11279     11278     11281     11280     11278     11281     11232     11282     11283
     11232     11282     11284     11232     11282     11285     11283     11282     11284
     11283     11282     11285     11284     11282     11285     11282     11285     11286
     11282     11285     11287     11282     11285     11288     11286     11285     11287
     11286     11285     11288     11287     11285     11288     11285     11288     11289
     11285     11288     11290     11285     11288     11291     11289     11288     11290
     11289     11288     11291     11290     11288     11291     11288     11291     11292
     11288     11291     11293     11288     11291     11294     11292     11291     11293
     11292     11291     11294     11293     11291     11294     11291     11294     11295
     11291     11294     11296     11291     11294     11297     11295     11294     11296
     11295     11294     11297     11296     11294     11297     11294     11297     11298
     11294     11297     11299     11294     11297     11300     11298     11297     11299
     11298     11297     11300     11299     11297     11300     11297     11300     11301
     11297     11300     11302     11297     11300     11303     11301     11300     11302
     11301     11300     11303     11302     11300     11303     11300     11303     11304
     11300     11303     11305     11300     11303     11306     11304     11303     11305
     11304     11303     11306     11305     11303     11306     11303     11306     11307
     11303     11306     11308     11303     11306     11309     11307     11306     11308
     11307     11306     11309     11308     11306     11309     11306     11309     11310
     11306     11309     11311     11306     11309     11312     11310     11309     11311
     11310     11309     11312     11311     11309     11312     11309     11312     11313
     11309     11312     11314     11309     11312     11315     11313     11312     11314
     11313     11312     11315     11314     11312     11315     11312     11315     11316
     11312     11315     11317     11312     11315     11318     11316     11315     11317
     11316     11315     11318     11317     11315     11318     11315     11318     11319
     11315     11318     11320     11315     11318     11321     11319     11318     11320
     11319     11318     11321     11320     11318     11321     11318     11321     11322
     11318     11321     11323     11318     11321     11324     11322     11321     11323
     11322     11321     11324     11323     11321     11324     11326     11325     11327
     11326     11325     11328     11326     11325     11329     11327     11325     11328
     11327     11325     11329     11328     11325     11329     11325     11329     11330
     11325     11329     11331     11325     11329     11332     11330     11329     11331
     11330     11329     11332     11331     11329     11332     11329     11332     11333
     11329     11332     11334     11329     11332     11339     11333     11332     11334
     11333     11332     11339     11334     11332     11339     11336     11335     11337
     11336     11335     11338     11336     11335     11339     11337     11335     11338
     11337     11335     11339     11338     11335     11339     11335     11338     11340
     11332     11339     11335     11338     11340     11341     11338     11340     11342
     11338     11340     11343     11341     11340     11342     11341     11340     11343
     11342     11340     11343     11340     11343     11344     11340     11343     11345
     11340     11343     11351     11344     11343     11345     11344     11343     11351
     11345     11343     11351     11343     11345     11346     11345     11346     11347
     11345     11346     11348     11347     11346     11348     11346     11348     11349
     11346     11348     11350     11346     11348     11360     11349     11348     11350
     11349     11348     11360     11350     11348     11360     11343     11351     11352
     11343     11351     11353     11343     11351     11354     11352     11351     11353
     11352     11351     11354     11353     11351     11354     11351     11354     11355
     11354     11355     11356     11354     11355     11357     11356     11355     11357
     11355     11357     11358     11355     11357     11359     11355     11357     11407
     11358     11357     11359     11358     11357     11407     11359     11357     11407
     11348     11360     11361     11348     11360     11362     11348     11360     11363
     11361     11360     11362     11361     11360     11363     11362     11360     11363
     11360     11363     11364     11360     11363     11365     11360     11363     11366
     11364     11363     11365     11364     11363     11366     11365     11363     11366
     11363     11366     11367     11363     11366     11368     11363     11366     11369
     11367     11366     11368     11367     11366     11369     11368     11366     11369
     11366     11369     11370     11366     11369     11371     11366     11369     11372
     11370     11369     11371     11370     11369     11372     11371     11369     11372
     11369     11372     11373     11369     11372     11374     11369     11372     11375
     11373     11372     11374     11373     11372     11375     11374     11372     11375
     11372     11375     11376     11372     11375     11377     11372     11375     11378
     11376     11375     11377     11376     11375     11378     11377     11375     11378
     11375     11378     11379     11375     11378     11380     11379     11378     11380
     11378     11380     11381     11378     11380     11382     11381     11380     11382
     11380     11382     11383     11380     11382     11384     11380     11382     11385
     11383     11382     11384     11383     11382     11385     11384     11382     11385
     11382     11385     11386     11382     11385     11387     11382     11385     11388
     11386     11385     11387     11386     11385     11388     11387     11385     11388
     11385     11388     11389     11385     11388     11390     11385     11388     11391
     11389     11388     11390     11389     11388     11391     11390     11388     11391
     11388     11391     11392     11388     11391     11393     11388     11391     11394
     11392     11391     11393     11392     11391     11394     11393     11391     11394
     11391     11394     11395     11391     11394     11396     11391     11394     11397
     11395     11394     11396     11395     11394     11397     11396     11394     11397
     11394     11397     11398     11394     11397     11399     11394     11397     11400
     11398     11397     11399     11398     11397     11400     11399     11397     11400
     11397     11400     11401     11397     11400     11402     11397     11400     11403
     11401     11400     11402     11401     11400     11403     11402     11400     11403
     11400     11403     11404     11400     11403     11405     11400     11403     11406
     11404     11403     11405     11404     11403     11406     11405     11403     11406
     11357     11407     11408     11357     11407     11409     11357     11407     11410
     11408     11407     11409     11408     11407     11410     11409     11407     11410
     11407     11410     11411     11407     11410     11412     11407     11410     11413
     11411     11410     11412     11411     11410     11413     11412     11410     11413
     11410     11413     11414     11410     11413     11415     11410     11413     11416
     11414     11413     11415     11414     11413     11416     11415     11413     11416
     11413     11416     11417     11413     11416     11418     11413     11416     11419
     11417     11416     11418     11417     11416     11419     11418     11416     11419
     11416     11419     11420     11416     11419     11421     11416     11419     11422
     11420     11419     11421     11420     11419     11422     11421     11419     11422
     11419     11422     11423     11419     11422     11424     11419     11422     11425
     11423     11422     11424     11423     11422     11425     11424     11422     11425
     11422     11425     11426     11422     11425     11427     11422     11425     11428
     11426     11425     11427     11426     11425     11428     11427     11425     11428
     11425     11428     11429     11425     11428     11430     11425     11428     11431
     11429     11428     11430     11429     11428     11431     11430     11428     11431
     11428     11431     11432     11428     11431     11433     11428     11431     11434
     11432     11431     11433     11432     11431     11434     11433     11431     11434
     11431     11434     11435     11431     11434     11436     11431     11434     11437
     11435     11434     11436     11435     11434     11437     11436     11434     11437
     11434     11437     11438     11434     11437     11439     11434     11437     11440
     11438     11437     11439     11438     11437     11440     11439     11437     11440
     11437     11440     11441     11437     11440     11442     11437     11440     11443
     11441     11440     11442     11441     11440     11443     11442     11440     11443
     11440     11443     11444     11440     11443     11445     11440     11443     11446
     11444     11443     11445     11444     11443     11446     11445     11443     11446
     11443     11446     11447     11443     11446     11448     11443     11446     11449
     11447     11446     11448     11447     11446     11449     11448     11446     11449
     11451     11450     11452     11451     11450     11453     11451     11450     11454
     11452     11450     11453     11452     11450     11454     11453     11450     11454
     11450     11454     11455     11450     11454     11456     11450     11454     11457
     11455     11454     11456     11455     11454     11457     11456     11454     11457
     11454     11457     11458     11454     11457     11459     11454     11457     11464
     11458     11457     11459     11458     11457     11464     11459     11457     11464
     11461     11460     11462     11461     11460     11463     11461     11460     11464
     11462     11460     11463     11462     11460     11464     11463     11460     11464
     11460     11463     11465     11457     11464     11460     11463     11465     11466
     11463     11465     11467     11463     11465     11468     11466     11465     11467
     11466     11465     11468     11467     11465     11468     11465     11468     11469
     11465     11468     11470     11465     11468     11476     11469     11468     11470
     11469     11468     11476     11470     11468     11476     11468     11470     11471
     11470     11471     11472     11470     11471     11473     11472     11471     11473
     11471     11473     11474     11471     11473     11475     11471     11473     11485
     11474     11473     11475     11474     11473     11485     11475     11473     11485
     11468     11476     11477     11468     11476     11478     11468     11476     11479
     11477     11476     11478     11477     11476     11479     11478     11476     11479
     11476     11479     11480     11479     11480     11481     11479     11480     11482
     11481     11480     11482     11480     11482     11483     11480     11482     11484
     11480     11482     11532     11483     11482     11484     11483     11482     11532
     11484     11482     11532     11473     11485     11486     11473     11485     11487
     11473     11485     11488     11486     11485     11487     11486     11485     11488
     11487     11485     11488     11485     11488     11489     11485     11488     11490
     11485     11488     11491     11489     11488     11490     11489     11488     11491
     11490     11488     11491     11488     11491     11492     11488     11491     11493
     11488     11491     11494     11492     11491     11493     11492     11491     11494
     11493     11491     11494     11491     11494     11495     11491     11494     11496
     11491     11494     11497     11495     11494     11496     11495     11494     11497
     11496     11494     11497     11494     11497     11498     11494     11497     11499
     11494     11497     11500     11498     11497     11499     11498     11497     11500
     11499     11497     11500     11497     11500     11501     11497     11500     11502
     11497     11500     11503     11501     11500     11502     11501     11500     11503
     11502     11500     11503     11500     11503     11504     11500     11503     11505
     11504     11503     11505     11503     11505     11506     11503     11505     11507
     11506     11505     11507     11505     11507     11508     11505     11507     11509
     11505     11507     11510     11508     11507     11509     11508     11507     11510
     11509     11507     11510     11507     11510     11511     11507     11510     11512
     11507     11510     11513     11511     11510     11512     11511     11510     11513
     11512     11510     11513     11510     11513     11514     11510     11513     11515
     11510     11513     11516     11514     11513     11515     11514     11513     11516
     11515     11513     11516     11513     11516     11517     11513     11516     11518
     11513     11516     11519     11517     11516     11518     11517     11516     11519
     11518     11516     11519     11516     11519     11520     11516     11519     11521
     11516     11519     11522     11520     11519     11521     11520     11519     11522
     11521     11519     11522     11519     11522     11523     11519     11522     11524
     11519     11522     11525     11523     11522     11524     11523     11522     11525
     11524     11522     11525     11522     11525     11526     11522     11525     11527
     11522     11525     11528     11526     11525     11527     11526     11525     11528
     11527     11525     11528     11525     11528     11529     11525     11528     11530
     11525     11528     11531     11529     11528     11530     11529     11528     11531
     11530     11528     11531     11482     11532     11533     11482     11532     11534
     11482     11532     11535     11533     11532     11534     11533     11532     11535
     11534     11532     11535     11532     11535     11536     11532     11535     11537
     11532     11535     11538     11536     11535     11537     11536     11535     11538
     11537     11535     11538     11535     11538     11539     11535     11538     11540
     11535     11538     11541     11539     11538     11540     11539     11538     11541
     11540     11538     11541     11538     11541     11542     11538     11541     11543
     11538     11541     11544     11542     11541     11543     11542     11541     11544
     11543     11541     11544     11541     11544     11545     11541     11544     11546
     11541     11544     11547     11545     11544     11546     11545     11544     11547
     11546     11544     11547     11544     11547     11548     11544     11547     11549
     11544     11547     11550     11548     11547     11549     11548     11547     11550
     11549     11547     11550     11547     11550     11551     11547     11550     11552
     11547     11550     11553     11551     11550     11552     11551     11550     11553
     11552     11550     11553     11550     11553     11554     11550     11553     11555
     11550     11553     11556     11554     11553     11555     11554     11553     11556
     11555     11553     11556     11553     11556     11557     11553     11556     11558
     11553     11556     11559     11557     11556     11558     11557     11556     11559
     11558     11556     11559     11556     11559     11560     11556     11559     11561
     11556     11559     11562     11560     11559     11561     11560     11559     11562
     11561     11559     11562     11559     11562     11563     11559     11562     11564
     11559     11562     11565     11563     11562     11564     11563     11562     11565
     11564     11562     11565     11562     11565     11566     11562     11565     11567
     11562     11565     11568     11566     11565     11567     11566     11565     11568
     11567     11565     11568     11565     11568     11569     11565     11568     11570
     11565     11568     11571     11569     11568     11570     11569     11568     11571
     11570     11568     11571     11568     11571     11572     11568     11571     11573
     11568     11571     11574     11572     11571     11573     11572     11571     11574
     11573     11571     11574     11576     11575     11580     11576     11575     11584
     11576     11575     11588     11580     11575     11584     11580     11575     11588
     11584     11575     11588     11575     11576     11577     11575     11576     11578
     11575     11576     11579     11577     11576     11578     11577     11576     11579
     11578     11576     11579     11575     11580     11581     11575     11580     11582
     11575     11580     11583     11581     11580     11582     11581     11580     11583
     11582     11580     11583     11575     11584     11585     11575     11584     11586
     11575     11584     11587     11585     11584     11586     11585     11584     11587
     11586     11584     11587     11575     11588     11589     11575     11588     11590
     11575     11588     11591     11589     11588     11590     11589     11588     11591
     11590     11588     11591     11588     11591     11592     11588     11591     11593
     11588     11591     11598     11592     11591     11593     11592     11591     11598
     11593     11591     11598     11595     11594     11596     11595     11594     11597
     11595     11594     11598     11596     11594     11597     11596     11594     11598
     11597     11594     11598     11594     11597     11599     11591     11598     11594
     11597     11599     11600     11597     11599     11601     11597     11599     11604
     11600     11599     11601     11600     11599     11604     11601     11599     11604
     11603     11602     11604     11603     11602     11654     11604     11602     11654
     11599     11604     11602     11599     11604     11605     11599     11604     11606
     11602     11604     11605     11602     11604     11606     11605     11604     11606
     11604     11606     11607     11604     11606     11608     11604     11606     11610
     11607     11606     11608     11607     11606     11610     11608     11606     11610
     11606     11608     11609     11606     11610     11611     11606     11610     11612
     11611     11610     11612     11610     11612     11613     11610     11612     11614
     11613     11612     11614     11612     11614     11615     11612     11614     11616
     11612     11614     11617     11615     11614     11616     11615     11614     11617
     11616     11614     11617     11614     11617     11618     11614     11617     11619
     11614     11617     11620     11618     11617     11619     11618     11617     11620
     11619     11617     11620     11617     11620     11621     11617     11620     11622
     11617     11620     11623     11621     11620     11622     11621     11620     11623
     11622     11620     11623     11620     11623     11624     11620     11623     11625
     11620     11623     11626     11624     11623     11625     11624     11623     11626
     11625     11623     11626     11623     11626     11627     11623     11626     11628
     11623     11626     11629     11627     11626     11628     11627     11626     11629
     11628     11626     11629     11626     11629     11630     11626     11629     11631
     11626     11629     11632     11630     11629     11631     11630     11629     11632
     11631     11629     11632     11629     11632     11633     11629     11632     11634
     11629     11632     11635     11633     11632     11634     11633     11632     11635
     11634     11632     11635     11632     11635     11636     11632     11635     11637
     11632     11635     11638     11636     11635     11637     11636     11635     11638
     11637     11635     11638     11635     11638     11639     11635     11638     11640
     11635     11638     11641     11639     11638     11640     11639     11638     11641
     11640     11638     11641     11638     11641     11642     11638     11641     11643
     11638     11641     11644     11642     11641     11643     11642     11641     11644
     11643     11641     11644     11641     11644     11645     11641     11644     11646
     11641     11644     11647     11645     11644     11646     11645     11644     11647
     11646     11644     11647     11644     11647     11648     11644     11647     11649
     11644     11647     11650     11648     11647     11649     11648     11647     11650
     11649     11647     11650     11647     11650     11651     11647     11650     11652
     11647     11650     11653     11651     11650     11652     11651     11650     11653
     11652     11650     11653     11602     11654     11655     11602     11654     11656
     11655     11654     11656     11654     11656     11657     11654     11656     11658
     11654     11656     11659     11657     11656     11658     11657     11656     11659
     11658     11656     11659     11656     11659     11660     11656     11659     11661
     11656     11659     11662     11660     11659     11661     11660     11659     11662
     11661     11659     11662     11659     11662     11663     11659     11662     11664
     11659     11662     11665     11663     11662     11664     11663     11662     11665
     11664     11662     11665     11662     11665     11666     11662     11665     11667
     11662     11665     11668     11666     11665     11667     11666     11665     11668
     11667     11665     11668     11665     11668     11669     11665     11668     11670
     11665     11668     11671     11669     11668     11670     11669     11668     11671
     11670     11668     11671     11668     11671     11672     11668     11671     11673
     11668     11671     11674     11672     11671     11673     11672     11671     11674
     11673     11671     11674     11671     11674     11675     11671     11674     11676
     11671     11674     11677     11675     11674     11676     11675     11674     11677
     11676     11674     11677     11674     11677     11678     11674     11677     11679
     11674     11677     11680     11678     11677     11679     11678     11677     11680
     11679     11677     11680     11677     11680     11681     11677     11680     11682
     11677     11680     11683     11681     11680     11682     11681     11680     11683
     11682     11680     11683     11680     11683     11684     11680     11683     11685
     11680     11683     11686     11684     11683     11685     11684     11683     11686
     11685     11683     11686     11683     11686     11687     11683     11686     11688
     11683     11686     11689     11687     11686     11688     11687     11686     11689
     11688     11686     11689     11686     11689     11690     11686     11689     11691
     11686     11689     11692     11690     11689     11691     11690     11689     11692
     11691     11689     11692     11689     11692     11693     11689     11692     11694
     11689     11692     11695     11693     11692     11694     11693     11692     11695
     11694     11692     11695     11692     11695     11696     11692     11695     11697
     11692     11695     11698     11696     11695     11697     11696     11695     11698
     11697     11695     11698     11695     11698     11699     11695     11698     11700
     11695     11698     11701     11699     11698     11700     11699     11698     11701
     11700     11698     11701     11703     11702     11706     11703     11702     11710
     11703     11702     11714     11706     11702     11710     11706     11702     11714
     11710     11702     11714     11702     11703     11704     11702     11703     11705
     11702     11703     11718     11704     11703     11705     11704     11703     11718
     11705     11703     11718     11702     11706     11707     11702     11706     11708
     11702     11706     11709     11707     11706     11708     11707     11706     11709
     11708     11706     11709     11702     11710     11711     11702     11710     11712
     11702     11710     11713     11711     11710     11712     11711     11710     11713
     11712     11710     11713     11702     11714     11715     11702     11714     11716
     11702     11714     11717     11715     11714     11716     11715     11714     11717
     11716     11714     11717     11703     11718     11719     11703     11718     11720
     11703     11718     11724     11719     11718     11720     11719     11718     11724
     11720     11718     11724     11722     11721     11723     11722     11721     11724
     11722     11721     11725     11723     11721     11724     11723     11721     11725
     11724     11721     11725     11718     11724     11721     11721     11725     11726
     11725     11726     11727     11725     11726     11728     11725     11726     11729
     11727     11726     11728     11727     11726     11729     11728     11726     11729
     11726     11729     11730     11726     11729     11731     11726     11729     11737
     11730     11729     11731     11730     11729     11737     11731     11729     11737
     11729     11731     11732     11731     11732     11733     11731     11732     11734
     11733     11732     11734     11732     11734     11735     11732     11734     11736
     11732     11734     11746     11735     11734     11736     11735     11734     11746
     11736     11734     11746     11729     11737     11738     11729     11737     11739
     11729     11737     11740     11738     11737     11739     11738     11737     11740
     11739     11737     11740     11737     11740     11741     11740     11741     11742
     11740     11741     11743     11742     11741     11743     11741     11743     11744
     11741     11743     11745     11741     11743     11793     11744     11743     11745
     11744     11743     11793     11745     11743     11793     11734     11746     11747
     11734     11746     11748     11734     11746     11749     11747     11746     11748
     11747     11746     11749     11748     11746     11749     11746     11749     11750
     11746     11749     11751     11746     11749     11752     11750     11749     11751
     11750     11749     11752     11751     11749     11752     11749     11752     11753
     11749     11752     11754     11749     11752     11755     11753     11752     11754
     11753     11752     11755     11754     11752     11755     11752     11755     11756
     11752     11755     11757     11752     11755     11758     11756     11755     11757
     11756     11755     11758     11757     11755     11758     11755     11758     11759
     11755     11758     11760     11755     11758     11761     11759     11758     11760
     11759     11758     11761     11760     11758     11761     11758     11761     11762
     11758     11761     11763     11758     11761     11764     11762     11761     11763
     11762     11761     11764     11763     11761     11764     11761     11764     11765
     11761     11764     11766     11765     11764     11766     11764     11766     11767
     11764     11766     11768     11767     11766     11768     11766     11768     11769
     11766     11768     11770     11766     11768     11771     11769     11768     11770
     11769     11768     11771     11770     11768     11771     11768     11771     11772
     11768     11771     11773     11768     11771     11774     11772     11771     11773
     11772     11771     11774     11773     11771     11774     11771     11774     11775
     11771     11774     11776     11771     11774     11777     11775     11774     11776
     11775     11774     11777     11776     11774     11777     11774     11777     11778
     11774     11777     11779     11774     11777     11780     11778     11777     11779
     11778     11777     11780     11779     11777     11780     11777     11780     11781
     11777     11780     11782     11777     11780     11783     11781     11780     11782
     11781     11780     11783     11782     11780     11783     11780     11783     11784
     11780     11783     11785     11780     11783     11786     11784     11783     11785
     11784     11783     11786     11785     11783     11786     11783     11786     11787
     11783     11786     11788     11783     11786     11789     11787     11786     11788
     11787     11786     11789     11788     11786     11789     11786     11789     11790
     11786     11789     11791     11786     11789     11792     11790     11789     11791
     11790     11789     11792     11791     11789     11792     11743     11793     11794
     11743     11793     11795     11743     11793     11796     11794     11793     11795
     11794     11793     11796     11795     11793     11796     11793     11796     11797
     11793     11796     11798     11793     11796     11799     11797     11796     11798
     11797     11796     11799     11798     11796     11799     11796     11799     11800
     11796     11799     11801     11796     11799     11802     11800     11799     11801
     11800     11799     11802     11801     11799     11802     11799     11802     11803
     11799     11802     11804     11799     11802     11805     11803     11802     11804
     11803     11802     11805     11804     11802     11805     11802     11805     11806
     11802     11805     11807     11802     11805     11808     11806     11805     11807
     11806     11805     11808     11807     11805     11808     11805     11808     11809
     11805     11808     11810     11805     11808     11811     11809     11808     11810
     11809     11808     11811     11810     11808     11811     11808     11811     11812
     11808     11811     11813     11808     11811     11814     11812     11811     11813
     11812     11811     11814     11813     11811     11814     11811     11814     11815
     11811     11814     11816     11811     11814     11817     11815     11814     11816
     11815     11814     11817     11816     11814     11817     11814     11817     11818
     11814     11817     11819     11814     11817     11820     11818     11817     11819
     11818     11817     11820     11819     11817     11820     11817     11820     11821
     11817     11820     11822     11817     11820     11823     11821     11820     11822
     11821     11820     11823     11822     11820     11823     11820     11823     11824
     11820     11823     11825     11820     11823     11826     11824     11823     11825
     11824     11823     11826     11825     11823     11826     11823     11826     11827
     11823     11826     11828     11823     11826     11829     11827     11826     11828
     11827     11826     11829     11828     11826     11829     11826     11829     11830
     11826     11829     11831     11826     11829     11832     11830     11829     11831
     11830     11829     11832     11831     11829     11832     11829     11832     11833
     11829     11832     11834     11829     11832     11835     11833     11832     11834
     11833     11832     11835     11834     11832     11835     11837     11836     11838
     11837     11836     11839     11837     11836     11840     11838     11836     11839
     11838     11836     11840     11839     11836     11840     11836     11840     11841
     11836     11840     11842     11836     11840     11843     11841     11840     11842
     11841     11840     11843     11842     11840     11843     11840     11843     11844
     11840     11843     11845     11840     11843     11850     11844     11843     11845
     11844     11843     11850     11845     11843     11850     11847     11846     11848
     11847     11846     11849     11847     11846     11850     11848     11846     11849
     11848     11846     11850     11849     11846     11850     11846     11849     11851
     11843     11850     11846     11849     11851     11852     11849     11851     11853
     11849     11851     11854     11852     11851     11853     11852     11851     11854
     11853     11851     11854     11851     11854     11855     11851     11854     11856
     11851     11854     11862     11855     11854     11856     11855     11854     11862
     11856     11854     11862     11854     11856     11857     11856     11857     11858
     11856     11857     11859     11858     11857     11859     11857     11859     11860
     11857     11859     11861     11857     11859     11871     11860     11859     11861
     11860     11859     11871     11861     11859     11871     11854     11862     11863
     11854     11862     11864     11854     11862     11865     11863     11862     11864
     11863     11862     11865     11864     11862     11865     11862     11865     11866
     11865     11866     11867     11865     11866     11868     11867     11866     11868
     11866     11868     11869     11866     11868     11870     11866     11868     11918
     11869     11868     11870     11869     11868     11918     11870     11868     11918
     11859     11871     11872     11859     11871     11873     11859     11871     11874
     11872     11871     11873     11872     11871     11874     11873     11871     11874
     11871     11874     11875     11871     11874     11876     11871     11874     11877
     11875     11874     11876     11875     11874     11877     11876     11874     11877
     11874     11877     11878     11874     11877     11879     11874     11877     11880
     11878     11877     11879     11878     11877     11880     11879     11877     11880
     11877     11880     11881     11877     11880     11882     11877     11880     11883
     11881     11880     11882     11881     11880     11883     11882     11880     11883
     11880     11883     11884     11880     11883     11885     11880     11883     11886
     11884     11883     11885     11884     11883     11886     11885     11883     11886
     11883     11886     11887     11883     11886     11888     11883     11886     11889
     11887     11886     11888     11887     11886     11889     11888     11886     11889
     11886     11889     11890     11886     11889     11891     11890     11889     11891
     11889     11891     11892     11889     11891     11893     11892     11891     11893
     11891     11893     11894     11891     11893     11895     11891     11893     11896
     11894     11893     11895     11894     11893     11896     11895     11893     11896
     11893     11896     11897     11893     11896     11898     11893     11896     11899
     11897     11896     11898     11897     11896     11899     11898     11896     11899
     11896     11899     11900     11896     11899     11901     11896     11899     11902
     11900     11899     11901     11900     11899     11902     11901     11899     11902
     11899     11902     11903     11899     11902     11904     11899     11902     11905
     11903     11902     11904     11903     11902     11905     11904     11902     11905
     11902     11905     11906     11902     11905     11907     11902     11905     11908
     11906     11905     11907     11906     11905     11908     11907     11905     11908
     11905     11908     11909     11905     11908     11910     11905     11908     11911
     11909     11908     11910     11909     11908     11911     11910     11908     11911
     11908     11911     11912     11908     11911     11913     11908     11911     11914
     11912     11911     11913     11912     11911     11914     11913     11911     11914
     11911     11914     11915     11911     11914     11916     11911     11914     11917
     11915     11914     11916     11915     11914     11917     11916     11914     11917
     11868     11918     11919     11868     11918     11920     11868     11918     11921
     11919     11918     11920     11919     11918     11921     11920     11918     11921
     11918     11921     11922     11918     11921     11923     11918     11921     11924
     11922     11921     11923     11922     11921     11924     11923     11921     11924
     11921     11924     11925     11921     11924     11926     11921     11924     11927
     11925     11924     11926     11925     11924     11927     11926     11924     11927
     11924     11927     11928     11924     11927     11929     11924     11927     11930
     11928     11927     11929     11928     11927     11930     11929     11927     11930
     11927     11930     11931     11927     11930     11932     11927     11930     11933
     11931     11930     11932     11931     11930     11933     11932     11930     11933
     11930     11933     11934     11930     11933     11935     11930     11933     11936
     11934     11933     11935     11934     11933     11936     11935     11933     11936
     11933     11936     11937     11933     11936     11938     11933     11936     11939
     11937     11936     11938     11937     11936     11939     11938     11936     11939
     11936     11939     11940     11936     11939     11941     11936     11939     11942
     11940     11939     11941     11940     11939     11942     11941     11939     11942
     11939     11942     11943     11939     11942     11944     11939     11942     11945
     11943     11942     11944     11943     11942     11945     11944     11942     11945
     11942     11945     11946     11942     11945     11947     11942     11945     11948
     11946     11945     11947     11946     11945     11948     11947     11945     11948
     11945     11948     11949     11945     11948     11950     11945     11948     11951
     11949     11948     11950     11949     11948     11951     11950     11948     11951
     11948     11951     11952     11948     11951     11953     11948     11951     11954
     11952     11951     11953     11952     11951     11954     11953     11951     11954
     11951     11954     11955     11951     11954     11956     11951     11954     11957
     11955     11954     11956     11955     11954     11957     11956     11954     11957
     11954     11957     11958     11954     11957     11959     11954     11957     11960
     11958     11957     11959     11958     11957     11960     11959     11957     11960
     11962     11961     11965     11962     11961     11969     11962     11961     11973
     11965     11961     11969     11965     11961     11973     11969     11961     11973
     11961     11962     11963     11961     11962     11964     11961     11962     11977
     11963     11962     11964     11963     11962     11977     11964     11962     11977
     11961     11965     11966     11961     11965     11967     11961     11965     11968
     11966     11965     11967     11966     11965     11968     11967     11965     11968
     11961     11969     11970     11961     11969     11971     11961     11969     11972
     11970     11969     11971     11970     11969     11972     11971     11969     11972
     11961     11973     11974     11961     11973     11975     11961     11973     11976
     11974     11973     11975     11974     11973     11976     11975     11973     11976
     11962     11977     11978     11962     11977     11979     11962     11977     11983
     11978     11977     11979     11978     11977     11983     11979     11977     11983
     11981     11980     11982     11981     11980     11983     11981     11980     11984
     11982     11980     11983     11982     11980     11984     11983     11980     11984
     11977     11983     11980     11980     11984     11985     11984     11985     11986
     11984     11985     11987     11984     11985     11988     11986     11985     11987
     11986     11985     11988     11987     11985     11988     11985     11988     11989
     11985     11988     11990     11985     11988     11996     11989     11988     11990
     11989     11988     11996     11990     11988     11996     11988     11990     11991
     11990     11991     11992     11990     11991     11993     11992     11991     11993
     11991     11993     11994     11991     11993     11995     11991     11993     12005
     11994     11993     11995     11994     11993     12005     11995     11993     12005
     11988     11996     11997     11988     11996     11998     11988     11996     11999
     11997     11996     11998     11997     11996     11999     11998     11996     11999
     11996     11999     12000     11999     12000     12001     11999     12000     12002
     12001     12000     12002     12000     12002     12003     12000     12002     12004
     12000     12002     12052     12003     12002     12004     12003     12002     12052
     12004     12002     12052     11993     12005     12006     11993     12005     12007
     11993     12005     12008     12006     12005     12007     12006     12005     12008
     12007     12005     12008     12005     12008     12009     12005     12008     12010
     12005     12008     12011     12009     12008     12010     12009     12008     12011
     12010     12008     12011     12008     12011     12012     12008     12011     12013
     12008     12011     12014     12012     12011     12013     12012     12011     12014
     12013     12011     12014     12011     12014     12015     12011     12014     12016
     12011     12014     12017     12015     12014     12016     12015     12014     12017
     12016     12014     12017     12014     12017     12018     12014     12017     12019
     12014     12017     12020     12018     12017     12019     12018     12017     12020
     12019     12017     12020     12017     12020     12021     12017     12020     12022
     12017     12020     12023     12021     12020     12022     12021     12020     12023
     12022     12020     12023     12020     12023     12024     12020     12023     12025
     12024     12023     12025     12023     12025     12026     12023     12025     12027
     12026     12025     12027     12025     12027     12028     12025     12027     12029
     12025     12027     12030     12028     12027     12029     12028     12027     12030
     12029     12027     12030     12027     12030     12031     12027     12030     12032
     12027     12030     12033     12031     12030     12032     12031     12030     12033
     12032     12030     12033     12030     12033     12034     12030     12033     12035
     12030     12033     12036     12034     12033     12035     12034     12033     12036
     12035     12033     12036     12033     12036     12037     12033     12036     12038
     12033     12036     12039     12037     12036     12038     12037     12036     12039
     12038     12036     12039     12036     12039     12040     12036     12039     12041
     12036     12039     12042     12040     12039     12041     12040     12039     12042
     12041     12039     12042     12039     12042     12043     12039     12042     12044
     12039     12042     12045     12043     12042     12044     12043     12042     12045
     12044     12042     12045     12042     12045     12046     12042     12045     12047
     12042     12045     12048     12046     12045     12047     12046     12045     12048
     12047     12045     12048     12045     12048     12049     12045     12048     12050
     12045     12048     12051     12049     12048     12050     12049     12048     12051
     12050     12048     12051     12002     12052     12053     12002     12052     12054
     12002     12052     12055     12053     12052     12054     12053     12052     12055
     12054     12052     12055     12052     12055     12056     12052     12055     12057
     12052     12055     12058     12056     12055     12057     12056     12055     12058
     12057     12055     12058     12055     12058     12059     12055     12058     12060
     12055     12058     12061     12059     12058     12060     12059     12058     12061
     12060     12058     12061     12058     12061     12062     12058     12061     12063
     12058     12061     12064     12062     12061     12063     12062     12061     12064
     12063     12061     12064     12061     12064     12065     12061     12064     12066
     12061     12064     12067     12065     12064     12066     12065     12064     12067
     12066     12064     12067     12064     12067     12068     12064     12067     12069
     12064     12067     12070     12068     12067     12069     12068     12067     12070
     12069     12067     12070     12067     12070     12071     12067     12070     12072
     12067     12070     12073     12071     12070     12072     12071     12070     12073
     12072     12070     12073     12070     12073     12074     12070     12073     12075
     12070     12073     12076     12074     12073     12075     12074     12073     12076
     12075     12073     12076     12073     12076     12077     12073     12076     12078
     12073     12076     12079     12077     12076     12078     12077     12076     12079
     12078     12076     12079     12076     12079     12080     12076     12079     12081
     12076     12079     12082     12080     12079     12081     12080     12079     12082
     12081     12079     12082     12079     12082     12083     12079     12082     12084
     12079     12082     12085     12083     12082     12084     12083     12082     12085
     12084     12082     12085     12082     12085     12086     12082     12085     12087
     12082     12085     12088     12086     12085     12087     12086     12085     12088
     12087     12085     12088     12085     12088     12089     12085     12088     12090
     12085     12088     12091     12089     12088     12090     12089     12088     12091
     12090     12088     12091     12088     12091     12092     12088     12091     12093
     12088     12091     12094     12092     12091     12093     12092     12091     12094
     12093     12091     12094     12096     12095     12100     12096     12095     12104
     12096     12095     12108     12100     12095     12104     12100     12095     12108
     12104     12095     12108     12095     12096     12097     12095     12096     12098
     12095     12096     12099     12097     12096     12098     12097     12096     12099
     12098     12096     12099     12095     12100     12101     12095     12100     12102
     12095     12100     12103     12101     12100     12102     12101     12100     12103
     12102     12100     12103     12095     12104     12105     12095     12104     12106
     12095     12104     12107     12105     12104     12106     12105     12104     12107
     12106     12104     12107     12095     12108     12109     12095     12108     12110
     12095     12108     12111     12109     12108     12110     12109     12108     12111
     12110     12108     12111     12108     12111     12112     12108     12111     12113
     12108     12111     12118     12112     12111     12113     12112     12111     12118
     12113     12111     12118     12115     12114     12116     12115     12114     12117
     12115     12114     12118     12116     12114     12117     12116     12114     12118
     12117     12114     12118     12114     12117     12119     12111     12118     12114
     12117     12119     12120     12117     12119     12121     12117     12119     12124
     12120     12119     12121     12120     12119     12124     12121     12119     12124
     12123     12122     12124     12123     12122     12174     12124     12122     12174
     12119     12124     12122     12119     12124     12125     12119     12124     12126
     12122     12124     12125     12122     12124     12126     12125     12124     12126
     12124     12126     12127     12124     12126     12128     12124     12126     12130
     12127     12126     12128     12127     12126     12130     12128     12126     12130
     12126     12128     12129     12126     12130     12131     12126     12130     12132
     12131     12130     12132     12130     12132     12133     12130     12132     12134
     12133     12132     12134     12132     12134     12135     12132     12134     12136
     12132     12134     12137     12135     12134     12136     12135     12134     12137
     12136     12134     12137     12134     12137     12138     12134     12137     12139
     12134     12137     12140     12138     12137     12139     12138     12137     12140
     12139     12137     12140     12137     12140     12141     12137     12140     12142
     12137     12140     12143     12141     12140     12142     12141     12140     12143
     12142     12140     12143     12140     12143     12144     12140     12143     12145
     12140     12143     12146     12144     12143     12145     12144     12143     12146
     12145     12143     12146     12143     12146     12147     12143     12146     12148
     12143     12146     12149     12147     12146     12148     12147     12146     12149
     12148     12146     12149     12146     12149     12150     12146     12149     12151
     12146     12149     12152     12150     12149     12151     12150     12149     12152
     12151     12149     12152     12149     12152     12153     12149     12152     12154
     12149     12152     12155     12153     12152     12154     12153     12152     12155
     12154     12152     12155     12152     12155     12156     12152     12155     12157
     12152     12155     12158     12156     12155     12157     12156     12155     12158
     12157     12155     12158     12155     12158     12159     12155     12158     12160
     12155     12158     12161     12159     12158     12160     12159     12158     12161
     12160     12158     12161     12158     12161     12162     12158     12161     12163
     12158     12161     12164     12162     12161     12163     12162     12161     12164
     12163     12161     12164     12161     12164     12165     12161     12164     12166
     12161     12164     12167     12165     12164     12166     12165     12164     12167
     12166     12164     12167     12164     12167     12168     12164     12167     12169
     12164     12167     12170     12168     12167     12169     12168     12167     12170
     12169     12167     12170     12167     12170     12171     12167     12170     12172
     12167     12170     12173     12171     12170     12172     12171     12170     12173
     12172     12170     12173     12122     12174     12175     12122     12174     12176
     12175     12174     12176     12174     12176     12177     12174     12176     12178
     12174     12176     12179     12177     12176     12178     12177     12176     12179
     12178     12176     12179     12176     12179     12180     12176     12179     12181
     12176     12179     12182     12180     12179     12181     12180     12179     12182
     12181     12179     12182     12179     12182     12183     12179     12182     12184
     12179     12182     12185     12183     12182     12184     12183     12182     12185
     12184     12182     12185     12182     12185     12186     12182     12185     12187
     12182     12185     12188     12186     12185     12187     12186     12185     12188
     12187     12185     12188     12185     12188     12189     12185     12188     12190
     12185     12188     12191     12189     12188     12190     12189     12188     12191
     12190     12188     12191     12188     12191     12192     12188     12191     12193
     12188     12191     12194     12192     12191     12193     12192     12191     12194
     12193     12191     12194     12191     12194     12195     12191     12194     12196
     12191     12194     12197     12195     12194     12196     12195     12194     12197
     12196     12194     12197     12194     12197     12198     12194     12197     12199
     12194     12197     12200     12198     12197     12199     12198     12197     12200
     12199     12197     12200     12197     12200     12201     12197     12200     12202
     12197     12200     12203     12201     12200     12202     12201     12200     12203
     12202     12200     12203     12200     12203     12204     12200     12203     12205
     12200     12203     12206     12204     12203     12205     12204     12203     12206
     12205     12203     12206     12203     12206     12207     12203     12206     12208
     12203     12206     12209     12207     12206     12208     12207     12206     12209
     12208     12206     12209     12206     12209     12210     12206     12209     12211
     12206     12209     12212     12210     12209     12211     12210     12209     12212
     12211     12209     12212     12209     12212     12213     12209     12212     12214
     12209     12212     12215     12213     12212     12214     12213     12212     12215
     12214     12212     12215     12212     12215     12216     12212     12215     12217
     12212     12215     12218     12216     12215     12217     12216     12215     12218
     12217     12215     12218     12215     12218     12219     12215     12218     12220
     12215     12218     12221     12219     12218     12220     12219     12218     12221
     12220     12218     12221     12223     12222     12226     12223     12222     12230
     12223     12222     12234     12226     12222     12230     12226     12222     12234
     12230     12222     12234     12222     12223     12224     12222     12223     12225
     12222     12223     12238     12224     12223     12225     12224     12223     12238
     12225     12223     12238     12222     12226     12227     12222     12226     12228
     12222     12226     12229     12227     12226     12228     12227     12226     12229
     12228     12226     12229     12222     12230     12231     12222     12230     12232
     12222     12230     12233     12231     12230     12232     12231     12230     12233
     12232     12230     12233     12222     12234     12235     12222     12234     12236
     12222     12234     12237     12235     12234     12236     12235     12234     12237
     12236     12234     12237     12223     12238     12239     12223     12238     12240
     12223     12238     12244     12239     12238     12240     12239     12238     12244
     12240     12238     12244     12242     12241     12243     12242     12241     12244
     12242     12241     12245     12243     12241     12244     12243     12241     12245
     12244     12241     12245     12238     12244     12241     12241     12245     12246
     12245     12246     12247     12245     12246     12248     12245     12246     12249
     12247     12246     12248     12247     12246     12249     12248     12246     12249
     12246     12249     12250     12246     12249     12251     12246     12249     12257
     12250     12249     12251     12250     12249     12257     12251     12249     12257
     12249     12251     12252     12251     12252     12253     12251     12252     12254
     12253     12252     12254     12252     12254     12255     12252     12254     12256
     12252     12254     12266     12255     12254     12256     12255     12254     12266
     12256     12254     12266     12249     12257     12258     12249     12257     12259
     12249     12257     12260     12258     12257     12259     12258     12257     12260
     12259     12257     12260     12257     12260     12261     12260     12261     12262
     12260     12261     12263     12262     12261     12263     12261     12263     12264
     12261     12263     12265     12261     12263     12313     12264     12263     12265
     12264     12263     12313     12265     12263     12313     12254     12266     12267
     12254     12266     12268     12254     12266     12269     12267     12266     12268
     12267     12266     12269     12268     12266     12269     12266     12269     12270
     12266     12269     12271     12266     12269     12272     12270     12269     12271
     12270     12269     12272     12271     12269     12272     12269     12272     12273
     12269     12272     12274     12269     12272     12275     12273     12272     12274
     12273     12272     12275     12274     12272     12275     12272     12275     12276
     12272     12275     12277     12272     12275     12278     12276     12275     12277
     12276     12275     12278     12277     12275     12278     12275     12278     12279
     12275     12278     12280     12275     12278     12281     12279     12278     12280
     12279     12278     12281     12280     12278     12281     12278     12281     12282
     12278     12281     12283     12278     12281     12284     12282     12281     12283
     12282     12281     12284     12283     12281     12284     12281     12284     12285
     12281     12284     12286     12285     12284     12286     12284     12286     12287
     12284     12286     12288     12287     12286     12288     12286     12288     12289
     12286     12288     12290     12286     12288     12291     12289     12288     12290
     12289     12288     12291     12290     12288     12291     12288     12291     12292
     12288     12291     12293     12288     12291     12294     12292     12291     12293
     12292     12291     12294     12293     12291     12294     12291     12294     12295
     12291     12294     12296     12291     12294     12297     12295     12294     12296
     12295     12294     12297     12296     12294     12297     12294     12297     12298
     12294     12297     12299     12294     12297     12300     12298     12297     12299
     12298     12297     12300     12299     12297     12300     12297     12300     12301
     12297     12300     12302     12297     12300     12303     12301     12300     12302
     12301     12300     12303     12302     12300     12303     12300     12303     12304
     12300     12303     12305     12300     12303     12306     12304     12303     12305
     12304     12303     12306     12305     12303     12306     12303     12306     12307
     12303     12306     12308     12303     12306     12309     12307     12306     12308
     12307     12306     12309     12308     12306     12309     12306     12309     12310
     12306     12309     12311     12306     12309     12312     12310     12309     12311
     12310     12309     12312     12311     12309     12312     12263     12313     12314
     12263     12313     12315     12263     12313     12316     12314     12313     12315
     12314     12313     12316     12315     12313     12316     12313     12316     12317
     12313     12316     12318     12313     12316     12319     12317     12316     12318
     12317     12316     12319     12318     12316     12319     12316     12319     12320
     12316     12319     12321     12316     12319     12322     12320     12319     12321
     12320     12319     12322     12321     12319     12322     12319     12322     12323
     12319     12322     12324     12319     12322     12325     12323     12322     12324
     12323     12322     12325     12324     12322     12325     12322     12325     12326
     12322     12325     12327     12322     12325     12328     12326     12325     12327
     12326     12325     12328     12327     12325     12328     12325     12328     12329
     12325     12328     12330     12325     12328     12331     12329     12328     12330
     12329     12328     12331     12330     12328     12331     12328     12331     12332
     12328     12331     12333     12328     12331     12334     12332     12331     12333
     12332     12331     12334     12333     12331     12334     12331     12334     12335
     12331     12334     12336     12331     12334     12337     12335     12334     12336
     12335     12334     12337     12336     12334     12337     12334     12337     12338
     12334     12337     12339     12334     12337     12340     12338     12337     12339
     12338     12337     12340     12339     12337     12340     12337     12340     12341
     12337     12340     12342     12337     12340     12343     12341     12340     12342
     12341     12340     12343     12342     12340     12343     12340     12343     12344
     12340     12343     12345     12340     12343     12346     12344     12343     12345
     12344     12343     12346     12345     12343     12346     12343     12346     12347
     12343     12346     12348     12343     12346     12349     12347     12346     12348
     12347     12346     12349     12348     12346     12349     12346     12349     12350
     12346     12349     12351     12346     12349     12352     12350     12349     12351
     12350     12349     12352     12351     12349     12352     12349     12352     12353
     12349     12352     12354     12349     12352     12355     12353     12352     12354
     12353     12352     12355     12354     12352     12355     12357     12356     12358
     12357     12356     12359     12357     12356     12360     12358     12356     12359
     12358     12356     12360     12359     12356     12360     12356     12360     12361
     12356     12360     12362     12356     12360     12365     12361     12360     12362
     12361     12360     12365     12362     12360     12365     12360     12362     12363
     12360     12362     12364     12363     12362     12364     12360     12365     12366
     12360     12365     12367     12360     12365     12371     12366     12365     12367
     12366     12365     12371     12367     12365     12371     12369     12368     12370
     12369     12368     12371     12369     12368     12372     12370     12368     12371
     12370     12368     12372     12371     12368     12372     12365     12371     12368
     12368     12372     12373     12372     12373     12374     12372     12373     12375
     12372     12373     12376     12374     12373     12375     12374     12373     12376
     12375     12373     12376     12373     12376     12377     12373     12376     12378
     12373     12376     12384     12377     12376     12378     12377     12376     12384
     12378     12376     12384     12376     12378     12379     12378     12379     12380
     12378     12379     12381     12380     12379     12381     12379     12381     12382
     12379     12381     12383     12379     12381     12393     12382     12381     12383
     12382     12381     12393     12383     12381     12393     12376     12384     12385
     12376     12384     12386     12376     12384     12387     12385     12384     12386
     12385     12384     12387     12386     12384     12387     12384     12387     12388
     12387     12388     12389     12387     12388     12390     12389     12388     12390
     12388     12390     12391     12388     12390     12392     12388     12390     12440
     12391     12390     12392     12391     12390     12440     12392     12390     12440
     12381     12393     12394     12381     12393     12395     12381     12393     12396
     12394     12393     12395     12394     12393     12396     12395     12393     12396
     12393     12396     12397     12393     12396     12398     12393     12396     12399
     12397     12396     12398     12397     12396     12399     12398     12396     12399
     12396     12399     12400     12396     12399     12401     12396     12399     12402
     12400     12399     12401     12400     12399     12402     12401     12399     12402
     12399     12402     12403     12399     12402     12404     12399     12402     12405
     12403     12402     12404     12403     12402     12405     12404     12402     12405
     12402     12405     12406     12402     12405     12407     12402     12405     12408
     12406     12405     12407     12406     12405     12408     12407     12405     12408
     12405     12408     12409     12405     12408     12410     12405     12408     12411
     12409     12408     12410     12409     12408     12411     12410     12408     12411
     12408     12411     12412     12408     12411     12413     12412     12411     12413
     12411     12413     12414     12411     12413     12415     12414     12413     12415
     12413     12415     12416     12413     12415     12417     12413     12415     12418
     12416     12415     12417     12416     12415     12418     12417     12415     12418
     12415     12418     12419     12415     12418     12420     12415     12418     12421
     12419     12418     12420     12419     12418     12421     12420     12418     12421
     12418     12421     12422     12418     12421     12423     12418     12421     12424
     12422     12421     12423     12422     12421     12424     12423     12421     12424
     12421     12424     12425     12421     12424     12426     12421     12424     12427
     12425     12424     12426     12425     12424     12427     12426     12424     12427
     12424     12427     12428     12424     12427     12429     12424     12427     12430
     12428     12427     12429     12428     12427     12430     12429     12427     12430
     12427     12430     12431     12427     12430     12432     12427     12430     12433
     12431     12430     12432     12431     12430     12433     12432     12430     12433
     12430     12433     12434     12430     12433     12435     12430     12433     12436
     12434     12433     12435     12434     12433     12436     12435     12433     12436
     12433     12436     12437     12433     12436     12438     12433     12436     12439
     12437     12436     12438     12437     12436     12439     12438     12436     12439
     12390     12440     12441     12390     12440     12442     12390     12440     12443
     12441     12440     12442     12441     12440     12443     12442     12440     12443
     12440     12443     12444     12440     12443     12445     12440     12443     12446
     12444     12443     12445     12444     12443     12446     12445     12443     12446
     12443     12446     12447     12443     12446     12448     12443     12446     12449
     12447     12446     12448     12447     12446     12449     12448     12446     12449
     12446     12449     12450     12446     12449     12451     12446     12449     12452
     12450     12449     12451     12450     12449     12452     12451     12449     12452
     12449     12452     12453     12449     12452     12454     12449     12452     12455
     12453     12452     12454     12453     12452     12455     12454     12452     12455
     12452     12455     12456     12452     12455     12457     12452     12455     12458
     12456     12455     12457     12456     12455     12458     12457     12455     12458
     12455     12458     12459     12455     12458     12460     12455     12458     12461
     12459     12458     12460     12459     12458     12461     12460     12458     12461
     12458     12461     12462     12458     12461     12463     12458     12461     12464
     12462     12461     12463     12462     12461     12464     12463     12461     12464
     12461     12464     12465     12461     12464     12466     12461     12464     12467
     12465     12464     12466     12465     12464     12467     12466     12464     12467
     12464     12467     12468     12464     12467     12469     12464     12467     12470
     12468     12467     12469     12468     12467     12470     12469     12467     12470
     12467     12470     12471     12467     12470     12472     12467     12470     12473
     12471     12470     12472     12471     12470     12473     12472     12470     12473
     12470     12473     12474     12470     12473     12475     12470     12473     12476
     12474     12473     12475     12474     12473     12476     12475     12473     12476
     12473     12476     12477     12473     12476     12478     12473     12476     12479
     12477     12476     12478     12477     12476     12479     12478     12476     12479
     12476     12479     12480     12476     12479     12481     12476     12479     12482
     12480     12479     12481     12480     12479     12482     12481     12479     12482
     12484     12483     12485     12487     12486     12488     12490     12489     12491
     12493     12492     12494     12496     12495     12497     12499     12498     12500
     12502     12501     12503     12505     12504     12506     12508     12507     12509
     12511     12510     12512     12514     12513     12515     12517     12516     12518
     12520     12519     12521     12523     12522     12524     12526     12525     12527
     12529     12528     12530     12532     12531     12533     12535     12534     12536
     12538     12537     12539     12541     12540     12542     12544     12543     12545
     12547     12546     12548     12550     12549     12551     12553     12552     12554
     12556     12555     12557     12559     12558     12560     12562     12561     12563
     12565     12564     12566     12568     12567     12569     12571     12570     12572
     12574     12573     12575     12577     12576     12578     12580     12579     12581
     12583     12582     12584     12586     12585     12587     12589     12588     12590
     12592     12591     12593     12595     12594     12596     12598     12597     12599
     12601     12600     12602     12604     12603     12605     12607     12606     12608
     12610     12609     12611     12613     12612     12614     12616     12615     12617
     12619     12618     12620     12622     12621     12623     12625     12624     12626
     12628     12627     12629     12631     12630     12632     12634     12633     12635
     12637     12636     12638     12640     12639     12641     12643     12642     12644
     12646     12645     12647     12649     12648     12650     12652     12651     12653
     12655     12654     12656     12658     12657     12659     12661     12660     12662
     12664     12663     12665     12667     12666     12668     12670     12669     12671
     12673     12672     12674     12676     12675     12677     12679     12678     12680
     12682     12681     12683     12685     12684     12686     12688     12687     12689
     12691     12690     12692     12694     12693     12695     12697     12696     12698
     12700     12699     12701     12703     12702     12704     12706     12705     12707
     12709     12708     12710     12712     12711     12713     12715     12714     12716
     12718     12717     12719     12721     12720     12722     12724     12723     12725
     12727     12726     12728     12730     12729     12731     12733     12732     12734
     12736     12735     12737     12739     12738     12740     12742     12741     12743
     12745     12744     12746     12748     12747     12749     12751     12750     12752
     12754     12753     12755     12757     12756     12758     12760     12759     12761
     12763     12762     12764     12766     12765     12767     12769     12768     12770
     12772     12771     12773     12775     12774     12776     12778     12777     12779
     12781     12780     12782     12784     12783     12785     12787     12786     12788
     12790     12789     12791     12793     12792     12794     12796     12795     12797
     12799     12798     12800     12802     12801     12803     12805     12804     12806
     12808     12807     12809     12811     12810     12812     12814     12813     12815
     12817     12816     12818     12820     12819     12821     12823     12822     12824
     12826     12825     12827     12829     12828     12830     12832     12831     12833
     12835     12834     12836     12838     12837     12839     12841     12840     12842
     12844     12843     12845     12847     12846     12848     12850     12849     12851
     12853     12852     12854     12856     12855     12857     12859     12858     12860
     12862     12861     12863     12865     12864     12866     12868     12867     12869
     12871     12870     12872     12874     12873     12875     12877     12876     12878
     12880     12879     12881     12883     12882     12884     12886     12885     12887
     12889     12888     12890     12892     12891     12893     12895     12894     12896
     12898     12897     12899     12901     12900     12902     12904     12903     12905
     12907     12906     12908     12910     12909     12911     12913     12912     12914
     12916     12915     12917     12919     12918     12920     12922     12921     12923
     12925     12924     12926     12928     12927     12929     12931     12930     12932
     12934     12933     12935     12937     12936     12938     12940     12939     12941
     12943     12942     12944     12946     12945     12947     12949     12948     12950
     12952     12951     12953     12955     12954     12956     12958     12957     12959
     12961     12960     12962     12964     12963     12965     12967     12966     12968
     12970     12969     12971     12973     12972     12974     12976     12975     12977
     12979     12978     12980     12982     12981     12983     12985     12984     12986
     12988     12987     12989     12991     12990     12992     12994     12993     12995
     12997     12996     12998     13000     12999     13001     13003     13002     13004
     13006     13005     13007     13009     13008     13010     13012     13011     13013
     13015     13014     13016     13018     13017     13019     13021     13020     13022
     13024     13023     13025     13027     13026     13028     13030     13029     13031
     13033     13032     13034     13036     13035     13037     13039     13038     13040
     13042     13041     13043     13045     13044     13046     13048     13047     13049
     13051     13050     13052     13054     13053     13055     13057     13056     13058
     13060     13059     13061     13063     13062     13064     13066     13065     13067
     13069     13068     13070     13072     13071     13073     13075     13074     13076
     13078     13077     13079     13081     13080     13082     13084     13083     13085
     13087     13086     13088     13090     13089     13091     13093     13092     13094
     13096     13095     13097     13099     13098     13100     13102     13101     13103
     13105     13104     13106     13108     13107     13109     13111     13110     13112
     13114     13113     13115     13117     13116     13118     13120     13119     13121
     13123     13122     13124     13126     13125     13127     13129     13128     13130
     13132     13131     13133     13135     13134     13136     13138     13137     13139
     13141     13140     13142     13144     13143     13145     13147     13146     13148
     13150     13149     13151     13153     13152     13154     13156     13155     13157
     13159     13158     13160     13162     13161     13163     13165     13164     13166
     13168     13167     13169     13171     13170     13172     13174     13173     13175
     13177     13176     13178     13180     13179     13181     13183     13182     13184
     13186     13185     13187     13189     13188     13190     13192     13191     13193
     13195     13194     13196     13198     13197     13199     13201     13200     13202
     13204     13203     13205     13207     13206     13208     13210     13209     13211
     13213     13212     13214     13216     13215     13217     13219     13218     13220
     13222     13221     13223     13225     13224     13226     13228     13227     13229
     13231     13230     13232     13234     13233     13235     13237     13236     13238
     13240     13239     13241     13243     13242     13244     13246     13245     13247
     13249     13248     13250     13252     13251     13253     13255     13254     13256
     13258     13257     13259     13261     13260     13262     13264     13263     13265
     13267     13266     13268     13270     13269     13271     13273     13272     13274
     13276     13275     13277     13279     13278     13280     13282     13281     13283
     13285     13284     13286     13288     13287     13289     13291     13290     13292
     13294     13293     13295     13297     13296     13298     13300     13299     13301
     13303     13302     13304     13306     13305     13307     13309     13308     13310
     13312     13311     13313     13315     13314     13316     13318     13317     13319
     13321     13320     13322     13324     13323     13325     13327     13326     13328
     13330     13329     13331     13333     13332     13334     13336     13335     13337
     13339     13338     13340     13342     13341     13343     13345     13344     13346
     13348     13347     13349     13351     13350     13352     13354     13353     13355
     13357     13356     13358     13360     13359     13361     13363     13362     13364
     13366     13365     13367     13369     13368     13370     13372     13371     13373
     13375     13374     13376     13378     13377     13379     13381     13380     13382
     13384     13383     13385     13387     13386     13388     13390     13389     13391
     13393     13392     13394     13396     13395     13397     13399     13398     13400
     13402     13401     13403     13405     13404     13406     13408     13407     13409
     13411     13410     13412     13414     13413     13415     13417     13416     13418
     13420     13419     13421     13423     13422     13424     13426     13425     13427
     13429     13428     13430     13432     13431     13433     13435     13434     13436
     13438     13437     13439     13441     13440     13442     13444     13443     13445
     13447     13446     13448     13450     13449     13451     13453     13452     13454
     13456     13455     13457     13459     13458     13460     13462     13461     13463
     13465     13464     13466     13468     13467     13469     13471     13470     13472
     13474     13473     13475     13477     13476     13478     13480     13479     13481
     13483     13482     13484     13486     13485     13487     13489     13488     13490
     13492     13491     13493     13495     13494     13496     13498     13497     13499
     13501     13500     13502     13504     13503     13505     13507     13506     13508
     13510     13509     13511     13513     13512     13514     13516     13515     13517
     13519     13518     13520     13522     13521     13523     13525     13524     13526
     13528     13527     13529     13531     13530     13532     13534     13533     13535
     13537     13536     13538     13540     13539     13541     13543     13542     13544
     13546     13545     13547     13549     13548     13550     13552     13551     13553
     13555     13554     13556     13558     13557     13559     13561     13560     13562
     13564     13563     13565     13567     13566     13568     13570     13569     13571
     13573     13572     13574     13576     13575     13577     13579     13578     13580
     13582     13581     13583     13585     13584     13586     13588     13587     13589
     13591     13590     13592     13594     13593     13595     13597     13596     13598
     13600     13599     13601     13603     13602     13604     13606     13605     13607
     13609     13608     13610     13612     13611     13613     13615     13614     13616
     13618     13617     13619     13621     13620     13622     13624     13623     13625
     13627     13626     13628     13630     13629     13631     13633     13632     13634
     13636     13635     13637     13639     13638     13640     13642     13641     13643
     13645     13644     13646     13648     13647     13649     13651     13650     13652
     13654     13653     13655     13657     13656     13658     13660     13659     13661
     13663     13662     13664     13666     13665     13667     13669     13668     13670
     13672     13671     13673     13675     13674     13676     13678     13677     13679
     13681     13680     13682     13684     13683     13685     13687     13686     13688
     13690     13689     13691     13693     13692     13694     13696     13695     13697
     13699     13698     13700     13702     13701     13703     13705     13704     13706
     13708     13707     13709     13711     13710     13712     13714     13713     13715
     13717     13716     13718     13720     13719     13721     13723     13722     13724
     13726     13725     13727     13729     13728     13730     13732     13731     13733
     13735     13734     13736     13738     13737     13739     13741     13740     13742
     13744     13743     13745     13747     13746     13748     13750     13749     13751
     13753     13752     13754     13756     13755     13757     13759     13758     13760
     13762     13761     13763     13765     13764     13766     13768     13767     13769
     13771     13770     13772     13774     13773     13775     13777     13776     13778
     13780     13779     13781     13783     13782     13784     13786     13785     13787
     13789     13788     13790     13792     13791     13793     13795     13794     13796
     13798     13797     13799     13801     13800     13802     13804     13803     13805
     13807     13806     13808     13810     13809     13811     13813     13812     13814
     13816     13815     13817     13819     13818     13820     13822     13821     13823
     13825     13824     13826     13828     13827     13829     13831     13830     13832
     13834     13833     13835     13837     13836     13838     13840     13839     13841
     13843     13842     13844     13846     13845     13847     13849     13848     13850
     13852     13851     13853     13855     13854     13856     13858     13857     13859
     13861     13860     13862     13864     13863     13865     13867     13866     13868
     13870     13869     13871     13873     13872     13874     13876     13875     13877
     13879     13878     13880     13882     13881     13883     13885     13884     13886
     13888     13887     13889     13891     13890     13892     13894     13893     13895
     13897     13896     13898     13900     13899     13901     13903     13902     13904
     13906     13905     13907     13909     13908     13910     13912     13911     13913
     13915     13914     13916     13918     13917     13919     13921     13920     13922
     13924     13923     13925     13927     13926     13928     13930     13929     13931
     13933     13932     13934     13936     13935     13937     13939     13938     13940
     13942     13941     13943     13945     13944     13946     13948     13947     13949
     13951     13950     13952     13954     13953     13955     13957     13956     13958
     13960     13959     13961     13963     13962     13964     13966     13965     13967
     13969     13968     13970     13972     13971     13973     13975     13974     13976
     13978     13977     13979     13981     13980     13982     13984     13983     13985
     13987     13986     13988     13990     13989     13991     13993     13992     13994
     13996     13995     13997     13999     13998     14000     14002     14001     14003
     14005     14004     14006     14008     14007     14009     14011     14010     14012
     14014     14013     14015     14017     14016     14018     14020     14019     14021
     14023     14022     14024     14026     14025     14027     14029     14028     14030
     14032     14031     14033     14035     14034     14036     14038     14037     14039
     14041     14040     14042     14044     14043     14045     14047     14046     14048
     14050     14049     14051     14053     14052     14054     14056     14055     14057
     14059     14058     14060     14062     14061     14063     14065     14064     14066
     14068     14067     14069     14071     14070     14072     14074     14073     14075
     14077     14076     14078     14080     14079     14081     14083     14082     14084
     14086     14085     14087     14089     14088     14090     14092     14091     14093
     14095     14094     14096     14098     14097     14099     14101     14100     14102
     14104     14103     14105     14107     14106     14108     14110     14109     14111
     14113     14112     14114     14116     14115     14117     14119     14118     14120
     14122     14121     14123     14125     14124     14126     14128     14127     14129
     14131     14130     14132     14134     14133     14135     14137     14136     14138
     14140     14139     14141     14143     14142     14144     14146     14145     14147
     14149     14148     14150     14152     14151     14153     14155     14154     14156
     14158     14157     14159     14161     14160     14162     14164     14163     14165
     14167     14166     14168     14170     14169     14171     14173     14172     14174
     14176     14175     14177     14179     14178     14180     14182     14181     14183
     14185     14184     14186     14188     14187     14189     14191     14190     14192
     14194     14193     14195     14197     14196     14198     14200     14199     14201
     14203     14202     14204     14206     14205     14207     14209     14208     14210
     14212     14211     14213     14215     14214     14216     14218     14217     14219
     14221     14220     14222     14224     14223     14225     14227     14226     14228
     14230     14229     14231     14233     14232     14234     14236     14235     14237
     14239     14238     14240     14242     14241     14243     14245     14244     14246
     14248     14247     14249     14251     14250     14252     14254     14253     14255
     14257     14256     14258     14260     14259     14261     14263     14262     14264
     14266     14265     14267     14269     14268     14270     14272     14271     14273
     14275     14274     14276     14278     14277     14279     14281     14280     14282
     14284     14283     14285     14287     14286     14288     14290     14289     14291
     14293     14292     14294     14296     14295     14297     14299     14298     14300
     14302     14301     14303     14305     14304     14306     14308     14307     14309
     14311     14310     14312     14314     14313     14315     14317     14316     14318
     14320     14319     14321     14323     14322     14324     14326     14325     14327
     14329     14328     14330     14332     14331     14333     14335     14334     14336
     14338     14337     14339     14341     14340     14342     14344     14343     14345
     14347     14346     14348     14350     14349     14351     14353     14352     14354
     14356     14355     14357     14359     14358     14360     14362     14361     14363
     14365     14364     14366     14368     14367     14369     14371     14370     14372
     14374     14373     14375     14377     14376     14378     14380     14379     14381
     14383     14382     14384     14386     14385     14387     14389     14388     14390
     14392     14391     14393     14395     14394     14396     14398     14397     14399
     14401     14400     14402     14404     14403     14405     14407     14406     14408
     14410     14409     14411     14413     14412     14414     14416     14415     14417
     14419     14418     14420     14422     14421     14423     14425     14424     14426
     14428     14427     14429     14431     14430     14432     14434     14433     14435
     14437     14436     14438     14440     14439     14441     14443     14442     14444
     14446     14445     14447     14449     14448     14450     14452     14451     14453
     14455     14454     14456     14458     14457     14459     14461     14460     14462
     14464     14463     14465     14467     14466     14468     14470     14469     14471
     14473     14472     14474     14476     14475     14477     14479     14478     14480
     14482     14481     14483     14485     14484     14486     14488     14487     14489
     14491     14490     14492     14494     14493     14495     14497     14496     14498
     14500     14499     14501     14503     14502     14504     14506     14505     14507
     14509     14508     14510     14512     14511     14513     14515     14514     14516
     14518     14517     14519     14521     14520     14522     14524     14523     14525
     14527     14526     14528     14530     14529     14531     14533     14532     14534
     14536     14535     14537     14539     14538     14540     14542     14541     14543
     14545     14544     14546     14548     14547     14549     14551     14550     14552
     14554     14553     14555     14557     14556     14558     14560     14559     14561
     14563     14562     14564     14566     14565     14567     14569     14568     14570
     14572     14571     14573     14575     14574     14576     14578     14577     14579
     14581     14580     14582     14584     14583     14585     14587     14586     14588
     14590     14589     14591     14593     14592     14594     14596     14595     14597
     14599     14598     14600     14602     14601     14603     14605     14604     14606
     14608     14607     14609     14611     14610     14612     14614     14613     14615
     14617     14616     14618     14620     14619     14621     14623     14622     14624
     14626     14625     14627     14629     14628     14630     14632     14631     14633
     14635     14634     14636     14638     14637     14639     14641     14640     14642
     14644     14643     14645     14647     14646     14648     14650     14649     14651
     14653     14652     14654     14656     14655     14657     14659     14658     14660
     14662     14661     14663     14665     14664     14666     14668     14667     14669
     14671     14670     14672     14674     14673     14675     14677     14676     14678
     14680     14679     14681     14683     14682     14684     14686     14685     14687
     14689     14688     14690     14692     14691     14693     14695     14694     14696
     14698     14697     14699     14701     14700     14702     14704     14703     14705
     14707     14706     14708     14710     14709     14711     14713     14712     14714
     14716     14715     14717     14719     14718     14720     14722     14721     14723
     14725     14724     14726     14728     14727     14729     14731     14730     14732
     14734     14733     14735     14737     14736     14738     14740     14739     14741
     14743     14742     14744     14746     14745     14747     14749     14748     14750
     14752     14751     14753     14755     14754     14756     14758     14757     14759
     14761     14760     14762     14764     14763     14765     14767     14766     14768
     14770     14769     14771     14773     14772     14774     14776     14775     14777
     14779     14778     14780     14782     14781     14783     14785     14784     14786
     14788     14787     14789     14791     14790     14792     14794     14793     14795
     14797     14796     14798     14800     14799     14801     14803     14802     14804
     14806     14805     14807     14809     14808     14810     14812     14811     14813
     14815     14814     14816     14818     14817     14819     14821     14820     14822
     14824     14823     14825     14827     14826     14828     14830     14829     14831
     14833     14832     14834     14836     14835     14837     14839     14838     14840
     14842     14841     14843     14845     14844     14846     14848     14847     14849
     14851     14850     14852     14854     14853     14855     14857     14856     14858
     14860     14859     14861     14863     14862     14864     14866     14865     14867
     14869     14868     14870     14872     14871     14873     14875     14874     14876
     14878     14877     14879     14881     14880     14882     14884     14883     14885
     14887     14886     14888     14890     14889     14891     14893     14892     14894
     14896     14895     14897     14899     14898     14900     14902     14901     14903
     14905     14904     14906     14908     14907     14909     14911     14910     14912
     14914     14913     14915     14917     14916     14918     14920     14919     14921
     14923     14922     14924     14926     14925     14927     14929     14928     14930
     14932     14931     14933     14935     14934     14936     14938     14937     14939
     14941     14940     14942     14944     14943     14945     14947     14946     14948
     14950     14949     14951     14953     14952     14954     14956     14955     14957
     14959     14958     14960     14962     14961     14963     14965     14964     14966
     14968     14967     14969     14971     14970     14972     14974     14973     14975
     14977     14976     14978     14980     14979     14981     14983     14982     14984
     14986     14985     14987     14989     14988     14990     14992     14991     14993
     14995     14994     14996     14998     14997     14999     15001     15000     15002
     15004     15003     15005     15007     15006     15008     15010     15009     15011
     15013     15012     15014     15016     15015     15017     15019     15018     15020
     15022     15021     15023     15025     15024     15026     15028     15027     15029
     15031     15030     15032     15034     15033     15035     15037     15036     15038
     15040     15039     15041     15043     15042     15044     15046     15045     15047
     15049     15048     15050     15052     15051     15053     15055     15054     15056
     15058     15057     15059     15061     15060     15062     15064     15063     15065
     15067     15066     15068     15070     15069     15071     15073     15072     15074
     15076     15075     15077     15079     15078     15080     15082     15081     15083
     15085     15084     15086     15088     15087     15089     15091     15090     15092
     15094     15093     15095     15097     15096     15098     15100     15099     15101
     15103     15102     15104     15106     15105     15107     15109     15108     15110
     15112     15111     15113     15115     15114     15116     15118     15117     15119
     15121     15120     15122     15124     15123     15125     15127     15126     15128
     15130     15129     15131     15133     15132     15134     15136     15135     15137
     15139     15138     15140     15142     15141     15143     15145     15144     15146
     15148     15147     15149     15151     15150     15152     15154     15153     15155
     15157     15156     15158     15160     15159     15161     15163     15162     15164
     15166     15165     15167     15169     15168     15170     15172     15171     15173
     15175     15174     15176     15178     15177     15179     15181     15180     15182
     15184     15183     15185     15187     15186     15188     15190     15189     15191
     15193     15192     15194     15196     15195     15197     15199     15198     15200
     15202     15201     15203     15205     15204     15206     15208     15207     15209
     15211     15210     15212     15214     15213     15215     15217     15216     15218
     15220     15219     15221     15223     15222     15224     15226     15225     15227
     15229     15228     15230     15232     15231     15233     15235     15234     15236
     15238     15237     15239     15241     15240     15242     15244     15243     15245
     15247     15246     15248     15250     15249     15251     15253     15252     15254
     15256     15255     15257     15259     15258     15260     15262     15261     15263
     15265     15264     15266     15268     15267     15269     15271     15270     15272
     15274     15273     15275     15277     15276     15278     15280     15279     15281
     15283     15282     15284     15286     15285     15287     15289     15288     15290
     15292     15291     15293     15295     15294     15296     15298     15297     15299
     15301     15300     15302     15304     15303     15305     15307     15306     15308
     15310     15309     15311     15313     15312     15314     15316     15315     15317
     15319     15318     15320     15322     15321     15323     15325     15324     15326
     15328     15327     15329     15331     15330     15332     15334     15333     15335
     15337     15336     15338     15340     15339     15341     15343     15342     15344
     15346     15345     15347     15349     15348     15350     15352     15351     15353
     15355     15354     15356     15358     15357     15359     15361     15360     15362
     15364     15363     15365     15367     15366     15368     15370     15369     15371
     15373     15372     15374     15376     15375     15377     15379     15378     15380
     15382     15381     15383     15385     15384     15386     15388     15387     15389
     15391     15390     15392     15394     15393     15395     15397     15396     15398
     15400     15399     15401     15403     15402     15404     15406     15405     15407
     15409     15408     15410     15412     15411     15413     15415     15414     15416
     15418     15417     15419     15421     15420     15422     15424     15423     15425
     15427     15426     15428     15430     15429     15431     15433     15432     15434
     15436     15435     15437     15439     15438     15440     15442     15441     15443
     15445     15444     15446     15448     15447     15449     15451     15450     15452
     15454     15453     15455     15457     15456     15458     15460     15459     15461
     15463     15462     15464     15466     15465     15467     15469     15468     15470
     15472     15471     15473     15475     15474     15476     15478     15477     15479
     15481     15480     15482     15484     15483     15485     15487     15486     15488
     15490     15489     15491     15493     15492     15494     15496     15495     15497
     15499     15498     15500     15502     15501     15503     15505     15504     15506
     15508     15507     15509     15511     15510     15512     15514     15513     15515
     15517     15516     15518     15520     15519     15521     15523     15522     15524
     15526     15525     15527     15529     15528     15530     15532     15531     15533
     15535     15534     15536     15538     15537     15539     15541     15540     15542
     15544     15543     15545     15547     15546     15548     15550     15549     15551
     15553     15552     15554     15556     15555     15557     15559     15558     15560
     15562     15561     15563     15565     15564     15566     15568     15567     15569
     15571     15570     15572     15574     15573     15575     15577     15576     15578
     15580     15579     15581     15583     15582     15584     15586     15585     15587
     15589     15588     15590     15592     15591     15593     15595     15594     15596
     15598     15597     15599     15601     15600     15602     15604     15603     15605
     15607     15606     15608     15610     15609     15611     15613     15612     15614
     15616     15615     15617     15619     15618     15620     15622     15621     15623
     15625     15624     15626     15628     15627     15629     15631     15630     15632
     15634     15633     15635     15637     15636     15638     15640     15639     15641
     15643     15642     15644     15646     15645     15647     15649     15648     15650
     15652     15651     15653     15655     15654     15656     15658     15657     15659
     15661     15660     15662     15664     15663     15665     15667     15666     15668
     15670     15669     15671     15673     15672     15674     15676     15675     15677
     15679     15678     15680     15682     15681     15683     15685     15684     15686
     15688     15687     15689     15691     15690     15692     15694     15693     15695
     15697     15696     15698     15700     15699     15701     15703     15702     15704
     15706     15705     15707     15709     15708     15710     15712     15711     15713
     15715     15714     15716     15718     15717     15719     15721     15720     15722
     15724     15723     15725     15727     15726     15728     15730     15729     15731
     15733     15732     15734     15736     15735     15737     15739     15738     15740
     15742     15741     15743     15745     15744     15746     15748     15747     15749
     15751     15750     15752     15754     15753     15755     15757     15756     15758
     15760     15759     15761     15763     15762     15764     15766     15765     15767
     15769     15768     15770     15772     15771     15773     15775     15774     15776
     15778     15777     15779     15781     15780     15782     15784     15783     15785
     15787     15786     15788     15790     15789     15791     15793     15792     15794
     15796     15795     15797     15799     15798     15800     15802     15801     15803
     15805     15804     15806     15808     15807     15809     15811     15810     15812
     15814     15813     15815     15817     15816     15818     15820     15819     15821
     15823     15822     15824     15826     15825     15827     15829     15828     15830
     15832     15831     15833     15835     15834     15836     15838     15837     15839
     15841     15840     15842     15844     15843     15845     15847     15846     15848
     15850     15849     15851     15853     15852     15854     15856     15855     15857
     15859     15858     15860     15862     15861     15863     15865     15864     15866
     15868     15867     15869     15871     15870     15872     15874     15873     15875
     15877     15876     15878     15880     15879     15881     15883     15882     15884
     15886     15885     15887     15889     15888     15890     15892     15891     15893
     15895     15894     15896     15898     15897     15899     15901     15900     15902
     15904     15903     15905     15907     15906     15908     15910     15909     15911
     15913     15912     15914     15916     15915     15917     15919     15918     15920
     15922     15921     15923     15925     15924     15926     15928     15927     15929
     15931     15930     15932     15934     15933     15935     15937     15936     15938
     15940     15939     15941     15943     15942     15944     15946     15945     15947
     15949     15948     15950     15952     15951     15953     15955     15954     15956
     15958     15957     15959     15961     15960     15962     15964     15963     15965
     15967     15966     15968     15970     15969     15971     15973     15972     15974
     15976     15975     15977     15979     15978     15980     15982     15981     15983
     15985     15984     15986     15988     15987     15989     15991     15990     15992
     15994     15993     15995     15997     15996     15998     16000     15999     16001
     16003     16002     16004     16006     16005     16007     16009     16008     16010
     16012     16011     16013     16015     16014     16016     16018     16017     16019
     16021     16020     16022     16024     16023     16025     16027     16026     16028
     16030     16029     16031     16033     16032     16034     16036     16035     16037
     16039     16038     16040     16042     16041     16043     16045     16044     16046
     16048     16047     16049     16051     16050     16052     16054     16053     16055
     16057     16056     16058     16060     16059     16061     16063     16062     16064
     16066     16065     16067     16069     16068     16070     16072     16071     16073
     16075     16074     16076     16078     16077     16079     16081     16080     16082
     16084     16083     16085     16087     16086     16088     16090     16089     16091
     16093     16092     16094     16096     16095     16097     16099     16098     16100
     16102     16101     16103     16105     16104     16106     16108     16107     16109
     16111     16110     16112     16114     16113     16115     16117     16116     16118
     16120     16119     16121     16123     16122     16124     16126     16125     16127
     16129     16128     16130     16132     16131     16133     16135     16134     16136
     16138     16137     16139     16141     16140     16142     16144     16143     16145
     16147     16146     16148     16150     16149     16151     16153     16152     16154
     16156     16155     16157     16159     16158     16160     16162     16161     16163
     16165     16164     16166     16168     16167     16169     16171     16170     16172
     16174     16173     16175     16177     16176     16178     16180     16179     16181
     16183     16182     16184     16186     16185     16187     16189     16188     16190
     16192     16191     16193     16195     16194     16196     16198     16197     16199
     16201     16200     16202     16204     16203     16205     16207     16206     16208
     16210     16209     16211     16213     16212     16214     16216     16215     16217
     16219     16218     16220     16222     16221     16223     16225     16224     16226
     16228     16227     16229     16231     16230     16232     16234     16233     16235
     16237     16236     16238     16240     16239     16241     16243     16242     16244
     16246     16245     16247     16249     16248     16250     16252     16251     16253
     16255     16254     16256     16258     16257     16259     16261     16260     16262
     16264     16263     16265     16267     16266     16268     16270     16269     16271
     16273     16272     16274     16276     16275     16277     16279     16278     16280
     16282     16281     16283     16285     16284     16286     16288     16287     16289
     16291     16290     16292     16294     16293     16295     16297     16296     16298
     16300     16299     16301     16303     16302     16304     16306     16305     16307
     16309     16308     16310     16312     16311     16313     16315     16314     16316
     16318     16317     16319     16321     16320     16322     16324     16323     16325
     16327     16326     16328     16330     16329     16331     16333     16332     16334
     16336     16335     16337     16339     16338     16340     16342     16341     16343
     16345     16344     16346     16348     16347     16349     16351     16350     16352
     16354     16353     16355     16357     16356     16358     16360     16359     16361
     16363     16362     16364     16366     16365     16367     16369     16368     16370
     16372     16371     16373     16375     16374     16376     16378     16377     16379
     16381     16380     16382     16384     16383     16385     16387     16386     16388
     16390     16389     16391     16393     16392     16394     16396     16395     16397
     16399     16398     16400     16402     16401     16403     16405     16404     16406
     16408     16407     16409     16411     16410     16412     16414     16413     16415
     16417     16416     16418     16420     16419     16421     16423     16422     16424
     16426     16425     16427     16429     16428     16430     16432     16431     16433
     16435     16434     16436     16438     16437     16439     16441     16440     16442
     16444     16443     16445     16447     16446     16448     16450     16449     16451
     16453     16452     16454     16456     16455     16457     16459     16458     16460
     16462     16461     16463     16465     16464     16466     16468     16467     16469
     16471     16470     16472     16474     16473     16475     16477     16476     16478
     16480     16479     16481     16483     16482     16484     16486     16485     16487
     16489     16488     16490     16492     16491     16493     16495     16494     16496
     16498     16497     16499     16501     16500     16502     16504     16503     16505
     16507     16506     16508     16510     16509     16511     16513     16512     16514
     16516     16515     16517     16519     16518     16520     16522     16521     16523
     16525     16524     16526     16528     16527     16529     16531     16530     16532
     16534     16533     16535     16537     16536     16538     16540     16539     16541
     16543     16542     16544     16546     16545     16547     16549     16548     16550
     16552     16551     16553     16555     16554     16556     16558     16557     16559
     16561     16560     16562     16564     16563     16565     16567     16566     16568
     16570     16569     16571     16573     16572     16574     16576     16575     16577
     16579     16578     16580     16582     16581     16583     16585     16584     16586
     16588     16587     16589     16591     16590     16592     16594     16593     16595
     16597     16596     16598     16600     16599     16601     16603     16602     16604
     16606     16605     16607     16609     16608     16610     16612     16611     16613
     16615     16614     16616     16618     16617     16619     16621     16620     16622
     16624     16623     16625     16627     16626     16628     16630     16629     16631
     16633     16632     16634     16636     16635     16637     16639     16638     16640
     16642     16641     16643     16645     16644     16646     16648     16647     16649
     16651     16650     16652     16654     16653     16655     16657     16656     16658
     16660     16659     16661     16663     16662     16664     16666     16665     16667
     16669     16668     16670     16672     16671     16673     16675     16674     16676
     16678     16677     16679     16681     16680     16682     16684     16683     16685
     16687     16686     16688     16690     16689     16691     16693     16692     16694
     16696     16695     16697     16699     16698     16700     16702     16701     16703
     16705     16704     16706     16708     16707     16709     16711     16710     16712
     16714     16713     16715     16717     16716     16718     16720     16719     16721
     16723     16722     16724     16726     16725     16727     16729     16728     16730
     16732     16731     16733     16735     16734     16736     16738     16737     16739
     16741     16740     16742     16744     16743     16745     16747     16746     16748
     16750     16749     16751     16753     16752     16754     16756     16755     16757
     16759     16758     16760     16762     16761     16763     16765     16764     16766
     16768     16767     16769     16771     16770     16772     16774     16773     16775
     16777     16776     16778     16780     16779     16781     16783     16782     16784
     16786     16785     16787     16789     16788     16790     16792     16791     16793
     16795     16794     16796     16798     16797     16799     16801     16800     16802
     16804     16803     16805     16807     16806     16808     16810     16809     16811
     16813     16812     16814     16816     16815     16817     16819     16818     16820
     16822     16821     16823     16825     16824     16826     16828     16827     16829
     16831     16830     16832     16834     16833     16835     16837     16836     16838
     16840     16839     16841     16843     16842     16844     16846     16845     16847
     16849     16848     16850     16852     16851     16853     16855     16854     16856
     16858     16857     16859     16861     16860     16862     16864     16863     16865
     16867     16866     16868     16870     16869     16871     16873     16872     16874
     16876     16875     16877     16879     16878     16880     16882     16881     16883
     16885     16884     16886     16888     16887     16889     16891     16890     16892
     16894     16893     16895     16897     16896     16898     16900     16899     16901
     16903     16902     16904     16906     16905     16907     16909     16908     16910
     16912     16911     16913     16915     16914     16916     16918     16917     16919
     16921     16920     16922     16924     16923     16925     16927     16926     16928
     16930     16929     16931     16933     16932     16934     16936     16935     16937
     16939     16938     16940     16942     16941     16943     16945     16944     16946
     16948     16947     16949     16951     16950     16952     16954     16953     16955
     16957     16956     16958     16960     16959     16961     16963     16962     16964
     16966     16965     16967     16969     16968     16970     16972     16971     16973
     16975     16974     16976     16978     16977     16979     16981     16980     16982
     16984     16983     16985     16987     16986     16988     16990     16989     16991
     16993     16992     16994     16996     16995     16997     16999     16998     17000
     17002     17001     17003     17005     17004     17006     17008     17007     17009
     17011     17010     17012     17014     17013     17015     17017     17016     17018
     17020     17019     17021     17023     17022     17024     17026     17025     17027
     17029     17028     17030     17032     17031     17033     17035     17034     17036
     17038     17037     17039     17041     17040     17042     17044     17043     17045
     17047     17046     17048     17050     17049     17051     17053     17052     17054
     17056     17055     17057     17059     17058     17060     17062     17061     17063
     17065     17064     17066     17068     17067     17069     17071     17070     17072
     17074     17073     17075     17077     17076     17078     17080     17079     17081
     17083     17082     17084     17086     17085     17087     17089     17088     17090
     17092     17091     17093     17095     17094     17096     17098     17097     17099
     17101     17100     17102     17104     17103     17105     17107     17106     17108
     17110     17109     17111     17113     17112     17114     17116     17115     17117
     17119     17118     17120     17122     17121     17123     17125     17124     17126
     17128     17127     17129     17131     17130     17132     17134     17133     17135
     17137     17136     17138     17140     17139     17141     17143     17142     17144
     17146     17145     17147     17149     17148     17150     17152     17151     17153
     17155     17154     17156     17158     17157     17159     17161     17160     17162
     17164     17163     17165     17167     17166     17168     17170     17169     17171
     17173     17172     17174     17176     17175     17177     17179     17178     17180
     17182     17181     17183     17185     17184     17186     17188     17187     17189
     17191     17190     17192     17194     17193     17195     17197     17196     17198
     17200     17199     17201     17203     17202     17204     17206     17205     17207
     17209     17208     17210     17212     17211     17213     17215     17214     17216
     17218     17217     17219     17221     17220     17222     17224     17223     17225
     17227     17226     17228     17230     17229     17231     17233     17232     17234
     17236     17235     17237     17239     17238     17240     17242     17241     17243
     17245     17244     17246     17248     17247     17249     17251     17250     17252
     17254     17253     17255     17257     17256     17258     17260     17259     17261
     17263     17262     17264     17266     17265     17267     17269     17268     17270
     17272     17271     17273     17275     17274     17276     17278     17277     17279
     17281     17280     17282     17284     17283     17285     17287     17286     17288
     17290     17289     17291     17293     17292     17294     17296     17295     17297
     17299     17298     17300     17302     17301     17303     17305     17304     17306
     17308     17307     17309     17311     17310     17312     17314     17313     17315
     17317     17316     17318     17320     17319     17321     17323     17322     17324
     17326     17325     17327     17329     17328     17330     17332     17331     17333
     17335     17334     17336     17338     17337     17339     17341     17340     17342
     17344     17343     17345     17347     17346     17348     17350     17349     17351
     17353     17352     17354     17356     17355     17357     17359     17358     17360
     17362     17361     17363     17365     17364     17366     17368     17367     17369
     17371     17370     17372     17374     17373     17375     17377     17376     17378
     17380     17379     17381     17383     17382     17384     17386     17385     17387
     17389     17388     17390     17392     17391     17393     17395     17394     17396
     17398     17397     17399     17401     17400     17402     17404     17403     17405
     17407     17406     17408     17410     17409     17411     17413     17412     17414
     17416     17415     17417     17419     17418     17420     17422     17421     17423
     17425     17424     17426     17428     17427     17429     17431     17430     17432
     17434     17433     17435     17437     17436     17438     17440     17439     17441
     17443     17442     17444     17446     17445     17447     17449     17448     17450
     17452     17451     17453     17455     17454     17456     17458     17457     17459
     17461     17460     17462     17464     17463     17465     17467     17466     17468
     17470     17469     17471     17473     17472     17474     17476     17475     17477
     17479     17478     17480     17482     17481     17483     17485     17484     17486
     17488     17487     17489     17491     17490     17492     17494     17493     17495
     17497     17496     17498     17500     17499     17501     17503     17502     17504
     17506     17505     17507     17509     17508     17510     17512     17511     17513
     17515     17514     17516     17518     17517     17519     17521     17520     17522
     17524     17523     17525     17527     17526     17528     17530     17529     17531
     17533     17532     17534     17536     17535     17537     17539     17538     17540
     17542     17541     17543     17545     17544     17546     17548     17547     17549
     17551     17550     17552     17554     17553     17555     17557     17556     17558
     17560     17559     17561     17563     17562     17564     17566     17565     17567
     17569     17568     17570     17572     17571     17573     17575     17574     17576
     17578     17577     17579     17581     17580     17582     17584     17583     17585
     17587     17586     17588     17590     17589     17591     17593     17592     17594
     17596     17595     17597     17599     17598     17600     17602     17601     17603
     17605     17604     17606     17608     17607     17609     17611     17610     17612
     17614     17613     17615     17617     17616     17618     17620     17619     17621
     17623     17622     17624     17626     17625     17627     17629     17628     17630
     17632     17631     17633     17635     17634     17636     17638     17637     17639
     17641     17640     17642     17644     17643     17645     17647     17646     17648
     17650     17649     17651     17653     17652     17654     17656     17655     17657
     17659     17658     17660     17662     17661     17663     17665     17664     17666
     17668     17667     17669     17671     17670     17672     17674     17673     17675
     17677     17676     17678     17680     17679     17681     17683     17682     17684
     17686     17685     17687     17689     17688     17690     17692     17691     17693
     17695     17694     17696     17698     17697     17699     17701     17700     17702
     17704     17703     17705     17707     17706     17708     17710     17709     17711
     17713     17712     17714     17716     17715     17717     17719     17718     17720
     17722     17721     17723     17725     17724     17726     17728     17727     17729
     17731     17730     17732     17734     17733     17735     17737     17736     17738
     17740     17739     17741     17743     17742     17744     17746     17745     17747
     17749     17748     17750     17752     17751     17753     17755     17754     17756
     17758     17757     17759     17761     17760     17762     17764     17763     17765
     17767     17766     17768     17770     17769     17771     17773     17772     17774
     17776     17775     17777     17779     17778     17780     17782     17781     17783
     17785     17784     17786     17788     17787     17789     17791     17790     17792
     17794     17793     17795     17797     17796     17798     17800     17799     17801
     17803     17802     17804     17806     17805     17807     17809     17808     17810
     17812     17811     17813     17815     17814     17816     17818     17817     17819
     17821     17820     17822     17824     17823     17825     17827     17826     17828
     17830     17829     17831     17833     17832     17834     17836     17835     17837
     17839     17838     17840     17842     17841     17843     17845     17844     17846
     17848     17847     17849     17851     17850     17852     17854     17853     17855
     17857     17856     17858     17860     17859     17861     17863     17862     17864
     17866     17865     17867     17869     17868     17870     17872     17871     17873
     17875     17874     17876     17878     17877     17879     17881     17880     17882
     17884     17883     17885     17887     17886     17888     17890     17889     17891
     17893     17892     17894     17896     17895     17897     17899     17898     17900
     17902     17901     17903     17905     17904     17906     17908     17907     17909
     17911     17910     17912     17914     17913     17915     17917     17916     17918
     17920     17919     17921     17923     17922     17924     17926     17925     17927
     17929     17928     17930     17932     17931     17933     17935     17934     17936
     17938     17937     17939     17941     17940     17942     17944     17943     17945
     17947     17946     17948     17950     17949     17951     17953     17952     17954
     17956     17955     17957     17959     17958     17960     17962     17961     17963
     17965     17964     17966     17968     17967     17969     17971     17970     17972
     17974     17973     17975     17977     17976     17978     17980     17979     17981
     17983     17982     17984     17986     17985     17987     17989     17988     17990
     17992     17991     17993     17995     17994     17996     17998     17997     17999
     18001     18000     18002     18004     18003     18005     18007     18006     18008
     18010     18009     18011     18013     18012     18014     18016     18015     18017
     18019     18018     18020     18022     18021     18023     18025     18024     18026
     18028     18027     18029     18031     18030     18032     18034     18033     18035
     18037     18036     18038     18040     18039     18041     18043     18042     18044
     18046     18045     18047     18049     18048     18050     18052     18051     18053
     18055     18054     18056     18058     18057     18059     18061     18060     18062
     18064     18063     18065     18067     18066     18068     18070     18069     18071
     18073     18072     18074     18076     18075     18077     18079     18078     18080
     18082     18081     18083     18085     18084     18086     18088     18087     18089
     18091     18090     18092     18094     18093     18095     18097     18096     18098
     18100     18099     18101     18103     18102     18104     18106     18105     18107
     18109     18108     18110     18112     18111     18113     18115     18114     18116
     18118     18117     18119     18121     18120     18122     18124     18123     18125
     18127     18126     18128     18130     18129     18131     18133     18132     18134
     18136     18135     18137     18139     18138     18140     18142     18141     18143
     18145     18144     18146     18148     18147     18149     18151     18150     18152
     18154     18153     18155     18157     18156     18158     18160     18159     18161
     18163     18162     18164     18166     18165     18167     18169     18168     18170
     18172     18171     18173     18175     18174     18176     18178     18177     18179
     18181     18180     18182     18184     18183     18185     18187     18186     18188
     18190     18189     18191     18193     18192     18194     18196     18195     18197
     18199     18198     18200     18202     18201     18203     18205     18204     18206
     18208     18207     18209     18211     18210     18212     18214     18213     18215
     18217     18216     18218     18220     18219     18221     18223     18222     18224
     18226     18225     18227     18229     18228     18230     18232     18231     18233
     18235     18234     18236     18238     18237     18239     18241     18240     18242
     18244     18243     18245     18247     18246     18248     18250     18249     18251
     18253     18252     18254     18256     18255     18257     18259     18258     18260
     18262     18261     18263     18265     18264     18266     18268     18267     18269
     18271     18270     18272     18274     18273     18275     18277     18276     18278
     18280     18279     18281     18283     18282     18284     18286     18285     18287
     18289     18288     18290     18292     18291     18293     18295     18294     18296
     18298     18297     18299     18301     18300     18302     18304     18303     18305
     18307     18306     18308     18310     18309     18311     18313     18312     18314
     18316     18315     18317     18319     18318     18320     18322     18321     18323
     18325     18324     18326     18328     18327     18329     18331     18330     18332
     18334     18333     18335     18337     18336     18338     18340     18339     18341
     18343     18342     18344     18346     18345     18347     18349     18348     18350
     18352     18351     18353     18355     18354     18356     18358     18357     18359
     18361     18360     18362     18364     18363     18365     18367     18366     18368
     18370     18369     18371     18373     18372     18374     18376     18375     18377
     18379     18378     18380     18382     18381     18383     18385     18384     18386
     18388     18387     18389     18391     18390     18392     18394     18393     18395
     18397     18396     18398     18400     18399     18401     18403     18402     18404
     18406     18405     18407     18409     18408     18410     18412     18411     18413
     18415     18414     18416     18418     18417     18419     18421     18420     18422
     18424     18423     18425     18427     18426     18428     18430     18429     18431
     18433     18432     18434     18436     18435     18437     18439     18438     18440
     18442     18441     18443     18445     18444     18446     18448     18447     18449
     18451     18450     18452     18454     18453     18455     18457     18456     18458
     18460     18459     18461     18463     18462     18464     18466     18465     18467
     18469     18468     18470     18472     18471     18473     18475     18474     18476
     18478     18477     18479     18481     18480     18482     18484     18483     18485
     18487     18486     18488     18490     18489     18491     18493     18492     18494
     18496     18495     18497     18499     18498     18500     18502     18501     18503
     18505     18504     18506     18508     18507     18509     18511     18510     18512
     18514     18513     18515     18517     18516     18518     18520     18519     18521
     18523     18522     18524     18526     18525     18527     18529     18528     18530
     18532     18531     18533     18535     18534     18536     18538     18537     18539
     18541     18540     18542     18544     18543     18545     18547     18546     18548
     18550     18549     18551     18553     18552     18554     18556     18555     18557
     18559     18558     18560     18562     18561     18563     18565     18564     18566
     18568     18567     18569     18571     18570     18572     18574     18573     18575
     18577     18576     18578     18580     18579     18581     18583     18582     18584
     18586     18585     18587     18589     18588     18590     18592     18591     18593
     18595     18594     18596     18598     18597     18599     18601     18600     18602
     18604     18603     18605     18607     18606     18608     18610     18609     18611
     18613     18612     18614     18616     18615     18617     18619     18618     18620
     18622     18621     18623     18625     18624     18626     18628     18627     18629
     18631     18630     18632     18634     18633     18635     18637     18636     18638
     18640     18639     18641     18643     18642     18644     18646     18645     18647
     18649     18648     18650     18652     18651     18653     18655     18654     18656
     18658     18657     18659     18661     18660     18662     18664     18663     18665
     18667     18666     18668     18670     18669     18671     18673     18672     18674
     18676     18675     18677     18679     18678     18680     18682     18681     18683
     18685     18684     18686     18688     18687     18689     18691     18690     18692
     18694     18693     18695     18697     18696     18698     18700     18699     18701
     18703     18702     18704     18706     18705     18707     18709     18708     18710
     18712     18711     18713     18715     18714     18716     18718     18717     18719
     18721     18720     18722     18724     18723     18725     18727     18726     18728
     18730     18729     18731     18733     18732     18734     18736     18735     18737
     18739     18738     18740     18742     18741     18743     18745     18744     18746
     18748     18747     18749     18751     18750     18752     18754     18753     18755
     18757     18756     18758     18760     18759     18761     18763     18762     18764
     18766     18765     18767     18769     18768     18770     18772     18771     18773
     18775     18774     18776     18778     18777     18779     18781     18780     18782
     18784     18783     18785     18787     18786     18788     18790     18789     18791
     18793     18792     18794     18796     18795     18797     18799     18798     18800
     18802     18801     18803     18805     18804     18806     18808     18807     18809
     18811     18810     18812     18814     18813     18815     18817     18816     18818
     18820     18819     18821     18823     18822     18824     18826     18825     18827
     18829     18828     18830     18832     18831     18833     18835     18834     18836
     18838     18837     18839     18841     18840     18842     18844     18843     18845
     18847     18846     18848     18850     18849     18851     18853     18852     18854
     18856     18855     18857     18859     18858     18860     18862     18861     18863
     18865     18864     18866     18868     18867     18869     18871     18870     18872
     18874     18873     18875     18877     18876     18878     18880     18879     18881
     18883     18882     18884     18886     18885     18887     18889     18888     18890
     18892     18891     18893     18895     18894     18896     18898     18897     18899
     18901     18900     18902     18904     18903     18905     18907     18906     18908
     18910     18909     18911     18913     18912     18914     18916     18915     18917
     18919     18918     18920     18922     18921     18923     18925     18924     18926
     18928     18927     18929     18931     18930     18932     18934     18933     18935
     18937     18936     18938     18940     18939     18941     18943     18942     18944
     18946     18945     18947     18949     18948     18950     18952     18951     18953
     18955     18954     18956     18958     18957     18959     18961     18960     18962
     18964     18963     18965     18967     18966     18968     18970     18969     18971
     18973     18972     18974     18976     18975     18977     18979     18978     18980
     18982     18981     18983     18985     18984     18986     18988     18987     18989
     18991     18990     18992     18994     18993     18995     18997     18996     18998
     19000     18999     19001     19003     19002     19004     19006     19005     19007
     19009     19008     19010     19012     19011     19013     19015     19014     19016
     19018     19017     19019     19021     19020     19022     19024     19023     19025
     19027     19026     19028     19030     19029     19031     19033     19032     19034
     19036     19035     19037     19039     19038     19040     19042     19041     19043
     19045     19044     19046     19048     19047     19049     19051     19050     19052
     19054     19053     19055     19057     19056     19058     19060     19059     19061
     19063     19062     19064     19066     19065     19067     19069     19068     19070
     19072     19071     19073     19075     19074     19076     19078     19077     19079
     19081     19080     19082     19084     19083     19085     19087     19086     19088
     19090     19089     19091     19093     19092     19094     19096     19095     19097
     19099     19098     19100     19102     19101     19103     19105     19104     19106
     19108     19107     19109     19111     19110     19112     19114     19113     19115
     19117     19116     19118     19120     19119     19121     19123     19122     19124
     19126     19125     19127     19129     19128     19130     19132     19131     19133
     19135     19134     19136     19138     19137     19139     19141     19140     19142
     19144     19143     19145     19147     19146     19148     19150     19149     19151
     19153     19152     19154     19156     19155     19157     19159     19158     19160
     19162     19161     19163     19165     19164     19166     19168     19167     19169
     19171     19170     19172     19174     19173     19175     19177     19176     19178
     19180     19179     19181     19183     19182     19184     19186     19185     19187
     19189     19188     19190     19192     19191     19193     19195     19194     19196
     19198     19197     19199     19201     19200     19202     19204     19203     19205
     19207     19206     19208     19210     19209     19211     19213     19212     19214
     19216     19215     19217     19219     19218     19220     19222     19221     19223
     19225     19224     19226     19228     19227     19229     19231     19230     19232
     19234     19233     19235     19237     19236     19238     19240     19239     19241
     19243     19242     19244     19246     19245     19247     19249     19248     19250
     19252     19251     19253     19255     19254     19256     19258     19257     19259
     19261     19260     19262     19264     19263     19265     19267     19266     19268
     19270     19269     19271     19273     19272     19274     19276     19275     19277
     19279     19278     19280     19282     19281     19283     19285     19284     19286
     19288     19287     19289     19291     19290     19292     19294     19293     19295
     19297     19296     19298     19300     19299     19301     19303     19302     19304
     19306     19305     19307     19309     19308     19310     19312     19311     19313
     19315     19314     19316     19318     19317     19319     19321     19320     19322
     19324     19323     19325     19327     19326     19328     19330     19329     19331
     19333     19332     19334     19336     19335     19337     19339     19338     19340
     19342     19341     19343     19345     19344     19346     19348     19347     19349
     19351     19350     19352     19354     19353     19355     19357     19356     19358
     19360     19359     19361     19363     19362     19364     19366     19365     19367
     19369     19368     19370     19372     19371     19373     19375     19374     19376
     19378     19377     19379     19381     19380     19382     19384     19383     19385
     19387     19386     19388     19390     19389     19391     19393     19392     19394
     19396     19395     19397     19399     19398     19400     19402     19401     19403
     19405     19404     19406     19408     19407     19409     19411     19410     19412
     19414     19413     19415     19417     19416     19418     19420     19419     19421
     19423     19422     19424     19426     19425     19427     19429     19428     19430
     19432     19431     19433     19435     19434     19436     19438     19437     19439
     19441     19440     19442     19444     19443     19445     19447     19446     19448
     19450     19449     19451     19453     19452     19454     19456     19455     19457
     19459     19458     19460     19462     19461     19463     19465     19464     19466
     19468     19467     19469     19471     19470     19472     19474     19473     19475
     19477     19476     19478     19480     19479     19481     19483     19482     19484
     19486     19485     19487     19489     19488     19490     19492     19491     19493
     19495     19494     19496     19498     19497     19499     19501     19500     19502
     19504     19503     19505     19507     19506     19508     19510     19509     19511
     19513     19512     19514     19516     19515     19517     19519     19518     19520
     19522     19521     19523     19525     19524     19526     19528     19527     19529
     19531     19530     19532     19534     19533     19535     19537     19536     19538
     19540     19539     19541     19543     19542     19544     19546     19545     19547
     19549     19548     19550     19552     19551     19553     19555     19554     19556
     19558     19557     19559     19561     19560     19562     19564     19563     19565
     19567     19566     19568     19570     19569     19571     19573     19572     19574
     19576     19575     19577     19579     19578     19580     19582     19581     19583
     19585     19584     19586     19588     19587     19589     19591     19590     19592
     19594     19593     19595     19597     19596     19598     19600     19599     19601
     19603     19602     19604     19606     19605     19607     19609     19608     19610
     19612     19611     19613     19615     19614     19616     19618     19617     19619
     19621     19620     19622     19624     19623     19625     19627     19626     19628
     19630     19629     19631     19633     19632     19634     19636     19635     19637
     19639     19638     19640     19642     19641     19643     19645     19644     19646
     19648     19647     19649     19651     19650     19652     19654     19653     19655
     19657     19656     19658     19660     19659     19661     19663     19662     19664
     19666     19665     19667     19669     19668     19670     19672     19671     19673
     19675     19674     19676     19678     19677     19679     19681     19680     19682
     19684     19683     19685     19687     19686     19688     19690     19689     19691
     19693     19692     19694     19696     19695     19697     19699     19698     19700
     19702     19701     19703     19705     19704     19706     19708     19707     19709
     19711     19710     19712     19714     19713     19715     19717     19716     19718
     19720     19719     19721     19723     19722     19724     19726     19725     19727
     19729     19728     19730     19732     19731     19733     19735     19734     19736
     19738     19737     19739     19741     19740     19742     19744     19743     19745
     19747     19746     19748     19750     19749     19751     19753     19752     19754
     19756     19755     19757     19759     19758     19760     19762     19761     19763
     19765     19764     19766     19768     19767     19769     19771     19770     19772
     19774     19773     19775     19777     19776     19778     19780     19779     19781
     19783     19782     19784     19786     19785     19787     19789     19788     19790
     19792     19791     19793     19795     19794     19796     19798     19797     19799
     19801     19800     19802     19804     19803     19805     19807     19806     19808
     19810     19809     19811     19813     19812     19814     19816     19815     19817
     19819     19818     19820     19822     19821     19823     19825     19824     19826
     19828     19827     19829     19831     19830     19832     19834     19833     19835
     19837     19836     19838     19840     19839     19841     19843     19842     19844
     19846     19845     19847     19849     19848     19850     19852     19851     19853
     19855     19854     19856     19858     19857     19859     19861     19860     19862
     19864     19863     19865     19867     19866     19868     19870     19869     19871
     19873     19872     19874     19876     19875     19877     19879     19878     19880
     19882     19881     19883     19885     19884     19886     19888     19887     19889
     19891     19890     19892     19894     19893     19895     19897     19896     19898
     19900     19899     19901     19903     19902     19904     19906     19905     19907
     19909     19908     19910     19912     19911     19913     19915     19914     19916
     19918     19917     19919     19921     19920     19922     19924     19923     19925
     19927     19926     19928     19930     19929     19931     19933     19932     19934
     19936     19935     19937     19939     19938     19940     19942     19941     19943
     19945     19944     19946     19948     19947     19949     19951     19950     19952
     19954     19953     19955     19957     19956     19958     19960     19959     19961
     19963     19962     19964     19966     19965     19967     19969     19968     19970
     19972     19971     19973     19975     19974     19976     19978     19977     19979
     19981     19980     19982     19984     19983     19985     19987     19986     19988
     19990     19989     19991     19993     19992     19994     19996     19995     19997
     19999     19998     20000     20002     20001     20003     20005     20004     20006
     20008     20007     20009     20011     20010     20012     20014     20013     20015
     20017     20016     20018     20020     20019     20021     20023     20022     20024
     20026     20025     20027     20029     20028     20030     20032     20031     20033
     20035     20034     20036     20038     20037     20039     20041     20040     20042
     20044     20043     20045     20047     20046     20048     20050     20049     20051
     20053     20052     20054     20056     20055     20057     20059     20058     20060
     20062     20061     20063     20065     20064     20066     20068     20067     20069
     20071     20070     20072     20074     20073     20075     20077     20076     20078
     20080     20079     20081     20083     20082     20084     20086     20085     20087
     20089     20088     20090     20092     20091     20093     20095     20094     20096
     20098     20097     20099     20101     20100     20102     20104     20103     20105
     20107     20106     20108     20110     20109     20111     20113     20112     20114
     20116     20115     20117     20119     20118     20120     20122     20121     20123
     20125     20124     20126     20128     20127     20129     20131     20130     20132
     20134     20133     20135     20137     20136     20138     20140     20139     20141
     20143     20142     20144     20146     20145     20147     20149     20148     20150
     20152     20151     20153     20155     20154     20156     20158     20157     20159
     20161     20160     20162     20164     20163     20165     20167     20166     20168
     20170     20169     20171     20173     20172     20174     20176     20175     20177
     20179     20178     20180     20182     20181     20183     20185     20184     20186
     20188     20187     20189     20191     20190     20192     20194     20193     20195
     20197     20196     20198     20200     20199     20201     20203     20202     20204
     20206     20205     20207     20209     20208     20210     20212     20211     20213
     20215     20214     20216     20218     20217     20219     20221     20220     20222
     20224     20223     20225     20227     20226     20228     20230     20229     20231
     20233     20232     20234     20236     20235     20237     20239     20238     20240
     20242     20241     20243     20245     20244     20246     20248     20247     20249
     20251     20250     20252     20254     20253     20255     20257     20256     20258
     20260     20259     20261     20263     20262     20264     20266     20265     20267
     20269     20268     20270     20272     20271     20273     20275     20274     20276
     20278     20277     20279     20281     20280     20282     20284     20283     20285
     20287     20286     20288     20290     20289     20291     20293     20292     20294
     20296     20295     20297     20299     20298     20300     20302     20301     20303
     20305     20304     20306     20308     20307     20309     20311     20310     20312
     20314     20313     20315     20317     20316     20318     20320     20319     20321
     20323     20322     20324     20326     20325     20327     20329     20328     20330
     20332     20331     20333     20335     20334     20336     20338     20337     20339
     20341     20340     20342     20344     20343     20345     20347     20346     20348
     20350     20349     20351     20353     20352     20354     20356     20355     20357
     20359     20358     20360     20362     20361     20363     20365     20364     20366
     20368     20367     20369     20371     20370     20372     20374     20373     20375
     20377     20376     20378     20380     20379     20381     20383     20382     20384
     20386     20385     20387     20389     20388     20390     20392     20391     20393
     20395     20394     20396     20398     20397     20399     20401     20400     20402
     20404     20403     20405     20407     20406     20408     20410     20409     20411
     20413     20412     20414     20416     20415     20417     20419     20418     20420
     20422     20421     20423     20425     20424     20426     20428     20427     20429
     20431     20430     20432     20434     20433     20435     20437     20436     20438
     20440     20439     20441     20443     20442     20444     20446     20445     20447
     20449     20448     20450     20452     20451     20453     20455     20454     20456
     20458     20457     20459     20461     20460     20462     20464     20463     20465
     20467     20466     20468     20470     20469     20471     20473     20472     20474
     20476     20475     20477     20479     20478     20480     20482     20481     20483
     20485     20484     20486     20488     20487     20489     20491     20490     20492
     20494     20493     20495     20497     20496     20498     20500     20499     20501
     20503     20502     20504     20506     20505     20507     20509     20508     20510
     20512     20511     20513     20515     20514     20516     20518     20517     20519
     20521     20520     20522     20524     20523     20525     20527     20526     20528
     20530     20529     20531     20533     20532     20534     20536     20535     20537
     20539     20538     20540     20542     20541     20543     20545     20544     20546
     20548     20547     20549     20551     20550     20552     20554     20553     20555
     20557     20556     20558     20560     20559     20561     20563     20562     20564
     20566     20565     20567     20569     20568     20570     20572     20571     20573
     20575     20574     20576     20578     20577     20579     20581     20580     20582
     20584     20583     20585     20587     20586     20588     20590     20589     20591
     20593     20592     20594     20596     20595     20597     20599     20598     20600
     20602     20601     20603     20605     20604     20606     20608     20607     20609
     20611     20610     20612     20614     20613     20615     20617     20616     20618
     20620     20619     20621     20623     20622     20624     20626     20625     20627
     20629     20628     20630     20632     20631     20633     20635     20634     20636
     20638     20637     20639     20641     20640     20642     20644     20643     20645
     20647     20646     20648     20650     20649     20651     20653     20652     20654
     20656     20655     20657     20659     20658     20660     20662     20661     20663
     20665     20664     20666     20668     20667     20669     20671     20670     20672
     20674     20673     20675     20677     20676     20678     20680     20679     20681
     20683     20682     20684     20686     20685     20687     20689     20688     20690
     20692     20691     20693     20695     20694     20696     20698     20697     20699
     20701     20700     20702     20704     20703     20705     20707     20706     20708
     20710     20709     20711     20713     20712     20714     20716     20715     20717
     20719     20718     20720     20722     20721     20723     20725     20724     20726
     20728     20727     20729     20731     20730     20732     20734     20733     20735
     20737     20736     20738     20740     20739     20741     20743     20742     20744
     20746     20745     20747     20749     20748     20750     20752     20751     20753
     20755     20754     20756     20758     20757     20759     20761     20760     20762
     20764     20763     20765     20767     20766     20768     20770     20769     20771
     20773     20772     20774     20776     20775     20777     20779     20778     20780
     20782     20781     20783     20785     20784     20786     20788     20787     20789
     20791     20790     20792     20794     20793     20795     20797     20796     20798
     20800     20799     20801     20803     20802     20804     20806     20805     20807
     20809     20808     20810     20812     20811     20813     20815     20814     20816
     20818     20817     20819     20821     20820     20822     20824     20823     20825
     20827     20826     20828     20830     20829     20831     20833     20832     20834
     20836     20835     20837     20839     20838     20840     20842     20841     20843
     20845     20844     20846     20848     20847     20849     20851     20850     20852
     20854     20853     20855     20857     20856     20858     20860     20859     20861
     20863     20862     20864     20866     20865     20867     20869     20868     20870
     20872     20871     20873     20875     20874     20876     20878     20877     20879
     20881     20880     20882     20884     20883     20885     20887     20886     20888
     20890     20889     20891     20893     20892     20894     20896     20895     20897
     20899     20898     20900     20902     20901     20903     20905     20904     20906
     20908     20907     20909     20911     20910     20912     20914     20913     20915
     20917     20916     20918     20920     20919     20921     20923     20922     20924
     20926     20925     20927     20929     20928     20930     20932     20931     20933
     20935     20934     20936     20938     20937     20939     20941     20940     20942
     20944     20943     20945     20947     20946     20948     20950     20949     20951
     20953     20952     20954     20956     20955     20957     20959     20958     20960
     20962     20961     20963     20965     20964     20966     20968     20967     20969
     20971     20970     20972     20974     20973     20975     20977     20976     20978
     20980     20979     20981     20983     20982     20984     20986     20985     20987
     20989     20988     20990     20992     20991     20993     20995     20994     20996
     20998     20997     20999     21001     21000     21002     21004     21003     21005
     21007     21006     21008     21010     21009     21011     21013     21012     21014
     21016     21015     21017     21019     21018     21020     21022     21021     21023
     21025     21024     21026     21028     21027     21029     21031     21030     21032
     21034     21033     21035     21037     21036     21038     21040     21039     21041
     21043     21042     21044     21046     21045     21047     21049     21048     21050
     21052     21051     21053     21055     21054     21056     21058     21057     21059
     21061     21060     21062     21064     21063     21065     21067     21066     21068
     21070     21069     21071     21073     21072     21074     21076     21075     21077
     21079     21078     21080     21082     21081     21083     21085     21084     21086
     21088     21087     21089     21091     21090     21092     21094     21093     21095
     21097     21096     21098     21100     21099     21101     21103     21102     21104
     21106     21105     21107     21109     21108     21110     21112     21111     21113
     21115     21114     21116     21118     21117     21119     21121     21120     21122
     21124     21123     21125     21127     21126     21128     21130     21129     21131
     21133     21132     21134     21136     21135     21137     21139     21138     21140
     21142     21141     21143     21145     21144     21146     21148     21147     21149
     21151     21150     21152     21154     21153     21155     21157     21156     21158
     21160     21159     21161     21163     21162     21164     21166     21165     21167
     21169     21168     21170     21172     21171     21173     21175     21174     21176
     21178     21177     21179     21181     21180     21182     21184     21183     21185
     21187     21186     21188     21190     21189     21191     21193     21192     21194
     21196     21195     21197     21199     21198     21200     21202     21201     21203
     21205     21204     21206     21208     21207     21209     21211     21210     21212
     21214     21213     21215     21217     21216     21218     21220     21219     21221
     21223     21222     21224     21226     21225     21227     21229     21228     21230
     21232     21231     21233     21235     21234     21236     21238     21237     21239
     21241     21240     21242     21244     21243     21245     21247     21246     21248
     21250     21249     21251     21253     21252     21254     21256     21255     21257
     21259     21258     21260     21262     21261     21263     21265     21264     21266
     21268     21267     21269     21271     21270     21272     21274     21273     21275
     21277     21276     21278     21280     21279     21281     21283     21282     21284
     21286     21285     21287     21289     21288     21290     21292     21291     21293
     21295     21294     21296     21298     21297     21299     21301     21300     21302
     21304     21303     21305     21307     21306     21308     21310     21309     21311
     21313     21312     21314     21316     21315     21317     21319     21318     21320
     21322     21321     21323     21325     21324     21326     21328     21327     21329
     21331     21330     21332     21334     21333     21335     21337     21336     21338
     21340     21339     21341     21343     21342     21344     21346     21345     21347
     21349     21348     21350     21352     21351     21353     21355     21354     21356
     21358     21357     21359     21361     21360     21362     21364     21363     21365
     21367     21366     21368     21370     21369     21371     21373     21372     21374
     21376     21375     21377     21379     21378     21380     21382     21381     21383
     21385     21384     21386     21388     21387     21389     21391     21390     21392
     21394     21393     21395     21397     21396     21398     21400     21399     21401
     21403     21402     21404     21406     21405     21407     21409     21408     21410
     21412     21411     21413     21415     21414     21416     21418     21417     21419
     21421     21420     21422     21424     21423     21425     21427     21426     21428
     21430     21429     21431     21433     21432     21434     21436     21435     21437
     21439     21438     21440     21442     21441     21443     21445     21444     21446
     21448     21447     21449     21451     21450     21452     21454     21453     21455
     21457     21456     21458     21460     21459     21461     21463     21462     21464
     21466     21465     21467     21469     21468     21470     21472     21471     21473
     21475     21474     21476     21478     21477     21479     21481     21480     21482
     21484     21483     21485     21487     21486     21488     21490     21489     21491
     21493     21492     21494     21496     21495     21497     21499     21498     21500
     21502     21501     21503     21505     21504     21506     21508     21507     21509
     21511     21510     21512     21514     21513     21515     21517     21516     21518
     21520     21519     21521     21523     21522     21524     21526     21525     21527
     21529     21528     21530     21532     21531     21533     21535     21534     21536
     21538     21537     21539     21541     21540     21542     21544     21543     21545
     21547     21546     21548     21550     21549     21551     21553     21552     21554
     21556     21555     21557     21559     21558     21560     21562     21561     21563
     21565     21564     21566     21568     21567     21569     21571     21570     21572
     21574     21573     21575     21577     21576     21578     21580     21579     21581
     21583     21582     21584     21586     21585     21587     21589     21588     21590
     21592     21591     21593     21595     21594     21596     21598     21597     21599
     21601     21600     21602     21604     21603     21605     21607     21606     21608
     21610     21609     21611     21613     21612     21614     21616     21615     21617
     21619     21618     21620     21622     21621     21623     21625     21624     21626
     21628     21627     21629     21631     21630     21632     21634     21633     21635
     21637     21636     21638     21640     21639     21641     21643     21642     21644
     21646     21645     21647     21649     21648     21650     21652     21651     21653
     21655     21654     21656     21658     21657     21659     21661     21660     21662
     21664     21663     21665     21667     21666     21668     21670     21669     21671
     21673     21672     21674     21676     21675     21677     21679     21678     21680
     21682     21681     21683     21685     21684     21686     21688     21687     21689
     21691     21690     21692     21694     21693     21695     21697     21696     21698
     21700     21699     21701     21703     21702     21704     21706     21705     21707
     21709     21708     21710     21712     21711     21713     21715     21714     21716
     21718     21717     21719     21721     21720     21722     21724     21723     21725
     21727     21726     21728     21730     21729     21731     21733     21732     21734
     21736     21735     21737     21739     21738     21740     21742     21741     21743
     21745     21744     21746     21748     21747     21749     21751     21750     21752
     21754     21753     21755     21757     21756     21758     21760     21759     21761
     21763     21762     21764     21766     21765     21767     21769     21768     21770
     21772     21771     21773     21775     21774     21776     21778     21777     21779
     21781     21780     21782     21784     21783     21785     21787     21786     21788
     21790     21789     21791     21793     21792     21794     21796     21795     21797
     21799     21798     21800     21802     21801     21803     21805     21804     21806
     21808     21807     21809     21811     21810     21812     21814     21813     21815
     21817     21816     21818     21820     21819     21821     21823     21822     21824
     21826     21825     21827     21829     21828     21830     21832     21831     21833
     21835     21834     21836     21838     21837     21839     21841     21840     21842
     21844     21843     21845     21847     21846     21848     21850     21849     21851
     21853     21852     21854     21856     21855     21857     21859     21858     21860
     21862     21861     21863     21865     21864     21866     21868     21867     21869
     21871     21870     21872     21874     21873     21875     21877     21876     21878
     21880     21879     21881     21883     21882     21884     21886     21885     21887
     21889     21888     21890     21892     21891     21893     21895     21894     21896
     21898     21897     21899     21901     21900     21902     21904     21903     21905
     21907     21906     21908     21910     21909     21911     21913     21912     21914
     21916     21915     21917     21919     21918     21920     21922     21921     21923
     21925     21924     21926     21928     21927     21929     21931     21930     21932
     21934     21933     21935     21937     21936     21938     21940     21939     21941
     21943     21942     21944     21946     21945     21947     21949     21948     21950
     21952     21951     21953     21955     21954     21956     21958     21957     21959
     21961     21960     21962     21964     21963     21965     21967     21966     21968
     21970     21969     21971     21973     21972     21974     21976     21975     21977
     21979     21978     21980     21982     21981     21983     21985     21984     21986
     21988     21987     21989     21991     21990     21992     21994     21993     21995
     21997     21996     21998     22000     21999     22001     22003     22002     22004
     22006     22005     22007     22009     22008     22010     22012     22011     22013
     22015     22014     22016     22018     22017     22019     22021     22020     22022
     22024     22023     22025     22027     22026     22028     22030     22029     22031
     22033     22032     22034     22036     22035     22037     22039     22038     22040
     22042     22041     22043     22045     22044     22046     22048     22047     22049
     22051     22050     22052     22054     22053     22055     22057     22056     22058
     22060     22059     22061     22063     22062     22064     22066     22065     22067
     22069     22068     22070     22072     22071     22073     22075     22074     22076
     22078     22077     22079     22081     22080     22082     22084     22083     22085
     22087     22086     22088     22090     22089     22091     22093     22092     22094
     22096     22095     22097     22099     22098     22100     22102     22101     22103
     22105     22104     22106     22108     22107     22109     22111     22110     22112
     22114     22113     22115     22117     22116     22118     22120     22119     22121
     22123     22122     22124     22126     22125     22127     22129     22128     22130
     22132     22131     22133     22135     22134     22136     22138     22137     22139
     22141     22140     22142     22144     22143     22145     22147     22146     22148
     22150     22149     22151     22153     22152     22154     22156     22155     22157
     22159     22158     22160     22162     22161     22163     22165     22164     22166
     22168     22167     22169     22171     22170     22172     22174     22173     22175
     22177     22176     22178     22180     22179     22181     22183     22182     22184
     22186     22185     22187     22189     22188     22190     22192     22191     22193
     22195     22194     22196     22198     22197     22199     22201     22200     22202
     22204     22203     22205     22207     22206     22208     22210     22209     22211
     22213     22212     22214     22216     22215     22217     22219     22218     22220
     22222     22221     22223     22225     22224     22226     22228     22227     22229
     22231     22230     22232     22234     22233     22235     22237     22236     22238
     22240     22239     22241     22243     22242     22244     22246     22245     22247
     22249     22248     22250     22252     22251     22253     22255     22254     22256
     22258     22257     22259     22261     22260     22262     22264     22263     22265
     22267     22266     22268     22270     22269     22271     22273     22272     22274
     22276     22275     22277     22279     22278     22280     22282     22281     22283
     22285     22284     22286     22288     22287     22289     22291     22290     22292
     22294     22293     22295     22297     22296     22298     22300     22299     22301
     22303     22302     22304     22306     22305     22307     22309     22308     22310
     22312     22311     22313     22315     22314     22316     22318     22317     22319
     22321     22320     22322     22324     22323     22325     22327     22326     22328
     22330     22329     22331     22333     22332     22334     22336     22335     22337
     22339     22338     22340     22342     22341     22343     22345     22344     22346
     22348     22347     22349     22351     22350     22352     22354     22353     22355
     22357     22356     22358     22360     22359     22361     22363     22362     22364
     22366     22365     22367     22369     22368     22370     22372     22371     22373
     22375     22374     22376     22378     22377     22379     22381     22380     22382
     22384     22383     22385     22387     22386     22388     22390     22389     22391
     22393     22392     22394     22396     22395     22397     22399     22398     22400
     22402     22401     22403     22405     22404     22406     22408     22407     22409
     22411     22410     22412     22414     22413     22415     22417     22416     22418
     22420     22419     22421     22423     22422     22424     22426     22425     22427
     22429     22428     22430     22432     22431     22433     22435     22434     22436
     22438     22437     22439     22441     22440     22442     22444     22443     22445
     22447     22446     22448     22450     22449     22451     22453     22452     22454
     22456     22455     22457     22459     22458     22460     22462     22461     22463
     22465     22464     22466     22468     22467     22469     22471     22470     22472
     22474     22473     22475     22477     22476     22478     22480     22479     22481
     22483     22482     22484     22486     22485     22487     22489     22488     22490
     22492     22491     22493     22495     22494     22496     22498     22497     22499
     22501     22500     22502     22504     22503     22505     22507     22506     22508
     22510     22509     22511     22513     22512     22514     22516     22515     22517
     22519     22518     22520     22522     22521     22523     22525     22524     22526
     22528     22527     22529     22531     22530     22532     22534     22533     22535
     22537     22536     22538     22540     22539     22541     22543     22542     22544
     22546     22545     22547     22549     22548     22550     22552     22551     22553
     22555     22554     22556     22558     22557     22559     22561     22560     22562
     22564     22563     22565     22567     22566     22568     22570     22569     22571
     22573     22572     22574     22576     22575     22577     22579     22578     22580
     22582     22581     22583     22585     22584     22586     22588     22587     22589
     22591     22590     22592     22594     22593     22595     22597     22596     22598
     22600     22599     22601     22603     22602     22604     22606     22605     22607
     22609     22608     22610     22612     22611     22613     22615     22614     22616
     22618     22617     22619     22621     22620     22622     22624     22623     22625
     22627     22626     22628     22630     22629     22631     22633     22632     22634
     22636     22635     22637     22639     22638     22640     22642     22641     22643
     22645     22644     22646     22648     22647     22649     22651     22650     22652
     22654     22653     22655     22657     22656     22658     22660     22659     22661
     22663     22662     22664     22666     22665     22667     22669     22668     22670
     22672     22671     22673     22675     22674     22676     22678     22677     22679
     22681     22680     22682     22684     22683     22685     22687     22686     22688
     22690     22689     22691     22693     22692     22694     22696     22695     22697
     22699     22698     22700     22702     22701     22703     22705     22704     22706
     22708     22707     22709     22711     22710     22712     22714     22713     22715
     22717     22716     22718     22720     22719     22721     22723     22722     22724
     22726     22725     22727     22729     22728     22730     22732     22731     22733
     22735     22734     22736     22738     22737     22739     22741     22740     22742
     22744     22743     22745     22747     22746     22748     22750     22749     22751
     22753     22752     22754     22756     22755     22757     22759     22758     22760
     22762     22761     22763     22765     22764     22766     22768     22767     22769
     22771     22770     22772     22774     22773     22775     22777     22776     22778
     22780     22779     22781     22783     22782     22784     22786     22785     22787
     22789     22788     22790     22792     22791     22793     22795     22794     22796
     22798     22797     22799     22801     22800     22802     22804     22803     22805
     22807     22806     22808     22810     22809     22811     22813     22812     22814
     22816     22815     22817     22819     22818     22820     22822     22821     22823
     22825     22824     22826     22828     22827     22829     22831     22830     22832
     22834     22833     22835     22837     22836     22838     22840     22839     22841
     22843     22842     22844     22846     22845     22847     22849     22848     22850
     22852     22851     22853     22855     22854     22856     22858     22857     22859
     22861     22860     22862     22864     22863     22865     22867     22866     22868
     22870     22869     22871     22873     22872     22874     22876     22875     22877
     22879     22878     22880     22882     22881     22883     22885     22884     22886
     22888     22887     22889     22891     22890     22892     22894     22893     22895
     22897     22896     22898     22900     22899     22901     22903     22902     22904
     22906     22905     22907     22909     22908     22910     22912     22911     22913
     22915     22914     22916     22918     22917     22919     22921     22920     22922
     22924     22923     22925     22927     22926     22928     22930     22929     22931
     22933     22932     22934     22936     22935     22937     22939     22938     22940
     22942     22941     22943     22945     22944     22946     22948     22947     22949
     22951     22950     22952     22954     22953     22955     22957     22956     22958
     22960     22959     22961     22963     22962     22964     22966     22965     22967
     22969     22968     22970     22972     22971     22973     22975     22974     22976
     22978     22977     22979     22981     22980     22982     22984     22983     22985
     22987     22986     22988     22990     22989     22991     22993     22992     22994
     22996     22995     22997     22999     22998     23000     23002     23001     23003
     23005     23004     23006     23008     23007     23009     23011     23010     23012
     23014     23013     23015     23017     23016     23018     23020     23019     23021
     23023     23022     23024     23026     23025     23027     23029     23028     23030
     23032     23031     23033     23035     23034     23036     23038     23037     23039
     23041     23040     23042     23044     23043     23045     23047     23046     23048
     23050     23049     23051     23053     23052     23054     23056     23055     23057
     23059     23058     23060     23062     23061     23063     23065     23064     23066
     23068     23067     23069     23071     23070     23072     23074     23073     23075
     23077     23076     23078     23080     23079     23081     23083     23082     23084
     23086     23085     23087     23089     23088     23090     23092     23091     23093
     23095     23094     23096     23098     23097     23099     23101     23100     23102
     23104     23103     23105     23107     23106     23108     23110     23109     23111
     23113     23112     23114     23116     23115     23117     23119     23118     23120
     23122     23121     23123     23125     23124     23126     23128     23127     23129
     23131     23130     23132     23134     23133     23135     23137     23136     23138
     23140     23139     23141     23143     23142     23144     23146     23145     23147
     23149     23148     23150     23152     23151     23153     23155     23154     23156
     23158     23157     23159     23161     23160     23162     23164     23163     23165
     23167     23166     23168     23170     23169     23171     23173     23172     23174
     23176     23175     23177     23179     23178     23180     23182     23181     23183
     23185     23184     23186     23188     23187     23189     23191     23190     23192
     23194     23193     23195     23197     23196     23198     23200     23199     23201
     23203     23202     23204     23206     23205     23207     23209     23208     23210
     23212     23211     23213     23215     23214     23216     23218     23217     23219
     23221     23220     23222     23224     23223     23225     23227     23226     23228
     23230     23229     23231     23233     23232     23234     23236     23235     23237
     23239     23238     23240     23242     23241     23243     23245     23244     23246
     23248     23247     23249     23251     23250     23252     23254     23253     23255
     23257     23256     23258     23260     23259     23261     23263     23262     23264
     23266     23265     23267     23269     23268     23270     23272     23271     23273
     23275     23274     23276     23278     23277     23279     23281     23280     23282
     23284     23283     23285     23287     23286     23288     23290     23289     23291
     23293     23292     23294     23296     23295     23297     23299     23298     23300
     23302     23301     23303     23305     23304     23306     23308     23307     23309
     23311     23310     23312     23314     23313     23315     23317     23316     23318
     23320     23319     23321     23323     23322     23324     23326     23325     23327
     23329     23328     23330     23332     23331     23333     23335     23334     23336
     23338     23337     23339     23341     23340     23342     23344     23343     23345
     23347     23346     23348     23350     23349     23351     23353     23352     23354
     23356     23355     23357     23359     23358     23360     23362     23361     23363
     23365     23364     23366     23368     23367     23369     23371     23370     23372
     23374     23373     23375     23377     23376     23378     23380     23379     23381
     23383     23382     23384     23386     23385     23387     23389     23388     23390
     23392     23391     23393     23395     23394     23396     23398     23397     23399
     23401     23400     23402     23404     23403     23405     23407     23406     23408
     23410     23409     23411     23413     23412     23414     23416     23415     23417
     23419     23418     23420     23422     23421     23423     23425     23424     23426
     23428     23427     23429     23431     23430     23432     23434     23433     23435
     23437     23436     23438     23440     23439     23441     23443     23442     23444
     23446     23445     23447     23449     23448     23450     23452     23451     23453
     23455     23454     23456     23458     23457     23459     23461     23460     23462
     23464     23463     23465     23467     23466     23468     23470     23469     23471
     23473     23472     23474     23476     23475     23477     23479     23478     23480
     23482     23481     23483     23485     23484     23486     23488     23487     23489
     23491     23490     23492     23494     23493     23495     23497     23496     23498
     23500     23499     23501     23503     23502     23504     23506     23505     23507
     23509     23508     23510     23512     23511     23513     23515     23514     23516
     23518     23517     23519     23521     23520     23522     23524     23523     23525
     23527     23526     23528     23530     23529     23531     23533     23532     23534
     23536     23535     23537     23539     23538     23540     23542     23541     23543
     23545     23544     23546     23548     23547     23549     23551     23550     23552
     23554     23553     23555     23557     23556     23558     23560     23559     23561
     23563     23562     23564     23566     23565     23567     23569     23568     23570
     23572     23571     23573     23575     23574     23576     23578     23577     23579
     23581     23580     23582     23584     23583     23585     23587     23586     23588
     23590     23589     23591     23593     23592     23594     23596     23595     23597
     23599     23598     23600     23602     23601     23603     23605     23604     23606
     23608     23607     23609     23611     23610     23612     23614     23613     23615
     23617     23616     23618     23620     23619     23621     23623     23622     23624
     23626     23625     23627     23629     23628     23630     23632     23631     23633
     23635     23634     23636     23638     23637     23639     23641     23640     23642
     23644     23643     23645     23647     23646     23648     23650     23649     23651
     23653     23652     23654     23656     23655     23657     23659     23658     23660
     23662     23661     23663     23665     23664     23666     23668     23667     23669
     23671     23670     23672     23674     23673     23675     23677     23676     23678
     23680     23679     23681     23683     23682     23684     23686     23685     23687
     23689     23688     23690     23692     23691     23693     23695     23694     23696
     23698     23697     23699     23701     23700     23702     23704     23703     23705
     23707     23706     23708     23710     23709     23711     23713     23712     23714
     23716     23715     23717     23719     23718     23720     23722     23721     23723
     23725     23724     23726     23728     23727     23729     23731     23730     23732
     23734     23733     23735     23737     23736     23738     23740     23739     23741
     23743     23742     23744     23746     23745     23747     23749     23748     23750
     23752     23751     23753     23755     23754     23756     23758     23757     23759
     23761     23760     23762     23764     23763     23765     23767     23766     23768
     23770     23769     23771     23773     23772     23774     23776     23775     23777
     23779     23778     23780     23782     23781     23783     23785     23784     23786
     23788     23787     23789     23791     23790     23792     23794     23793     23795
     23797     23796     23798     23800     23799     23801     23803     23802     23804
     23806     23805     23807     23809     23808     23810     23812     23811     23813
     23815     23814     23816     23818     23817     23819     23821     23820     23822
     23824     23823     23825     23827     23826     23828     23830     23829     23831
     23833     23832     23834     23836     23835     23837     23839     23838     23840
     23842     23841     23843     23845     23844     23846     23848     23847     23849
     23851     23850     23852     23854     23853     23855     23857     23856     23858
     23860     23859     23861     23863     23862     23864     23866     23865     23867
     23869     23868     23870     23872     23871     23873     23875     23874     23876
     23878     23877     23879     23881     23880     23882     23884     23883     23885
     23887     23886     23888     23890     23889     23891     23893     23892     23894
     23896     23895     23897     23899     23898     23900     23902     23901     23903
     23905     23904     23906     23908     23907     23909     23911     23910     23912
     23914     23913     23915     23917     23916     23918     23920     23919     23921
     23923     23922     23924     23926     23925     23927     23929     23928     23930
     23932     23931     23933     23935     23934     23936     23938     23937     23939
     23941     23940     23942     23944     23943     23945     23947     23946     23948
     23950     23949     23951     23953     23952     23954     23956     23955     23957
     23959     23958     23960     23962     23961     23963     23965     23964     23966
     23968     23967     23969     23971     23970     23972     23974     23973     23975
     23977     23976     23978     23980     23979     23981     23983     23982     23984
     23986     23985     23987     23989     23988     23990     23992     23991     23993
     23995     23994     23996     23998     23997     23999     24001     24000     24002
     24004     24003     24005     24007     24006     24008     24010     24009     24011
     24013     24012     24014     24016     24015     24017     24019     24018     24020
     24022     24021     24023     24025     24024     24026     24028     24027     24029
     24031     24030     24032     24034     24033     24035     24037     24036     24038
     24040     24039     24041     24043     24042     24044     24046     24045     24047
     24049     24048     24050     24052     24051     24053     24055     24054     24056
     24058     24057     24059     24061     24060     24062     24064     24063     24065
     24067     24066     24068     24070     24069     24071     24073     24072     24074
     24076     24075     24077     24079     24078     24080     24082     24081     24083
     24085     24084     24086     24088     24087     24089     24091     24090     24092
     24094     24093     24095     24097     24096     24098     24100     24099     24101
     24103     24102     24104     24106     24105     24107     24109     24108     24110
     24112     24111     24113     24115     24114     24116     24118     24117     24119
     24121     24120     24122     24124     24123     24125     24127     24126     24128
     24130     24129     24131     24133     24132     24134     24136     24135     24137
     24139     24138     24140     24142     24141     24143     24145     24144     24146
     24148     24147     24149     24151     24150     24152     24154     24153     24155
     24157     24156     24158     24160     24159     24161     24163     24162     24164
     24166     24165     24167     24169     24168     24170     24172     24171     24173
     24175     24174     24176     24178     24177     24179     24181     24180     24182
     24184     24183     24185     24187     24186     24188     24190     24189     24191
     24193     24192     24194     24196     24195     24197     24199     24198     24200
     24202     24201     24203     24205     24204     24206     24208     24207     24209
     24211     24210     24212     24214     24213     24215     24217     24216     24218
     24220     24219     24221     24223     24222     24224     24226     24225     24227
     24229     24228     24230     24232     24231     24233     24235     24234     24236
     24238     24237     24239     24241     24240     24242     24244     24243     24245
     24247     24246     24248     24250     24249     24251     24253     24252     24254
     24256     24255     24257     24259     24258     24260     24262     24261     24263
     24265     24264     24266     24268     24267     24269     24271     24270     24272
     24274     24273     24275     24277     24276     24278     24280     24279     24281
     24283     24282     24284     24286     24285     24287     24289     24288     24290
     24292     24291     24293     24295     24294     24296     24298     24297     24299
     24301     24300     24302     24304     24303     24305     24307     24306     24308
     24310     24309     24311     24313     24312     24314     24316     24315     24317
     24319     24318     24320     24322     24321     24323     24325     24324     24326
     24328     24327     24329     24331     24330     24332     24334     24333     24335
     24337     24336     24338     24340     24339     24341     24343     24342     24344
     24346     24345     24347     24349     24348     24350     24352     24351     24353
     24355     24354     24356     24358     24357     24359     24361     24360     24362
     24364     24363     24365     24367     24366     24368     24370     24369     24371
     24373     24372     24374     24376     24375     24377     24379     24378     24380
     24382     24381     24383     24385     24384     24386     24388     24387     24389
     24391     24390     24392     24394     24393     24395     24397     24396     24398
     24400     24399     24401     24403     24402     24404     24406     24405     24407
     24409     24408     24410     24412     24411     24413     24415     24414     24416
     24418     24417     24419     24421     24420     24422     24424     24423     24425
     24427     24426     24428     24430     24429     24431     24433     24432     24434
     24436     24435     24437     24439     24438     24440     24442     24441     24443
     24445     24444     24446     24448     24447     24449     24451     24450     24452
     24454     24453     24455     24457     24456     24458     24460     24459     24461
     24463     24462     24464     24466     24465     24467     24469     24468     24470
     24472     24471     24473     24475     24474     24476     24478     24477     24479
     24481     24480     24482     24484     24483     24485     24487     24486     24488
     24490     24489     24491     24493     24492     24494     24496     24495     24497
     24499     24498     24500     24502     24501     24503     24505     24504     24506
     24508     24507     24509     24511     24510     24512     24514     24513     24515
     24517     24516     24518     24520     24519     24521     24523     24522     24524
     24526     24525     24527     24529     24528     24530     24532     24531     24533
     24535     24534     24536     24538     24537     24539     24541     24540     24542
     24544     24543     24545     24547     24546     24548     24550     24549     24551
     24553     24552     24554     24556     24555     24557     24559     24558     24560
     24562     24561     24563     24565     24564     24566     24568     24567     24569
     24571     24570     24572     24574     24573     24575     24577     24576     24578
     24580     24579     24581     24583     24582     24584     24586     24585     24587
     24589     24588     24590     24592     24591     24593     24595     24594     24596
     24598     24597     24599     24601     24600     24602     24604     24603     24605
     24607     24606     24608     24610     24609     24611     24613     24612     24614
     24616     24615     24617     24619     24618     24620     24622     24621     24623
     24625     24624     24626     24628     24627     24629     24631     24630     24632
     24634     24633     24635     24637     24636     24638     24640     24639     24641
     24643     24642     24644     24646     24645     24647     24649     24648     24650
     24652     24651     24653     24655     24654     24656     24658     24657     24659
     24661     24660     24662     24664     24663     24665     24667     24666     24668
     24670     24669     24671     24673     24672     24674     24676     24675     24677
     24679     24678     24680     24682     24681     24683     24685     24684     24686
     24688     24687     24689     24691     24690     24692     24694     24693     24695
     24697     24696     24698     24700     24699     24701     24703     24702     24704
     24706     24705     24707     24709     24708     24710     24712     24711     24713
     24715     24714     24716     24718     24717     24719     24721     24720     24722
     24724     24723     24725     24727     24726     24728     24730     24729     24731
     24733     24732     24734     24736     24735     24737     24739     24738     24740
     24742     24741     24743     24745     24744     24746     24748     24747     24749
     24751     24750     24752     24754     24753     24755     24757     24756     24758
     24760     24759     24761     24763     24762     24764     24766     24765     24767
     24769     24768     24770     24772     24771     24773     24775     24774     24776
     24778     24777     24779     24781     24780     24782     24784     24783     24785
     24787     24786     24788     24790     24789     24791     24793     24792     24794
     24796     24795     24797     24799     24798     24800     24802     24801     24803
     24805     24804     24806     24808     24807     24809     24811     24810     24812
     24814     24813     24815     24817     24816     24818     24820     24819     24821
     24823     24822     24824     24826     24825     24827     24829     24828     24830
     24832     24831     24833     24835     24834     24836     24838     24837     24839
     24841     24840     24842     24844     24843     24845     24847     24846     24848
     24850     24849     24851     24853     24852     24854     24856     24855     24857
     24859     24858     24860     24862     24861     24863     24865     24864     24866
     24868     24867     24869     24871     24870     24872     24874     24873     24875
     24877     24876     24878     24880     24879     24881     24883     24882     24884
     24886     24885     24887     24889     24888     24890     24892     24891     24893
     24895     24894     24896     24898     24897     24899     24901     24900     24902
     24904     24903     24905     24907     24906     24908     24910     24909     24911
     24913     24912     24914     24916     24915     24917     24919     24918     24920
     24922     24921     24923     24925     24924     24926     24928     24927     24929
     24931     24930     24932     24934     24933     24935     24937     24936     24938
     24940     24939     24941     24943     24942     24944     24946     24945     24947
     24949     24948     24950     24952     24951     24953     24955     24954     24956
     24958     24957     24959     24961     24960     24962     24964     24963     24965
     24967     24966     24968     24970     24969     24971     24973     24972     24974
     24976     24975     24977     24979     24978     24980     24982     24981     24983
     24985     24984     24986     24988     24987     24989     24991     24990     24992
     24994     24993     24995     24997     24996     24998     25000     24999     25001
     25003     25002     25004     25006     25005     25007     25009     25008     25010
     25012     25011     25013     25015     25014     25016     25018     25017     25019
     25021     25020     25022     25024     25023     25025     25027     25026     25028
     25030     25029     25031     25033     25032     25034     25036     25035     25037
     25039     25038     25040     25042     25041     25043     25045     25044     25046
     25048     25047     25049     25051     25050     25052     25054     25053     25055
     25057     25056     25058     25060     25059     25061     25063     25062     25064
     25066     25065     25067     25069     25068     25070     25072     25071     25073
     25075     25074     25076     25078     25077     25079     25081     25080     25082
     25084     25083     25085     25087     25086     25088     25090     25089     25091
     25093     25092     25094     25096     25095     25097     25099     25098     25100
     25102     25101     25103     25105     25104     25106     25108     25107     25109
     25111     25110     25112     25114     25113     25115     25117     25116     25118
     25120     25119     25121     25123     25122     25124     25126     25125     25127
     25129     25128     25130     25132     25131     25133     25135     25134     25136
     25138     25137     25139     25141     25140     25142     25144     25143     25145
     25147     25146     25148     25150     25149     25151     25153     25152     25154
     25156     25155     25157     25159     25158     25160     25162     25161     25163
     25165     25164     25166     25168     25167     25169     25171     25170     25172
     25174     25173     25175     25177     25176     25178     25180     25179     25181
     25183     25182     25184     25186     25185     25187     25189     25188     25190
     25192     25191     25193     25195     25194     25196     25198     25197     25199
     25201     25200     25202     25204     25203     25205     25207     25206     25208
     25210     25209     25211     25213     25212     25214     25216     25215     25217
     25219     25218     25220     25222     25221     25223     25225     25224     25226
     25228     25227     25229     25231     25230     25232     25234     25233     25235
     25237     25236     25238     25240     25239     25241     25243     25242     25244
     25246     25245     25247     25249     25248     25250     25252     25251     25253
     25255     25254     25256     25258     25257     25259     25261     25260     25262
     25264     25263     25265     25267     25266     25268     25270     25269     25271
     25273     25272     25274     25276     25275     25277     25279     25278     25280
     25282     25281     25283     25285     25284     25286     25288     25287     25289
     25291     25290     25292     25294     25293     25295     25297     25296     25298
     25300     25299     25301     25303     25302     25304     25306     25305     25307
     25309     25308     25310     25312     25311     25313     25315     25314     25316
     25318     25317     25319     25321     25320     25322     25324     25323     25325
     25327     25326     25328     25330     25329     25331     25333     25332     25334
     25336     25335     25337     25339     25338     25340     25342     25341     25343
     25345     25344     25346     25348     25347     25349     25351     25350     25352
     25354     25353     25355     25357     25356     25358     25360     25359     25361
     25363     25362     25364     25366     25365     25367     25369     25368     25370
     25372     25371     25373     25375     25374     25376     25378     25377     25379
     25381     25380     25382     25384     25383     25385     25387     25386     25388
     25390     25389     25391     25393     25392     25394     25396     25395     25397
     25399     25398     25400     25402     25401     25403     25405     25404     25406
     25408     25407     25409     25411     25410     25412     25414     25413     25415
     25417     25416     25418     25420     25419     25421     25423     25422     25424
     25426     25425     25427     25429     25428     25430     25432     25431     25433
     25435     25434     25436     25438     25437     25439     25441     25440     25442
     25444     25443     25445     25447     25446     25448     25450     25449     25451
     25453     25452     25454     25456     25455     25457     25459     25458     25460
     25462     25461     25463     25465     25464     25466     25468     25467     25469
     25471     25470     25472     25474     25473     25475     25477     25476     25478
     25480     25479     25481     25483     25482     25484     25486     25485     25487
     25489     25488     25490     25492     25491     25493     25495     25494     25496
     25498     25497     25499     25501     25500     25502     25504     25503     25505
     25507     25506     25508     25510     25509     25511     25513     25512     25514
     25516     25515     25517     25519     25518     25520     25522     25521     25523
     25525     25524     25526     25528     25527     25529     25531     25530     25532
     25534     25533     25535     25537     25536     25538     25540     25539     25541
     25543     25542     25544     25546     25545     25547     25549     25548     25550
     25552     25551     25553     25555     25554     25556     25558     25557     25559
     25561     25560     25562     25564     25563     25565     25567     25566     25568
     25570     25569     25571     25573     25572     25574     25576     25575     25577
     25579     25578     25580     25582     25581     25583     25585     25584     25586
     25588     25587     25589     25591     25590     25592     25594     25593     25595
     25597     25596     25598     25600     25599     25601     25603     25602     25604
     25606     25605     25607     25609     25608     25610     25612     25611     25613
     25615     25614     25616     25618     25617     25619     25621     25620     25622
     25624     25623     25625     25627     25626     25628     25630     25629     25631
     25633     25632     25634     25636     25635     25637     25639     25638     25640
     25642     25641     25643     25645     25644     25646     25648     25647     25649
     25651     25650     25652     25654     25653     25655     25657     25656     25658
     25660     25659     25661     25663     25662     25664     25666     25665     25667
     25669     25668     25670     25672     25671     25673     25675     25674     25676
     25678     25677     25679     25681     25680     25682     25684     25683     25685
     25687     25686     25688     25690     25689     25691     25693     25692     25694
     25696     25695     25697     25699     25698     25700     25702     25701     25703
     25705     25704     25706     25708     25707     25709     25711     25710     25712
     25714     25713     25715     25717     25716     25718     25720     25719     25721
     25723     25722     25724     25726     25725     25727     25729     25728     25730
     25732     25731     25733     25735     25734     25736     25738     25737     25739
     25741     25740     25742     25744     25743     25745     25747     25746     25748
     25750     25749     25751     25753     25752     25754     25756     25755     25757
     25759     25758     25760     25762     25761     25763     25765     25764     25766
     25768     25767     25769     25771     25770     25772     25774     25773     25775
     25777     25776     25778     25780     25779     25781     25783     25782     25784
     25786     25785     25787     25789     25788     25790     25792     25791     25793
     25795     25794     25796     25798     25797     25799     25801     25800     25802
     25804     25803     25805     25807     25806     25808     25810     25809     25811
     25813     25812     25814     25816     25815     25817     25819     25818     25820
     25822     25821     25823     25825     25824     25826     25828     25827     25829
     25831     25830     25832     25834     25833     25835     25837     25836     25838
     25840     25839     25841     25843     25842     25844     25846     25845     25847
     25849     25848     25850     25852     25851     25853     25855     25854     25856
     25858     25857     25859     25861     25860     25862     25864     25863     25865
     25867     25866     25868     25870     25869     25871     25873     25872     25874
     25876     25875     25877     25879     25878     25880     25882     25881     25883
     25885     25884     25886     25888     25887     25889     25891     25890     25892
     25894     25893     25895     25897     25896     25898     25900     25899     25901
     25903     25902     25904     25906     25905     25907     25909     25908     25910
     25912     25911     25913     25915     25914     25916     25918     25917     25919
     25921     25920     25922     25924     25923     25925     25927     25926     25928
     25930     25929     25931     25933     25932     25934     25936     25935     25937
     25939     25938     25940     25942     25941     25943     25945     25944     25946
     25948     25947     25949     25951     25950     25952     25954     25953     25955
     25957     25956     25958     25960     25959     25961     25963     25962     25964
     25966     25965     25967     25969     25968     25970     25972     25971     25973
     25975     25974     25976     25978     25977     25979     25981     25980     25982
     25984     25983     25985     25987     25986     25988     25990     25989     25991
     25993     25992     25994     25996     25995     25997     25999     25998     26000
     26002     26001     26003     26005     26004     26006     26008     26007     26009
     26011     26010     26012     26014     26013     26015     26017     26016     26018
     26020     26019     26021     26023     26022     26024     26026     26025     26027
     26029     26028     26030     26032     26031     26033     26035     26034     26036
     26038     26037     26039     26041     26040     26042     26044     26043     26045
     26047     26046     26048     26050     26049     26051     26053     26052     26054
     26056     26055     26057     26059     26058     26060     26062     26061     26063
     26065     26064     26066     26068     26067     26069     26071     26070     26072
     26074     26073     26075     26077     26076     26078     26080     26079     26081
     26083     26082     26084     26086     26085     26087     26089     26088     26090
     26092     26091     26093     26095     26094     26096     26098     26097     26099
     26101     26100     26102     26104     26103     26105     26107     26106     26108
     26110     26109     26111     26113     26112     26114     26116     26115     26117
     26119     26118     26120     26122     26121     26123     26125     26124     26126
     26128     26127     26129     26131     26130     26132     26134     26133     26135
     26137     26136     26138     26140     26139     26141     26143     26142     26144
     26146     26145     26147     26149     26148     26150     26152     26151     26153
     26155     26154     26156     26158     26157     26159     26161     26160     26162
     26164     26163     26165     26167     26166     26168     26170     26169     26171
     26173     26172     26174     26176     26175     26177     26179     26178     26180
     26182     26181     26183     26185     26184     26186     26188     26187     26189
     26191     26190     26192     26194     26193     26195     26197     26196     26198
     26200     26199     26201     26203     26202     26204     26206     26205     26207
     26209     26208     26210     26212     26211     26213     26215     26214     26216
     26218     26217     26219     26221     26220     26222     26224     26223     26225
     26227     26226     26228     26230     26229     26231     26233     26232     26234
     26236     26235     26237     26239     26238     26240     26242     26241     26243
     26245     26244     26246     26248     26247     26249     26251     26250     26252
     26254     26253     26255     26257     26256     26258     26260     26259     26261
     26263     26262     26264     26266     26265     26267     26269     26268     26270
     26272     26271     26273     26275     26274     26276     26278     26277     26279
     26281     26280     26282     26284     26283     26285     26287     26286     26288
     26290     26289     26291     26293     26292     26294     26296     26295     26297
     26299     26298     26300     26302     26301     26303     26305     26304     26306
     26308     26307     26309     26311     26310     26312     26314     26313     26315
     26317     26316     26318     26320     26319     26321     26323     26322     26324
     26326     26325     26327     26329     26328     26330     26332     26331     26333
     26335     26334     26336     26338     26337     26339     26341     26340     26342
     26344     26343     26345     26347     26346     26348     26350     26349     26351
     26353     26352     26354     26356     26355     26357     26359     26358     26360
     26362     26361     26363     26365     26364     26366     26368     26367     26369
     26371     26370     26372     26374     26373     26375     26377     26376     26378
     26380     26379     26381     26383     26382     26384     26386     26385     26387
     26389     26388     26390     26392     26391     26393     26395     26394     26396
     26398     26397     26399     26401     26400     26402     26404     26403     26405
     26407     26406     26408     26410     26409     26411     26413     26412     26414
     26416     26415     26417     26419     26418     26420     26422     26421     26423
     26425     26424     26426     26428     26427     26429     26431     26430     26432
     26434     26433     26435     26437     26436     26438     26440     26439     26441
     26443     26442     26444     26446     26445     26447     26449     26448     26450
     26452     26451     26453     26455     26454     26456     26458     26457     26459
     26461     26460     26462     26464     26463     26465     26467     26466     26468
     26470     26469     26471     26473     26472     26474     26476     26475     26477
     26479     26478     26480     26482     26481     26483     26485     26484     26486
     26488     26487     26489     26491     26490     26492     26494     26493     26495
     26497     26496     26498     26500     26499     26501     26503     26502     26504
     26506     26505     26507     26509     26508     26510     26512     26511     26513
     26515     26514     26516     26518     26517     26519     26521     26520     26522
     26524     26523     26525     26527     26526     26528     26530     26529     26531
     26533     26532     26534     26536     26535     26537     26539     26538     26540
     26542     26541     26543     26545     26544     26546     26548     26547     26549
     26551     26550     26552     26554     26553     26555     26557     26556     26558
     26560     26559     26561     26563     26562     26564     26566     26565     26567
     26569     26568     26570     26572     26571     26573     26575     26574     26576
     26578     26577     26579     26581     26580     26582     26584     26583     26585
     26587     26586     26588     26590     26589     26591     26593     26592     26594
     26596     26595     26597     26599     26598     26600     26602     26601     26603
     26605     26604     26606     26608     26607     26609     26611     26610     26612
     26614     26613     26615     26617     26616     26618     26620     26619     26621
     26623     26622     26624     26626     26625     26627     26629     26628     26630
     26632     26631     26633     26635     26634     26636     26638     26637     26639
     26641     26640     26642     26644     26643     26645     26647     26646     26648
     26650     26649     26651     26653     26652     26654     26656     26655     26657
     26659     26658     26660     26662     26661     26663     26665     26664     26666
     26668     26667     26669     26671     26670     26672     26674     26673     26675
     26677     26676     26678     26680     26679     26681     26683     26682     26684
     26686     26685     26687     26689     26688     26690     26692     26691     26693
     26695     26694     26696     26698     26697     26699     26701     26700     26702
     26704     26703     26705     26707     26706     26708     26710     26709     26711
     26713     26712     26714     26716     26715     26717     26719     26718     26720
     26722     26721     26723     26725     26724     26726     26728     26727     26729
     26731     26730     26732     26734     26733     26735     26737     26736     26738
     26740     26739     26741     26743     26742     26744     26746     26745     26747
     26749     26748     26750     26752     26751     26753     26755     26754     26756
     26758     26757     26759     26761     26760     26762     26764     26763     26765
     26767     26766     26768     26770     26769     26771     26773     26772     26774
     26776     26775     26777     26779     26778     26780     26782     26781     26783
     26785     26784     26786     26788     26787     26789     26791     26790     26792
     26794     26793     26795     26797     26796     26798     26800     26799     26801
     26803     26802     26804     26806     26805     26807     26809     26808     26810
     26812     26811     26813     26815     26814     26816     26818     26817     26819
     26821     26820     26822     26824     26823     26825     26827     26826     26828
     26830     26829     26831     26833     26832     26834     26836     26835     26837
     26839     26838     26840     26842     26841     26843     26845     26844     26846
     26848     26847     26849     26851     26850     26852     26854     26853     26855
     26857     26856     26858     26860     26859     26861     26863     26862     26864
     26866     26865     26867     26869     26868     26870     26872     26871     26873
     26875     26874     26876     26878     26877     26879     26881     26880     26882
     26884     26883     26885     26887     26886     26888     26890     26889     26891
     26893     26892     26894     26896     26895     26897     26899     26898     26900
     26902     26901     26903     26905     26904     26906     26908     26907     26909
     26911     26910     26912     26914     26913     26915     26917     26916     26918
     26920     26919     26921     26923     26922     26924     26926     26925     26927
     26929     26928     26930     26932     26931     26933     26935     26934     26936
     26938     26937     26939     26941     26940     26942     26944     26943     26945
     26947     26946     26948     26950     26949     26951     26953     26952     26954
     26956     26955     26957     26959     26958     26960     26962     26961     26963
     26965     26964     26966     26968     26967     26969     26971     26970     26972
     26974     26973     26975     26977     26976     26978     26980     26979     26981
     26983     26982     26984     26986     26985     26987     26989     26988     26990
     26992     26991     26993     26995     26994     26996     26998     26997     26999
     27001     27000     27002     27004     27003     27005     27007     27006     27008
     27010     27009     27011     27013     27012     27014     27016     27015     27017

     35792 !NPHI: dihedrals
         1         5         7         8         1         5         7         9
         2         1         5         6         2         1         5         7
         3         1         5         6         3         1         5         7
         4         1         5         6         4         1         5         7
         5         7         9        10         5         7         9        11
         5         7         9        22         6         5         7         8
         6         5         7         9         7         9        11        12
         7         9        11        13         7         9        11        14
         7         9        22        23         7         9        22        24
         8         7         9        10         8         7         9        11
         8         7         9        22         9        11        14        15
         9        11        14        16         9        11        14        17
         9        22        24        25         9        22        24        26
        10         9        11        12        10         9        11        13
        10         9        11        14        10         9        22        23
        10         9        22        24        11         9        22        23
        11         9        22        24        11        14        17        18
        11        14        17        19        12        11         9        22
        12        11        14        15        12        11        14        16
        12        11        14        17        13        11         9        22
        13        11        14        15        13        11        14        16
        13        11        14        17        14        11         9        22
        14        17        19        20        14        17        19        21
        15        14        17        18        15        14        17        19
        16        14        17        18        16        14        17        19
        18        17        19        20        18        17        19        21
        22        24        26        27        22        24        26        28
        22        24        26        32        23        22        24        25
        23        22        24        26        24        26        28        29
        24        26        28        30        24        26        28        31
        24        26        32        33        24        26        32        34
        25        24        26        27        25        24        26        28
        25        24        26        32        26        32        34        35
        26        32        34        38        27        26        28        29
        27        26        28        30        27        26        28        31
        27        26        32        33        27        26        32        34
        28        26        32        33        28        26        32        34
        29        28        26        32        30        28        26        32
        31        28        26        32        32        34        35        36
        32        34        35        37        32        34        35        43
        32        34        38        39        32        34        38        40
        32        34        38        46        33        32        34        35
        33        32        34        38        34        35        43        40
        34        35        43        44        34        35        43        45
        34        38        40        41        34        38        40        42
        34        38        40        43        34        38        46        47
        34        38        46        48        35        34        38        39
        35        34        38        40        35        34        38        46
        35        43        40        38        35        43        40        41
        35        43        40        42        36        35        34        38
        36        35        43        40        36        35        43        44
        36        35        43        45        37        35        34        38
        37        35        43        40        37        35        43        44
        37        35        43        45        38        34        35        43
        38        40        43        44        38        40        43        45
        38        46        48        49        38        46        48        50
        39        38        40        41        39        38        40        42
        39        38        40        43        39        38        46        47
        39        38        46        48        40        38        46        47
        40        38        46        48        41        40        38        46
        41        40        43        44        41        40        43        45
        42        40        38        46        42        40        43        44
        42        40        43        45        43        40        38        46
        46        48        50        51        46        48        50        52
        46        48        50        56        47        46        48        49
        47        46        48        50        48        50        52        53
        48        50        52        54        48        50        52        55
        48        50        56        57        48        50        56        58
        49        48        50        51        49        48        50        52
        49        48        50        56        50        56        58        59
        50        56        58        60        51        50        52        53
        51        50        52        54        51        50        52        55
        51        50        56        57        51        50        56        58
        52        50        56        57        52        50        56        58
        53        52        50        56        54        52        50        56
        55        52        50        56        56        58        60        61
        56        58        60        62        56        58        60        77
        57        56        58        59        57        56        58        60
        58        60        62        63        58        60        62        64
        58        60        62        65        58        60        77        78
        58        60        77        79        59        58        60        61
        59        58        60        62        59        58        60        77
        60        62        65        66        60        62        65        73
        60        77        79        80        60        77        79        81
        61        60        62        63        61        60        62        64
        61        60        62        65        61        60        77        78
        61        60        77        79        62        60        77        78
        62        60        77        79        62        65        66        67
        62        65        66        68        62        65        73        74
        62        65        73        75        63        62        60        77
        63        62        65        66        63        62        65        73
        64        62        60        77        64        62        65        66
        64        62        65        73        65        62        60        77
        65        66        68        69        65        66        68        70
        65        73        75        70        65        73        75        76
        66        65        73        74        66        65        73        75
        66        68        70        71        66        68        70        75
        67        66        65        73        67        66        68        69
        67        66        68        70        68        66        65        73
        68        70        71        72        68        70        75        73
        68        70        75        76        69        68        70        71
        69        68        70        75        70        75        73        74
        71        70        75        73        71        70        75        76
        72        71        70        75        74        73        75        76
        77        79        81        82        77        79        81        83
        77        79        81        99        78        77        79        80
        78        77        79        81        79        81        83        84
        79        81        83        85        79        81        83        86
        79        81        99       100        79        81        99       101
        80        79        81        82        80        79        81        83
        80        79        81        99        81        83        86        87
        81        83        86        88        81        83        86        89
        81        99       101       102        81        99       101       103
        82        81        83        84        82        81        83        85
        82        81        83        86        82        81        99       100
        82        81        99       101        83        81        99       100
        83        81        99       101        83        86        89        90
        83        86        89        91        83        86        89        92
        84        83        81        99        84        83        86        87
        84        83        86        88        84        83        86        89
        85        83        81        99        85        83        86        87
        85        83        86        88        85        83        86        89
        86        83        81        99        86        89        92        93
        86        89        92        94        86        89        92        95
        87        86        89        90        87        86        89        91
        87        86        89        92        88        86        89        90
        88        86        89        91        88        86        89        92
        89        92        95        96        89        92        95        97
        89        92        95        98        90        89        92        93
        90        89        92        94        90        89        92        95
        91        89        92        93        91        89        92        94
        91        89        92        95        93        92        95        96
        93        92        95        97        93        92        95        98
        94        92        95        96        94        92        95        97
        94        92        95        98        99       101       103       104
        99       101       103       105        99       101       103       121
       100        99       101       102       100        99       101       103
       101       103       105       106       101       103       105       107
       101       103       105       108       101       103       121       122
       101       103       121       123       102       101       103       104
       102       101       103       105       102       101       103       121
       103       105       108       109       103       105       108       110
       103       105       108       111       103       121       123       124
       103       121       123       125       104       103       105       106
       104       103       105       107       104       103       105       108
       104       103       121       122       104       103       121       123
       105       103       121       122       105       103       121       123
       105       108       111       112       105       108       111       113
       105       108       111       114       106       105       103       121
       106       105       108       109       106       105       108       110
       106       105       108       111       107       105       103       121
       107       105       108       109       107       105       108       110
       107       105       108       111       108       105       103       121
       108       111       114       115       108       111       114       116
       108       111       114       117       109       108       111       112
       109       108       111       113       109       108       111       114
       110       108       111       112       110       108       111       113
       110       108       111       114       111       114       117       118
       111       114       117       119       111       114       117       120
       112       111       114       115       112       111       114       116
       112       111       114       117       113       111       114       115
       113       111       114       116       113       111       114       117
       115       114       117       118       115       114       117       119
       115       114       117       120       116       114       117       118
       116       114       117       119       116       114       117       120
       121       123       125       126       121       123       125       127
       121       123       125       131       122       121       123       124
       122       121       123       125       123       125       127       128
       123       125       127       129       123       125       127       130
       123       125       131       132       123       125       131       133
       124       123       125       126       124       123       125       127
       124       123       125       131       125       131       133       134
       125       131       133       135       126       125       127       128
       126       125       127       129       126       125       127       130
       126       125       131       132       126       125       131       133
       127       125       131       132       127       125       131       133
       128       127       125       131       129       127       125       131
       130       127       125       131       131       133       135       136
       131       133       135       137       131       133       135       141
       132       131       133       134       132       131       133       135
       133       135       137       138       133       135       137       139
       133       135       137       140       133       135       141       142
       133       135       141       143       134       133       135       136
       134       133       135       137       134       133       135       141
       135       141       143       144       135       141       143       145
       136       135       137       138       136       135       137       139
       136       135       137       140       136       135       141       142
       136       135       141       143       137       135       141       142
       137       135       141       143       138       137       135       141
       139       137       135       141       140       137       135       141
       141       143       145       146       141       143       145       147
       141       143       145       163       142       141       143       144
       142       141       143       145       143       145       147       148
       143       145       147       149       143       145       147       150
       143       145       163       164       143       145       163       165
       144       143       145       146       144       143       145       147
       144       143       145       163       145       147       150       151
       145       147       150       152       145       147       150       153
       145       163       165       166       145       163       165       167
       146       145       147       148       146       145       147       149
       146       145       147       150       146       145       163       164
       146       145       163       165       147       145       163       164
       147       145       163       165       147       150       153       154
       147       150       153       155       147       150       153       156
       148       147       145       163       148       147       150       151
       148       147       150       152       148       147       150       153
       149       147       145       163       149       147       150       151
       149       147       150       152       149       147       150       153
       150       147       145       163       150       153       156       157
       150       153       156       158       150       153       156       159
       151       150       153       154       151       150       153       155
       151       150       153       156       152       150       153       154
       152       150       153       155       152       150       153       156
       153       156       159       160       153       156       159       161
       153       156       159       162       154       153       156       157
       154       153       156       158       154       153       156       159
       155       153       156       157       155       153       156       158
       155       153       156       159       157       156       159       160
       157       156       159       161       157       156       159       162
       158       156       159       160       158       156       159       161
       158       156       159       162       163       165       167       168
       163       165       167       169       163       165       167       185
       164       163       165       166       164       163       165       167
       165       167       169       170       165       167       169       171
       165       167       169       172       165       167       185       186
       165       167       185       187       166       165       167       168
       166       165       167       169       166       165       167       185
       167       169       172       173       167       169       172       174
       167       169       172       175       167       185       187       188
       167       185       187       189       168       167       169       170
       168       167       169       171       168       167       169       172
       168       167       185       186       168       167       185       187
       169       167       185       186       169       167       185       187
       169       172       175       176       169       172       175       177
       169       172       175       178       170       169       167       185
       170       169       172       173       170       169       172       174
       170       169       172       175       171       169       167       185
       171       169       172       173       171       169       172       174
       171       169       172       175       172       169       167       185
       172       175       178       179       172       175       178       180
       172       175       178       181       173       172       175       176
       173       172       175       177       173       172       175       178
       174       172       175       176       174       172       175       177
       174       172       175       178       175       178       181       182
       175       178       181       183       175       178       181       184
       176       175       178       179       176       175       178       180
       176       175       178       181       177       175       178       179
       177       175       178       180       177       175       178       181
       179       178       181       182       179       178       181       183
       179       178       181       184       180       178       181       182
       180       178       181       183       180       178       181       184
       185       187       189       190       185       187       189       191
       185       187       189       204       186       185       187       188
       186       185       187       189       187       189       191       192
       187       189       191       193       187       189       191       194
       187       189       204       205       187       189       204       206
       188       187       189       190       188       187       189       191
       188       187       189       204       189       191       194       195
       189       191       194       196       189       191       194       200
       189       204       206       207       189       204       206       208
       190       189       191       192       190       189       191       193
       190       189       191       194       190       189       204       205
       190       189       204       206       191       189       204       205
       191       189       204       206       191       194       196       197
       191       194       196       198       191       194       196       199
       191       194       200       201       191       194       200       202
       191       194       200       203       192       191       189       204
       192       191       194       195       192       191       194       196
       192       191       194       200       193       191       189       204
       193       191       194       195       193       191       194       196
       193       191       194       200       194       191       189       204
       195       194       196       197       195       194       196       198
       195       194       196       199       195       194       200       201
       195       194       200       202       195       194       200       203
       196       194       200       201       196       194       200       202
       196       194       200       203       197       196       194       200
       198       196       194       200       199       196       194       200
       204       206       208       209       204       206       208       210
       204       206       208       214       205       204       206       207
       205       204       206       208       206       208       210       211
       206       208       210       212       206       208       210       213
       206       208       214       215       206       208       214       216
       207       206       208       209       207       206       208       210
       207       206       208       214       208       214       216       217
       208       214       216       218       209       208       210       211
       209       208       210       212       209       208       210       213
       209       208       214       215       209       208       214       216
       210       208       214       215       210       208       214       216
       211       210       208       214       212       210       208       214
       213       210       208       214       214       216       218       219
       214       216       218       220       214       216       218       229
       215       214       216       217       215       214       216       218
       216       218       220       221       216       218       220       222
       216       218       220       223       216       218       229       230
       216       218       229       231       217       216       218       219
       217       216       218       220       217       216       218       229
       218       220       223       224       218       220       223       225
       218       220       223       226       218       229       231       232
       218       229       231       233       219       218       220       221
       219       218       220       222       219       218       220       223
       219       218       229       230       219       218       229       231
       220       218       229       230       220       218       229       231
       220       223       226       227       220       223       226       228
       221       220       218       229       221       220       223       224
       221       220       223       225       221       220       223       226
       222       220       218       229       222       220       223       224
       222       220       223       225       222       220       223       226
       223       220       218       229       224       223       226       227
       224       223       226       228       225       223       226       227
       225       223       226       228       229       231       233       234
       229       231       233       235       229       231       233       240
       230       229       231       232       230       229       231       233
       231       233       235       236       231       233       235       237
       231       233       235       238       231       233       240       241
       231       233       240       242       232       231       233       234
       232       231       233       235       232       231       233       240
       233       235       238       239       233       240       242       243
       233       240       242       244       234       233       235       236
       234       233       235       237       234       233       235       238
       234       233       240       241       234       233       240       242
       235       233       240       241       235       233       240       242
       236       235       233       240       236       235       238       239
       237       235       233       240       237       235       238       239
       238       235       233       240       240       242       244       245
       240       242       244       246       240       242       244       247
       241       240       242       243       241       240       242       244
       243       242       244       245       243       242       244       246
       243       242       244       247       248       252       255       256
       248       252       255       286       248       294       291       286
       248       294       291       292       248       294       291       293
       249       248       250       251       249       248       252       253
       249       248       252       254       249       248       252       255
       249       248       294       291       249       248       294       295
       249       248       294       296       250       248       252       253
       250       248       252       254       250       248       252       255
       250       248       294       291       250       248       294       295
       250       248       294       296       251       250       248       252
       251       250       248       294       252       248       294       291
       252       248       294       295       252       248       294       296
       252       255       256       257       252       255       256       258
       252       255       286       284       252       255       286       287
       252       255       286       291       253       252       248       294
       253       252       255       256       253       252       255       286
       254       252       248       294       254       252       255       256
       254       252       255       286       255       252       248       294
       255       256       258       259       255       256       258       260
       255       256       258       261       255       286       284       261
       255       286       284       281       255       286       284       285
       255       286       287       288       255       286       287       289
       255       286       287       290       255       286       291       292
       255       286       291       293       255       286       291       294
       256       255       286       284       256       255       286       287
       256       255       286       291       256       258       261       262
       256       258       261       263       256       258       261       284
       257       256       255       286       257       256       258       259
       257       256       258       260       257       256       258       261
       258       256       255       286       258       261       263       264
       258       261       263       265       258       261       263       273
       258       261       284       281       258       261       284       285
       258       261       284       286       259       258       261       262
       259       258       261       263       259       258       261       284
       260       258       261       262       260       258       261       263
       260       258       261       284       261       263       265       266
       261       263       265       267       261       263       265       268
       261       263       273       271       261       263       273       274
       261       263       273       278       261       284       281       278
       261       284       281       282       261       284       281       283
       261       284       286       287       261       284       286       291
       262       261       263       264       262       261       263       265
       262       261       263       273       262       261       284       281
       262       261       284       285       262       261       284       286
       263       261       284       281       263       261       284       285
       263       261       284       286       263       265       268       269
       263       265       268       270       263       265       268       271
       263       273       271       268       263       273       271       272
       263       273       271       297       263       273       274       275
       263       273       274       276       263       273       274       277
       263       273       278       279       263       273       278       280
       263       273       278       281       264       263       261       284
       264       263       265       266       264       263       265       267
       264       263       265       268       264       263       273       271
       264       263       273       274       264       263       273       278
       265       263       261       284       265       263       273       271
       265       263       273       274       265       263       273       278
       265       268       271       272       265       268       271       273
       265       268       271       297       266       265       263       273
       266       265       268       269       266       265       268       270
       266       265       268       271       267       265       263       273
       267       265       268       269       267       265       268       270
       267       265       268       271       268       265       263       273
       268       271       273       274       268       271       273       278
       268       271       297       298       268       271       297       299
       268       271       297       303       269       268       271       272
       269       268       271       273       269       268       271       297
       270       268       271       272       270       268       271       273
       270       268       271       297       271       273       274       275
       271       273       274       276       271       273       274       277
       271       273       278       279       271       273       278       280
       271       273       278       281       271       297       299       300
       271       297       299       301       271       297       299       302
       271       297       303       304       271       297       303       305
       271       297       303       306       272       271       273       274
       272       271       273       278       272       271       297       298
       272       271       297       299       272       271       297       303
       273       263       261       284       273       271       297       298
       273       271       297       299       273       271       297       303
       273       278       281       282       273       278       281       283
       273       278       281       284       274       273       271       297
       274       273       278       279       274       273       278       280
       274       273       278       281       275       274       273       278
       276       274       273       278       277       274       273       278
       278       273       271       297       278       281       284       285
       278       281       284       286       279       278       281       282
       279       278       281       283       279       278       281       284
       280       278       281       282       280       278       281       283
       280       278       281       284       281       284       286       287
       281       284       286       291       282       281       284       285
       282       281       284       286       283       281       284       285
       283       281       284       286       284       286       287       288
       284       286       287       289       284       286       287       290
       284       286       291       292       284       286       291       293
       284       286       291       294       285       284       286       287
       285       284       286       291       286       291       294       295
       286       291       294       296       287       286       291       292
       287       286       291       293       287       286       291       294
       288       287       286       291       289       287       286       291
       290       287       286       291       292       291       294       295
       292       291       294       296       293       291       294       295
       293       291       294       296       297       303       306       307
       297       303       306       308       297       303       306       309
       298       297       299       300       298       297       299       301
       298       297       299       302       298       297       303       304
       298       297       303       305       298       297       303       306
       299       297       303       304       299       297       303       305
       299       297       303       306       300       299       297       303
       301       299       297       303       302       299       297       303
       303       306       309       310       303       306       309       311
       303       306       309       312       304       303       306       307
       304       303       306       308       304       303       306       309
       305       303       306       307       305       303       306       308
       305       303       306       309       306       309       312       313
       306       309       312       314       306       309       312       318
       307       306       309       310       307       306       309       311
       307       306       309       312       308       306       309       310
       308       306       309       311       308       306       309       312
       309       312       314       315       309       312       314       316
       309       312       314       317       309       312       318       319
       309       312       318       320       309       312       318       321
       310       309       312       313       310       309       312       314
       310       309       312       318       311       309       312       313
       311       309       312       314       311       309       312       318
       313       312       314       315       313       312       314       316
       313       312       314       317       313       312       318       319
       313       312       318       320       313       312       318       321
       314       312       318       319       314       312       318       320
       314       312       318       321       315       314       312       318
       316       314       312       318       317       314       312       318
       322       326       329       330       322       326       329       360
       322       368       365       360       322       368       365       366
       322       368       365       367       323       322       324       325
       323       322       326       327       323       322       326       328
       323       322       326       329       323       322       368       365
       323       322       368       369       323       322       368       370
       324       322       326       327       324       322       326       328
       324       322       326       329       324       322       368       365
       324       322       368       369       324       322       368       370
       325       324       322       326       325       324       322       368
       326       322       368       365       326       322       368       369
       326       322       368       370       326       329       330       331
       326       329       330       332       326       329       360       358
       326       329       360       361       326       329       360       365
       327       326       322       368       327       326       329       330
       327       326       329       360       328       326       322       368
       328       326       329       330       328       326       329       360
       329       326       322       368       329       330       332       333
       329       330       332       334       329       330       332       335
       329       360       358       335       329       360       358       355
       329       360       358       359       329       360       361       362
       329       360       361       363       329       360       361       364
       329       360       365       366       329       360       365       367
       329       360       365       368       330       329       360       358
       330       329       360       361       330       329       360       365
       330       332       335       336       330       332       335       337
       330       332       335       358       331       330       329       360
       331       330       332       333       331       330       332       334
       331       330       332       335       332       330       329       360
       332       335       337       338       332       335       337       339
       332       335       337       347       332       335       358       355
       332       335       358       359       332       335       358       360
       333       332       335       336       333       332       335       337
       333       332       335       358       334       332       335       336
       334       332       335       337       334       332       335       358
       335       337       339       340       335       337       339       341
       335       337       339       342       335       337       347       345
       335       337       347       348       335       337       347       352
       335       358       355       352       335       358       355       356
       335       358       355       357       335       358       360       361
       335       358       360       365       336       335       337       338
       336       335       337       339       336       335       337       347
       336       335       358       355       336       335       358       359
       336       335       358       360       337       335       358       355
       337       335       358       359       337       335       358       360
       337       339       342       343       337       339       342       344
       337       339       342       345       337       347       345       342
       337       347       345       346       337       347       345       371
       337       347       348       349       337       347       348       350
       337       347       348       351       337       347       352       353
       337       347       352       354       337       347       352       355
       338       337       335       358       338       337       339       340
       338       337       339       341       338       337       339       342
       338       337       347       345       338       337       347       348
       338       337       347       352       339       337       335       358
       339       337       347       345       339       337       347       348
       339       337       347       352       339       342       345       346
       339       342       345       347       339       342       345       371
       340       339       337       347       340       339       342       343
       340       339       342       344       340       339       342       345
       341       339       337       347       341       339       342       343
       341       339       342       344       341       339       342       345
       342       339       337       347       342       345       347       348
       342       345       347       352       342       345       371       372
       342       345       371       373       342       345       371       377
       343       342       345       346       343       342       345       347
       343       342       345       371       344       342       345       346
       344       342       345       347       344       342       345       371
       345       347       348       349       345       347       348       350
       345       347       348       351       345       347       352       353
       345       347       352       354       345       347       352       355
       345       371       373       374       345       371       373       375
       345       371       373       376       345       371       377       378
       345       371       377       379       345       371       377       380
       346       345       347       348       346       345       347       352
       346       345       371       372       346       345       371       373
       346       345       371       377       347       337       335       358
       347       345       371       372       347       345       371       373
       347       345       371       377       347       352       355       356
       347       352       355       357       347       352       355       358
       348       347       345       371       348       347       352       353
       348       347       352       354       348       347       352       355
       349       348       347       352       350       348       347       352
       351       348       347       352       352       347       345       371
       352       355       358       359       352       355       358       360
       353       352       355       356       353       352       355       357
       353       352       355       358       354       352       355       356
       354       352       355       357       354       352       355       358
       355       358       360       361       355       358       360       365
       356       355       358       359       356       355       358       360
       357       355       358       359       357       355       358       360
       358       360       361       362       358       360       361       363
       358       360       361       364       358       360       365       366
       358       360       365       367       358       360       365       368
       359       358       360       361       359       358       360       365
       360       365       368       369       360       365       368       370
       361       360       365       366       361       360       365       367
       361       360       365       368       362       361       360       365
       363       361       360       365       364       361       360       365
       366       365       368       369       366       365       368       370
       367       365       368       369       367       365       368       370
       371       377       380       381       371       377       380       382
       371       377       380       383       372       371       373       374
       372       371       373       375       372       371       373       376
       372       371       377       378       372       371       377       379
       372       371       377       380       373       371       377       378
       373       371       377       379       373       371       377       380
       374       373       371       377       375       373       371       377
       376       373       371       377       377       380       383       384
       377       380       383       385       377       380       383       386
       378       377       380       381       378       377       380       382
       378       377       380       383       379       377       380       381
       379       377       380       382       379       377       380       383
       380       383       386       387       380       383       386       388
       380       383       386       392       381       380       383       384
       381       380       383       385       381       380       383       386
       382       380       383       384       382       380       383       385
       382       380       383       386       383       386       388       389
       383       386       388       390       383       386       388       391
       383       386       392       393       383       386       392       394
       383       386       392       395       384       383       386       387
       384       383       386       388       384       383       386       392
       385       383       386       387       385       383       386       388
       385       383       386       392       387       386       388       389
       387       386       388       390       387       386       388       391
       387       386       392       393       387       386       392       394
       387       386       392       395       388       386       392       393
       388       386       392       394       388       386       392       395
       389       388       386       392       390       388       386       392
       391       388       386       392       396       400       403       404
       396       400       403       434       396       442       439       434
       396       442       439       440       396       442       439       441
       397       396       398       399       397       396       400       401
       397       396       400       402       397       396       400       403
       397       396       442       439       397       396       442       443
       397       396       442       444       398       396       400       401
       398       396       400       402       398       396       400       403
       398       396       442       439       398       396       442       443
       398       396       442       444       399       398       396       400
       399       398       396       442       400       396       442       439
       400       396       442       443       400       396       442       444
       400       403       404       405       400       403       404       406
       400       403       434       432       400       403       434       435
       400       403       434       439       401       400       396       442
       401       400       403       404       401       400       403       434
       402       400       396       442       402       400       403       404
       402       400       403       434       403       400       396       442
       403       404       406       407       403       404       406       408
       403       404       406       409       403       434       432       409
       403       434       432       429       403       434       432       433
       403       434       435       436       403       434       435       437
       403       434       435       438       403       434       439       440
       403       434       439       441       403       434       439       442
       404       403       434       432       404       403       434       435
       404       403       434       439       404       406       409       410
       404       406       409       411       404       406       409       432
       405       404       403       434       405       404       406       407
       405       404       406       408       405       404       406       409
       406       404       403       434       406       409       411       412
       406       409       411       413       406       409       411       421
       406       409       432       429       406       409       432       433
       406       409       432       434       407       406       409       410
       407       406       409       411       407       406       409       432
       408       406       409       410       408       406       409       411
       408       406       409       432       409       411       413       414
       409       411       413       415       409       411       413       416
       409       411       421       419       409       411       421       422
       409       411       421       426       409       432       429       426
       409       432       429       430       409       432       429       431
       409       432       434       435       409       432       434       439
       410       409       411       412       410       409       411       413
       410       409       411       421       410       409       432       429
       410       409       432       433       410       409       432       434
       411       409       432       429       411       409       432       433
       411       409       432       434       411       413       416       417
       411       413       416       418       411       413       416       419
       411       421       419       416       411       421       419       420
       411       421       419       445       411       421       422       423
       411       421       422       424       411       421       422       425
       411       421       426       427       411       421       426       428
       411       421       426       429       412       411       409       432
       412       411       413       414       412       411       413       415
       412       411       413       416       412       411       421       419
       412       411       421       422       412       411       421       426
       413       411       409       432       413       411       421       419
       413       411       421       422       413       411       421       426
       413       416       419       420       413       416       419       421
       413       416       419       445       414       413       411       421
       414       413       416       417       414       413       416       418
       414       413       416       419       415       413       411       421
       415       413       416       417       415       413       416       418
       415       413       416       419       416       413       411       421
       416       419       421       422       416       419       421       426
       416       419       445       446       416       419       445       447
       416       419       445       451       417       416       419       420
       417       416       419       421       417       416       419       445
       418       416       419       420       418       416       419       421
       418       416       419       445       419       421       422       423
       419       421       422       424       419       421       422       425
       419       421       426       427       419       421       426       428
       419       421       426       429       419       445       447       448
       419       445       447       449       419       445       447       450
       419       445       451       452       419       445       451       453
       419       445       451       454       420       419       421       422
       420       419       421       426       420       419       445       446
       420       419       445       447       420       419       445       451
       421       411       409       432       421       419       445       446
       421       419       445       447       421       419       445       451
       421       426       429       430       421       426       429       431
       421       426       429       432       422       421       419       445
       422       421       426       427       422       421       426       428
       422       421       426       429       423       422       421       426
       424       422       421       426       425       422       421       426
       426       421       419       445       426       429       432       433
       426       429       432       434       427       426       429       430
       427       426       429       431       427       426       429       432
       428       426       429       430       428       426       429       431
       428       426       429       432       429       432       434       435
       429       432       434       439       430       429       432       433
       430       429       432       434       431       429       432       433
       431       429       432       434       432       434       435       436
       432       434       435       437       432       434       435       438
       432       434       439       440       432       434       439       441
       432       434       439       442       433       432       434       435
       433       432       434       439       434       439       442       443
       434       439       442       444       435       434       439       440
       435       434       439       441       435       434       439       442
       436       435       434       439       437       435       434       439
       438       435       434       439       440       439       442       443
       440       439       442       444       441       439       442       443
       441       439       442       444       445       451       454       455
       445       451       454       456       445       451       454       457
       446       445       447       448       446       445       447       449
       446       445       447       450       446       445       451       452
       446       445       451       453       446       445       451       454
       447       445       451       452       447       445       451       453
       447       445       451       454       448       447       445       451
       449       447       445       451       450       447       445       451
       451       454       457       458       451       454       457       459
       451       454       457       460       452       451       454       455
       452       451       454       456       452       451       454       457
       453       451       454       455       453       451       454       456
       453       451       454       457       454       457       460       461
       454       457       460       462       454       457       460       466
       455       454       457       458       455       454       457       459
       455       454       457       460       456       454       457       458
       456       454       457       459       456       454       457       460
       457       460       462       463       457       460       462       464
       457       460       462       465       457       460       466       467
       457       460       466       468       457       460       466       469
       458       457       460       461       458       457       460       462
       458       457       460       466       459       457       460       461
       459       457       460       462       459       457       460       466
       461       460       462       463       461       460       462       464
       461       460       462       465       461       460       466       467
       461       460       466       468       461       460       466       469
       462       460       466       467       462       460       466       468
       462       460       466       469       463       462       460       466
       464       462       460       466       465       462       460       466
       470       474       477       478       470       474       477       508
       470       516       513       508       470       516       513       514
       470       516       513       515       471       470       472       473
       471       470       474       475       471       470       474       476
       471       470       474       477       471       470       516       513
       471       470       516       517       471       470       516       518
       472       470       474       475       472       470       474       476
       472       470       474       477       472       470       516       513
       472       470       516       517       472       470       516       518
       473       472       470       474       473       472       470       516
       474       470       516       513       474       470       516       517
       474       470       516       518       474       477       478       479
       474       477       478       480       474       477       508       506
       474       477       508       509       474       477       508       513
       475       474       470       516       475       474       477       478
       475       474       477       508       476       474       470       516
       476       474       477       478       476       474       477       508
       477       474       470       516       477       478       480       481
       477       478       480       482       477       478       480       483
       477       508       506       483       477       508       506       503
       477       508       506       507       477       508       509       510
       477       508       509       511       477       508       509       512
       477       508       513       514       477       508       513       515
       477       508       513       516       478       477       508       506
       478       477       508       509       478       477       508       513
       478       480       483       484       478       480       483       485
       478       480       483       506       479       478       477       508
       479       478       480       481       479       478       480       482
       479       478       480       483       480       478       477       508
       480       483       485       486       480       483       485       487
       480       483       485       495       480       483       506       503
       480       483       506       507       480       483       506       508
       481       480       483       484       481       480       483       485
       481       480       483       506       482       480       483       484
       482       480       483       485       482       480       483       506
       483       485       487       488       483       485       487       489
       483       485       487       490       483       485       495       493
       483       485       495       496       483       485       495       500
       483       506       503       500       483       506       503       504
       483       506       503       505       483       506       508       509
       483       506       508       513       484       483       485       486
       484       483       485       487       484       483       485       495
       484       483       506       503       484       483       506       507
       484       483       506       508       485       483       506       503
       485       483       506       507       485       483       506       508
       485       487       490       491       485       487       490       492
       485       487       490       493       485       495       493       490
       485       495       493       494       485       495       493       519
       485       495       496       497       485       495       496       498
       485       495       496       499       485       495       500       501
       485       495       500       502       485       495       500       503
       486       485       483       506       486       485       487       488
       486       485       487       489       486       485       487       490
       486       485       495       493       486       485       495       496
       486       485       495       500       487       485       483       506
       487       485       495       493       487       485       495       496
       487       485       495       500       487       490       493       494
       487       490       493       495       487       490       493       519
       488       487       485       495       488       487       490       491
       488       487       490       492       488       487       490       493
       489       487       485       495       489       487       490       491
       489       487       490       492       489       487       490       493
       490       487       485       495       490       493       495       496
       490       493       495       500       490       493       519       520
       490       493       519       521       490       493       519       525
       491       490       493       494       491       490       493       495
       491       490       493       519       492       490       493       494
       492       490       493       495       492       490       493       519
       493       495       496       497       493       495       496       498
       493       495       496       499       493       495       500       501
       493       495       500       502       493       495       500       503
       493       519       521       522       493       519       521       523
       493       519       521       524       493       519       525       526
       493       519       525       527       493       519       525       528
       494       493       495       496       494       493       495       500
       494       493       519       520       494       493       519       521
       494       493       519       525       495       485       483       506
       495       493       519       520       495       493       519       521
       495       493       519       525       495       500       503       504
       495       500       503       505       495       500       503       506
       496       495       493       519       496       495       500       501
       496       495       500       502       496       495       500       503
       497       496       495       500       498       496       495       500
       499       496       495       500       500       495       493       519
       500       503       506       507       500       503       506       508
       501       500       503       504       501       500       503       505
       501       500       503       506       502       500       503       504
       502       500       503       505       502       500       503       506
       503       506       508       509       503       506       508       513
       504       503       506       507       504       503       506       508
       505       503       506       507       505       503       506       508
       506       508       509       510       506       508       509       511
       506       508       509       512       506       508       513       514
       506       508       513       515       506       508       513       516
       507       506       508       509       507       506       508       513
       508       513       516       517       508       513       516       518
       509       508       513       514       509       508       513       515
       509       508       513       516       510       509       508       513
       511       509       508       513       512       509       508       513
       514       513       516       517       514       513       516       518
       515       513       516       517       515       513       516       518
       519       525       528       529       519       525       528       530
       519       525       528       531       520       519       521       522
       520       519       521       523       520       519       521       524
       520       519       525       526       520       519       525       527
       520       519       525       528       521       519       525       526
       521       519       525       527       521       519       525       528
       522       521       519       525       523       521       519       525
       524       521       519       525       525       528       531       532
       525       528       531       533       525       528       531       534
       526       525       528       529       526       525       528       530
       526       525       528       531       527       525       528       529
       527       525       528       530       527       525       528       531
       528       531       534       535       528       531       534       536
       528       531       534       540       529       528       531       532
       529       528       531       533       529       528       531       534
       530       528       531       532       530       528       531       533
       530       528       531       534       531       534       536       537
       531       534       536       538       531       534       536       539
       531       534       540       541       531       534       540       542
       531       534       540       543       532       531       534       535
       532       531       534       536       532       531       534       540
       533       531       534       535       533       531       534       536
       533       531       534       540       535       534       536       537
       535       534       536       538       535       534       536       539
       535       534       540       541       535       534       540       542
       535       534       540       543       536       534       540       541
       536       534       540       542       536       534       540       543
       537       536       534       540       538       536       534       540
       539       536       534       540       544       548       551       552
       544       548       551       582       544       590       587       582
       544       590       587       588       544       590       587       589
       545       544       546       547       545       544       548       549
       545       544       548       550       545       544       548       551
       545       544       590       587       545       544       590       591
       545       544       590       592       546       544       548       549
       546       544       548       550       546       544       548       551
       546       544       590       587       546       544       590       591
       546       544       590       592       547       546       544       548
       547       546       544       590       548       544       590       587
       548       544       590       591       548       544       590       592
       548       551       552       553       548       551       552       554
       548       551       582       580       548       551       582       583
       548       551       582       587       549       548       544       590
       549       548       551       552       549       548       551       582
       550       548       544       590       550       548       551       552
       550       548       551       582       551       548       544       590
       551       552       554       555       551       552       554       556
       551       552       554       557       551       582       580       557
       551       582       580       577       551       582       580       581
       551       582       583       584       551       582       583       585
       551       582       583       586       551       582       587       588
       551       582       587       589       551       582       587       590
       552       551       582       580       552       551       582       583
       552       551       582       587       552       554       557       558
       552       554       557       559       552       554       557       580
       553       552       551       582       553       552       554       555
       553       552       554       556       553       552       554       557
       554       552       551       582       554       557       559       560
       554       557       559       561       554       557       559       569
       554       557       580       577       554       557       580       581
       554       557       580       582       555       554       557       558
       555       554       557       559       555       554       557       580
       556       554       557       558       556       554       557       559
       556       554       557       580       557       559       561       562
       557       559       561       563       557       559       561       564
       557       559       569       567       557       559       569       570
       557       559       569       574       557       580       577       574
       557       580       577       578       557       580       577       579
       557       580       582       583       557       580       582       587
       558       557       559       560       558       557       559       561
       558       557       559       569       558       557       580       577
       558       557       580       581       558       557       580       582
       559       557       580       577       559       557       580       581
       559       557       580       582       559       561       564       565
       559       561       564       566       559       561       564       567
       559       569       567       564       559       569       567       568
       559       569       567       593       559       569       570       571
       559       569       570       572       559       569       570       573
       559       569       574       575       559       569       574       576
       559       569       574       577       560       559       557       580
       560       559       561       562       560       559       561       563
       560       559       561       564       560       559       569       567
       560       559       569       570       560       559       569       574
       561       559       557       580       561       559       569       567
       561       559       569       570       561       559       569       574
       561       564       567       568       561       564       567       569
       561       564       567       593       562       561       559       569
       562       561       564       565       562       561       564       566
       562       561       564       567       563       561       559       569
       563       561       564       565       563       561       564       566
       563       561       564       567       564       561       559       569
       564       567       569       570       564       567       569       574
       564       567       593       594       564       567       593       595
       564       567       593       599       565       564       567       568
       565       564       567       569       565       564       567       593
       566       564       567       568       566       564       567       569
       566       564       567       593       567       569       570       571
       567       569       570       572       567       569       570       573
       567       569       574       575       567       569       574       576
       567       569       574       577       567       593       595       596
       567       593       595       597       567       593       595       598
       567       593       599       600       567       593       599       601
       567       593       599       602       568       567       569       570
       568       567       569       574       568       567       593       594
       568       567       593       595       568       567       593       599
       569       559       557       580       569       567       593       594
       569       567       593       595       569       567       593       599
       569       574       577       578       569       574       577       579
       569       574       577       580       570       569       567       593
       570       569       574       575       570       569       574       576
       570       569       574       577       571       570       569       574
       572       570       569       574       573       570       569       574
       574       569       567       593       574       577       580       581
       574       577       580       582       575       574       577       578
       575       574       577       579       575       574       577       580
       576       574       577       578       576       574       577       579
       576       574       577       580       577       580       582       583
       577       580       582       587       578       577       580       581
       578       577       580       582       579       577       580       581
       579       577       580       582       580       582       583       584
       580       582       583       585       580       582       583       586
       580       582       587       588       580       582       587       589
       580       582       587       590       581       580       582       583
       581       580       582       587       582       587       590       591
       582       587       590       592       583       582       587       588
       583       582       587       589       583       582       587       590
       584       583       582       587       585       583       582       587
       586       583       582       587       588       587       590       591
       588       587       590       592       589       587       590       591
       589       587       590       592       593       599       602       603
       593       599       602       604       593       599       602       605
       594       593       595       596       594       593       595       597
       594       593       595       598       594       593       599       600
       594       593       599       601       594       593       599       602
       595       593       599       600       595       593       599       601
       595       593       599       602       596       595       593       599
       597       595       593       599       598       595       593       599
       599       602       605       606       599       602       605       607
       599       602       605       608       600       599       602       603
       600       599       602       604       600       599       602       605
       601       599       602       603       601       599       602       604
       601       599       602       605       602       605       608       609
       602       605       608       610       602       605       608       614
       603       602       605       606       603       602       605       607
       603       602       605       608       604       602       605       606
       604       602       605       607       604       602       605       608
       605       608       610       611       605       608       610       612
       605       608       610       613       605       608       614       615
       605       608       614       616       605       608       614       617
       606       605       608       609       606       605       608       610
       606       605       608       614       607       605       608       609
       607       605       608       610       607       605       608       614
       609       608       610       611       609       608       610       612
       609       608       610       613       609       608       614       615
       609       608       614       616       609       608       614       617
       610       608       614       615       610       608       614       616
       610       608       614       617       611       610       608       614
       612       610       608       614       613       610       608       614
       618       622       625       626       618       622       625       656
       618       664       661       656       618       664       661       662
       618       664       661       663       619       618       620       621
       619       618       622       623       619       618       622       624
       619       618       622       625       619       618       664       661
       619       618       664       665       619       618       664       666
       620       618       622       623       620       618       622       624
       620       618       622       625       620       618       664       661
       620       618       664       665       620       618       664       666
       621       620       618       622       621       620       618       664
       622       618       664       661       622       618       664       665
       622       618       664       666       622       625       626       627
       622       625       626       628       622       625       656       654
       622       625       656       657       622       625       656       661
       623       622       618       664       623       622       625       626
       623       622       625       656       624       622       618       664
       624       622       625       626       624       622       625       656
       625       622       618       664       625       626       628       629
       625       626       628       630       625       626       628       631
       625       656       654       631       625       656       654       651
       625       656       654       655       625       656       657       658
       625       656       657       659       625       656       657       660
       625       656       661       662       625       656       661       663
       625       656       661       664       626       625       656       654
       626       625       656       657       626       625       656       661
       626       628       631       632       626       628       631       633
       626       628       631       654       627       626       625       656
       627       626       628       629       627       626       628       630
       627       626       628       631       628       626       625       656
       628       631       633       634       628       631       633       635
       628       631       633       643       628       631       654       651
       628       631       654       655       628       631       654       656
       629       628       631       632       629       628       631       633
       629       628       631       654       630       628       631       632
       630       628       631       633       630       628       631       654
       631       633       635       636       631       633       635       637
       631       633       635       638       631       633       643       641
       631       633       643       644       631       633       643       648
       631       654       651       648       631       654       651       652
       631       654       651       653       631       654       656       657
       631       654       656       661       632       631       633       634
       632       631       633       635       632       631       633       643
       632       631       654       651       632       631       654       655
       632       631       654       656       633       631       654       651
       633       631       654       655       633       631       654       656
       633       635       638       639       633       635       638       640
       633       635       638       641       633       643       641       638
       633       643       641       642       633       643       641       667
       633       643       644       645       633       643       644       646
       633       643       644       647       633       643       648       649
       633       643       648       650       633       643       648       651
       634       633       631       654       634       633       635       636
       634       633       635       637       634       633       635       638
       634       633       643       641       634       633       643       644
       634       633       643       648       635       633       631       654
       635       633       643       641       635       633       643       644
       635       633       643       648       635       638       641       642
       635       638       641       643       635       638       641       667
       636       635       633       643       636       635       638       639
       636       635       638       640       636       635       638       641
       637       635       633       643       637       635       638       639
       637       635       638       640       637       635       638       641
       638       635       633       643       638       641       643       644
       638       641       643       648       638       641       667       668
       638       641       667       669       638       641       667       673
       639       638       641       642       639       638       641       643
       639       638       641       667       640       638       641       642
       640       638       641       643       640       638       641       667
       641       643       644       645       641       643       644       646
       641       643       644       647       641       643       648       649
       641       643       648       650       641       643       648       651
       641       667       669       670       641       667       669       671
       641       667       669       672       641       667       673       674
       641       667       673       675       641       667       673       676
       642       641       643       644       642       641       643       648
       642       641       667       668       642       641       667       669
       642       641       667       673       643       633       631       654
       643       641       667       668       643       641       667       669
       643       641       667       673       643       648       651       652
       643       648       651       653       643       648       651       654
       644       643       641       667       644       643       648       649
       644       643       648       650       644       643       648       651
       645       644       643       648       646       644       643       648
       647       644       643       648       648       643       641       667
       648       651       654       655       648       651       654       656
       649       648       651       652       649       648       651       653
       649       648       651       654       650       648       651       652
       650       648       651       653       650       648       651       654
       651       654       656       657       651       654       656       661
       652       651       654       655       652       651       654       656
       653       651       654       655       653       651       654       656
       654       656       657       658       654       656       657       659
       654       656       657       660       654       656       661       662
       654       656       661       663       654       656       661       664
       655       654       656       657       655       654       656       661
       656       661       664       665       656       661       664       666
       657       656       661       662       657       656       661       663
       657       656       661       664       658       657       656       661
       659       657       656       661       660       657       656       661
       662       661       664       665       662       661       664       666
       663       661       664       665       663       661       664       666
       667       673       676       677       667       673       676       678
       667       673       676       679       668       667       669       670
       668       667       669       671       668       667       669       672
       668       667       673       674       668       667       673       675
       668       667       673       676       669       667       673       674
       669       667       673       675       669       667       673       676
       670       669       667       673       671       669       667       673
       672       669       667       673       673       676       679       680
       673       676       679       681       673       676       679       682
       674       673       676       677       674       673       676       678
       674       673       676       679       675       673       676       677
       675       673       676       678       675       673       676       679
       676       679       682       683       676       679       682       684
       676       679       682       688       677       676       679       680
       677       676       679       681       677       676       679       682
       678       676       679       680       678       676       679       681
       678       676       679       682       679       682       684       685
       679       682       684       686       679       682       684       687
       679       682       688       689       679       682       688       690
       679       682       688       691       680       679       682       683
       680       679       682       684       680       679       682       688
       681       679       682       683       681       679       682       684
       681       679       682       688       683       682       684       685
       683       682       684       686       683       682       684       687
       683       682       688       689       683       682       688       690
       683       682       688       691       684       682       688       689
       684       682       688       690       684       682       688       691
       685       684       682       688       686       684       682       688
       687       684       682       688       692       696       699       700
       692       696       699       730       692       738       735       730
       692       738       735       736       692       738       735       737
       693       692       694       695       693       692       696       697
       693       692       696       698       693       692       696       699
       693       692       738       735       693       692       738       739
       693       692       738       740       694       692       696       697
       694       692       696       698       694       692       696       699
       694       692       738       735       694       692       738       739
       694       692       738       740       695       694       692       696
       695       694       692       738       696       692       738       735
       696       692       738       739       696       692       738       740
       696       699       700       701       696       699       700       702
       696       699       730       728       696       699       730       731
       696       699       730       735       697       696       692       738
       697       696       699       700       697       696       699       730
       698       696       692       738       698       696       699       700
       698       696       699       730       699       696       692       738
       699       700       702       703       699       700       702       704
       699       700       702       705       699       730       728       705
       699       730       728       725       699       730       728       729
       699       730       731       732       699       730       731       733
       699       730       731       734       699       730       735       736
       699       730       735       737       699       730       735       738
       700       699       730       728       700       699       730       731
       700       699       730       735       700       702       705       706
       700       702       705       707       700       702       705       728
       701       700       699       730       701       700       702       703
       701       700       702       704       701       700       702       705
       702       700       699       730       702       705       707       708
       702       705       707       709       702       705       707       717
       702       705       728       725       702       705       728       729
       702       705       728       730       703       702       705       706
       703       702       705       707       703       702       705       728
       704       702       705       706       704       702       705       707
       704       702       705       728       705       707       709       710
       705       707       709       711       705       707       709       712
       705       707       717       715       705       707       717       718
       705       707       717       722       705       728       725       722
       705       728       725       726       705       728       725       727
       705       728       730       731       705       728       730       735
       706       705       707       708       706       705       707       709
       706       705       707       717       706       705       728       725
       706       705       728       729       706       705       728       730
       707       705       728       725       707       705       728       729
       707       705       728       730       707       709       712       713
       707       709       712       714       707       709       712       715
       707       717       715       712       707       717       715       716
       707       717       715       741       707       717       718       719
       707       717       718       720       707       717       718       721
       707       717       722       723       707       717       722       724
       707       717       722       725       708       707       705       728
       708       707       709       710       708       707       709       711
       708       707       709       712       708       707       717       715
       708       707       717       718       708       707       717       722
       709       707       705       728       709       707       717       715
       709       707       717       718       709       707       717       722
       709       712       715       716       709       712       715       717
       709       712       715       741       710       709       707       717
       710       709       712       713       710       709       712       714
       710       709       712       715       711       709       707       717
       711       709       712       713       711       709       712       714
       711       709       712       715       712       709       707       717
       712       715       717       718       712       715       717       722
       712       715       741       742       712       715       741       743
       712       715       741       747       713       712       715       716
       713       712       715       717       713       712       715       741
       714       712       715       716       714       712       715       717
       714       712       715       741       715       717       718       719
       715       717       718       720       715       717       718       721
       715       717       722       723       715       717       722       724
       715       717       722       725       715       741       743       744
       715       741       743       745       715       741       743       746
       715       741       747       748       715       741       747       749
       715       741       747       750       716       715       717       718
       716       715       717       722       716       715       741       742
       716       715       741       743       716       715       741       747
       717       707       705       728       717       715       741       742
       717       715       741       743       717       715       741       747
       717       722       725       726       717       722       725       727
       717       722       725       728       718       717       715       741
       718       717       722       723       718       717       722       724
       718       717       722       725       719       718       717       722
       720       718       717       722       721       718       717       722
       722       717       715       741       722       725       728       729
       722       725       728       730       723       722       725       726
       723       722       725       727       723       722       725       728
       724       722       725       726       724       722       725       727
       724       722       725       728       725       728       730       731
       725       728       730       735       726       725       728       729
       726       725       728       730       727       725       728       729
       727       725       728       730       728       730       731       732
       728       730       731       733       728       730       731       734
       728       730       735       736       728       730       735       737
       728       730       735       738       729       728       730       731
       729       728       730       735       730       735       738       739
       730       735       738       740       731       730       735       736
       731       730       735       737       731       730       735       738
       732       731       730       735       733       731       730       735
       734       731       730       735       736       735       738       739
       736       735       738       740       737       735       738       739
       737       735       738       740       741       747       750       751
       741       747       750       752       741       747       750       753
       742       741       743       744       742       741       743       745
       742       741       743       746       742       741       747       748
       742       741       747       749       742       741       747       750
       743       741       747       748       743       741       747       749
       743       741       747       750       744       743       741       747
       745       743       741       747       746       743       741       747
       747       750       753       754       747       750       753       755
       747       750       753       756       748       747       750       751
       748       747       750       752       748       747       750       753
       749       747       750       751       749       747       750       752
       749       747       750       753       750       753       756       757
       750       753       756       758       750       753       756       762
       751       750       753       754       751       750       753       755
       751       750       753       756       752       750       753       754
       752       750       753       755       752       750       753       756
       753       756       758       759       753       756       758       760
       753       756       758       761       753       756       762       763
       753       756       762       764       753       756       762       765
       754       753       756       757       754       753       756       758
       754       753       756       762       755       753       756       757
       755       753       756       758       755       753       756       762
       757       756       758       759       757       756       758       760
       757       756       758       761       757       756       762       763
       757       756       762       764       757       756       762       765
       758       756       762       763       758       756       762       764
       758       756       762       765       759       758       756       762
       760       758       756       762       761       758       756       762
       766       770       773       774       766       770       773       804
       766       812       809       804       766       812       809       810
       766       812       809       811       767       766       768       769
       767       766       770       771       767       766       770       772
       767       766       770       773       767       766       812       809
       767       766       812       813       767       766       812       814
       768       766       770       771       768       766       770       772
       768       766       770       773       768       766       812       809
       768       766       812       813       768       766       812       814
       769       768       766       770       769       768       766       812
       770       766       812       809       770       766       812       813
       770       766       812       814       770       773       774       775
       770       773       774       776       770       773       804       802
       770       773       804       805       770       773       804       809
       771       770       766       812       771       770       773       774
       771       770       773       804       772       770       766       812
       772       770       773       774       772       770       773       804
       773       770       766       812       773       774       776       777
       773       774       776       778       773       774       776       779
       773       804       802       779       773       804       802       799
       773       804       802       803       773       804       805       806
       773       804       805       807       773       804       805       808
       773       804       809       810       773       804       809       811
       773       804       809       812       774       773       804       802
       774       773       804       805       774       773       804       809
       774       776       779       780       774       776       779       781
       774       776       779       802       775       774       773       804
       775       774       776       777       775       774       776       778
       775       774       776       779       776       774       773       804
       776       779       781       782       776       779       781       783
       776       779       781       791       776       779       802       799
       776       779       802       803       776       779       802       804
       777       776       779       780       777       776       779       781
       777       776       779       802       778       776       779       780
       778       776       779       781       778       776       779       802
       779       781       783       784       779       781       783       785
       779       781       783       786       779       781       791       789
       779       781       791       792       779       781       791       796
       779       802       799       796       779       802       799       800
       779       802       799       801       779       802       804       805
       779       802       804       809       780       779       781       782
       780       779       781       783       780       779       781       791
       780       779       802       799       780       779       802       803
       780       779       802       804       781       779       802       799
       781       779       802       803       781       779       802       804
       781       783       786       787       781       783       786       788
       781       783       786       789       781       791       789       786
       781       791       789       790       781       791       789       815
       781       791       792       793       781       791       792       794
       781       791       792       795       781       791       796       797
       781       791       796       798       781       791       796       799
       782       781       779       802       782       781       783       784
       782       781       783       785       782       781       783       786
       782       781       791       789       782       781       791       792
       782       781       791       796       783       781       779       802
       783       781       791       789       783       781       791       792
       783       781       791       796       783       786       789       790
       783       786       789       791       783       786       789       815
       784       783       781       791       784       783       786       787
       784       783       786       788       784       783       786       789
       785       783       781       791       785       783       786       787
       785       783       786       788       785       783       786       789
       786       783       781       791       786       789       791       792
       786       789       791       796       786       789       815       816
       786       789       815       817       786       789       815       821
       787       786       789       790       787       786       789       791
       787       786       789       815       788       786       789       790
       788       786       789       791       788       786       789       815
       789       791       792       793       789       791       792       794
       789       791       792       795       789       791       796       797
       789       791       796       798       789       791       796       799
       789       815       817       818       789       815       817       819
       789       815       817       820       789       815       821       822
       789       815       821       823       789       815       821       824
       790       789       791       792       790       789       791       796
       790       789       815       816       790       789       815       817
       790       789       815       821       791       781       779       802
       791       789       815       816       791       789       815       817
       791       789       815       821       791       796       799       800
       791       796       799       801       791       796       799       802
       792       791       789       815       792       791       796       797
       792       791       796       798       792       791       796       799
       793       792       791       796       794       792       791       796
       795       792       791       796       796       791       789       815
       796       799       802       803       796       799       802       804
       797       796       799       800       797       796       799       801
       797       796       799       802       798       796       799       800
       798       796       799       801       798       796       799       802
       799       802       804       805       799       802       804       809
       800       799       802       803       800       799       802       804
       801       799       802       803       801       799       802       804
       802       804       805       806       802       804       805       807
       802       804       805       808       802       804       809       810
       802       804       809       811       802       804       809       812
       803       802       804       805       803       802       804       809
       804       809       812       813       804       809       812       814
       805       804       809       810       805       804       809       811
       805       804       809       812       806       805       804       809
       807       805       804       809       808       805       804       809
       810       809       812       813       810       809       812       814
       811       809       812       813       811       809       812       814
       815       821       824       825       815       821       824       826
       815       821       824       827       816       815       817       818
       816       815       817       819       816       815       817       820
       816       815       821       822       816       815       821       823
       816       815       821       824       817       815       821       822
       817       815       821       823       817       815       821       824
       818       817       815       821       819       817       815       821
       820       817       815       821       821       824       827       828
       821       824       827       829       821       824       827       830
       822       821       824       825       822       821       824       826
       822       821       824       827       823       821       824       825
       823       821       824       826       823       821       824       827
       824       827       830       831       824       827       830       832
       824       827       830       836       825       824       827       828
       825       824       827       829       825       824       827       830
       826       824       827       828       826       824       827       829
       826       824       827       830       827       830       832       833
       827       830       832       834       827       830       832       835
       827       830       836       837       827       830       836       838
       827       830       836       839       828       827       830       831
       828       827       830       832       828       827       830       836
       829       827       830       831       829       827       830       832
       829       827       830       836       831       830       832       833
       831       830       832       834       831       830       832       835
       831       830       836       837       831       830       836       838
       831       830       836       839       832       830       836       837
       832       830       836       838       832       830       836       839
       833       832       830       836       834       832       830       836
       835       832       830       836       840       844       847       848
       840       844       847       878       840       886       883       878
       840       886       883       884       840       886       883       885
       841       840       842       843       841       840       844       845
       841       840       844       846       841       840       844       847
       841       840       886       883       841       840       886       887
       841       840       886       888       842       840       844       845
       842       840       844       846       842       840       844       847
       842       840       886       883       842       840       886       887
       842       840       886       888       843       842       840       844
       843       842       840       886       844       840       886       883
       844       840       886       887       844       840       886       888
       844       847       848       849       844       847       848       850
       844       847       878       876       844       847       878       879
       844       847       878       883       845       844       840       886
       845       844       847       848       845       844       847       878
       846       844       840       886       846       844       847       848
       846       844       847       878       847       844       840       886
       847       848       850       851       847       848       850       852
       847       848       850       853       847       878       876       853
       847       878       876       873       847       878       876       877
       847       878       879       880       847       878       879       881
       847       878       879       882       847       878       883       884
       847       878       883       885       847       878       883       886
       848       847       878       876       848       847       878       879
       848       847       878       883       848       850       853       854
       848       850       853       855       848       850       853       876
       849       848       847       878       849       848       850       851
       849       848       850       852       849       848       850       853
       850       848       847       878       850       853       855       856
       850       853       855       857       850       853       855       865
       850       853       876       873       850       853       876       877
       850       853       876       878       851       850       853       854
       851       850       853       855       851       850       853       876
       852       850       853       854       852       850       853       855
       852       850       853       876       853       855       857       858
       853       855       857       859       853       855       857       860
       853       855       865       863       853       855       865       866
       853       855       865       870       853       876       873       870
       853       876       873       874       853       876       873       875
       853       876       878       879       853       876       878       883
       854       853       855       856       854       853       855       857
       854       853       855       865       854       853       876       873
       854       853       876       877       854       853       876       878
       855       853       876       873       855       853       876       877
       855       853       876       878       855       857       860       861
       855       857       860       862       855       857       860       863
       855       865       863       860       855       865       863       864
       855       865       863       889       855       865       866       867
       855       865       866       868       855       865       866       869
       855       865       870       871       855       865       870       872
       855       865       870       873       856       855       853       876
       856       855       857       858       856       855       857       859
       856       855       857       860       856       855       865       863
       856       855       865       866       856       855       865       870
       857       855       853       876       857       855       865       863
       857       855       865       866       857       855       865       870
       857       860       863       864       857       860       863       865
       857       860       863       889       858       857       855       865
       858       857       860       861       858       857       860       862
       858       857       860       863       859       857       855       865
       859       857       860       861       859       857       860       862
       859       857       860       863       860       857       855       865
       860       863       865       866       860       863       865       870
       860       863       889       890       860       863       889       891
       860       863       889       895       861       860       863       864
       861       860       863       865       861       860       863       889
       862       860       863       864       862       860       863       865
       862       860       863       889       863       865       866       867
       863       865       866       868       863       865       866       869
       863       865       870       871       863       865       870       872
       863       865       870       873       863       889       891       892
       863       889       891       893       863       889       891       894
       863       889       895       896       863       889       895       897
       863       889       895       898       864       863       865       866
       864       863       865       870       864       863       889       890
       864       863       889       891       864       863       889       895
       865       855       853       876       865       863       889       890
       865       863       889       891       865       863       889       895
       865       870       873       874       865       870       873       875
       865       870       873       876       866       865       863       889
       866       865       870       871       866       865       870       872
       866       865       870       873       867       866       865       870
       868       866       865       870       869       866       865       870
       870       865       863       889       870       873       876       877
       870       873       876       878       871       870       873       874
       871       870       873       875       871       870       873       876
       872       870       873       874       872       870       873       875
       872       870       873       876       873       876       878       879
       873       876       878       883       874       873       876       877
       874       873       876       878       875       873       876       877
       875       873       876       878       876       878       879       880
       876       878       879       881       876       878       879       882
       876       878       883       884       876       878       883       885
       876       878       883       886       877       876       878       879
       877       876       878       883       878       883       886       887
       878       883       886       888       879       878       883       884
       879       878       883       885       879       878       883       886
       880       879       878       883       881       879       878       883
       882       879       878       883       884       883       886       887
       884       883       886       888       885       883       886       887
       885       883       886       888       889       895       898       899
       889       895       898       900       889       895       898       901
       890       889       891       892       890       889       891       893
       890       889       891       894       890       889       895       896
       890       889       895       897       890       889       895       898
       891       889       895       896       891       889       895       897
       891       889       895       898       892       891       889       895
       893       891       889       895       894       891       889       895
       895       898       901       902       895       898       901       903
       895       898       901       904       896       895       898       899
       896       895       898       900       896       895       898       901
       897       895       898       899       897       895       898       900
       897       895       898       901       898       901       904       905
       898       901       904       906       898       901       904       910
       899       898       901       902       899       898       901       903
       899       898       901       904       900       898       901       902
       900       898       901       903       900       898       901       904
       901       904       906       907       901       904       906       908
       901       904       906       909       901       904       910       911
       901       904       910       912       901       904       910       913
       902       901       904       905       902       901       904       906
       902       901       904       910       903       901       904       905
       903       901       904       906       903       901       904       910
       905       904       906       907       905       904       906       908
       905       904       906       909       905       904       910       911
       905       904       910       912       905       904       910       913
       906       904       910       911       906       904       910       912
       906       904       910       913       907       906       904       910
       908       906       904       910       909       906       904       910
       914       918       921       922       914       918       921       952
       914       960       957       952       914       960       957       958
       914       960       957       959       915       914       916       917
       915       914       918       919       915       914       918       920
       915       914       918       921       915       914       960       957
       915       914       960       961       915       914       960       962
       916       914       918       919       916       914       918       920
       916       914       918       921       916       914       960       957
       916       914       960       961       916       914       960       962
       917       916       914       918       917       916       914       960
       918       914       960       957       918       914       960       961
       918       914       960       962       918       921       922       923
       918       921       922       924       918       921       952       950
       918       921       952       953       918       921       952       957
       919       918       914       960       919       918       921       922
       919       918       921       952       920       918       914       960
       920       918       921       922       920       918       921       952
       921       918       914       960       921       922       924       925
       921       922       924       926       921       922       924       927
       921       952       950       927       921       952       950       947
       921       952       950       951       921       952       953       954
       921       952       953       955       921       952       953       956
       921       952       957       958       921       952       957       959
       921       952       957       960       922       921       952       950
       922       921       952       953       922       921       952       957
       922       924       927       928       922       924       927       929
       922       924       927       950       923       922       921       952
       923       922       924       925       923       922       924       926
       923       922       924       927       924       922       921       952
       924       927       929       930       924       927       929       931
       924       927       929       939       924       927       950       947
       924       927       950       951       924       927       950       952
       925       924       927       928       925       924       927       929
       925       924       927       950       926       924       927       928
       926       924       927       929       926       924       927       950
       927       929       931       932       927       929       931       933
       927       929       931       934       927       929       939       937
       927       929       939       940       927       929       939       944
       927       950       947       944       927       950       947       948
       927       950       947       949       927       950       952       953
       927       950       952       957       928       927       929       930
       928       927       929       931       928       927       929       939
       928       927       950       947       928       927       950       951
       928       927       950       952       929       927       950       947
       929       927       950       951       929       927       950       952
       929       931       934       935       929       931       934       936
       929       931       934       937       929       939       937       934
       929       939       937       938       929       939       937       963
       929       939       940       941       929       939       940       942
       929       939       940       943       929       939       944       945
       929       939       944       946       929       939       944       947
       930       929       927       950       930       929       931       932
       930       929       931       933       930       929       931       934
       930       929       939       937       930       929       939       940
       930       929       939       944       931       929       927       950
       931       929       939       937       931       929       939       940
       931       929       939       944       931       934       937       938
       931       934       937       939       931       934       937       963
       932       931       929       939       932       931       934       935
       932       931       934       936       932       931       934       937
       933       931       929       939       933       931       934       935
       933       931       934       936       933       931       934       937
       934       931       929       939       934       937       939       940
       934       937       939       944       934       937       963       964
       934       937       963       965       934       937       963       969
       935       934       937       938       935       934       937       939
       935       934       937       963       936       934       937       938
       936       934       937       939       936       934       937       963
       937       939       940       941       937       939       940       942
       937       939       940       943       937       939       944       945
       937       939       944       946       937       939       944       947
       937       963       965       966       937       963       965       967
       937       963       965       968       937       963       969       970
       937       963       969       971       937       963       969       972
       938       937       939       940       938       937       939       944
       938       937       963       964       938       937       963       965
       938       937       963       969       939       929       927       950
       939       937       963       964       939       937       963       965
       939       937       963       969       939       944       947       948
       939       944       947       949       939       944       947       950
       940       939       937       963       940       939       944       945
       940       939       944       946       940       939       944       947
       941       940       939       944       942       940       939       944
       943       940       939       944       944       939       937       963
       944       947       950       951       944       947       950       952
       945       944       947       948       945       944       947       949
       945       944       947       950       946       944       947       948
       946       944       947       949       946       944       947       950
       947       950       952       953       947       950       952       957
       948       947       950       951       948       947       950       952
       949       947       950       951       949       947       950       952
       950       952       953       954       950       952       953       955
       950       952       953       956       950       952       957       958
       950       952       957       959       950       952       957       960
       951       950       952       953       951       950       952       957
       952       957       960       961       952       957       960       962
       953       952       957       958       953       952       957       959
       953       952       957       960       954       953       952       957
       955       953       952       957       956       953       952       957
       958       957       960       961       958       957       960       962
       959       957       960       961       959       957       960       962
       963       969       972       973       963       969       972       974
       963       969       972       975       964       963       965       966
       964       963       965       967       964       963       965       968
       964       963       969       970       964       963       969       971
       964       963       969       972       965       963       969       970
       965       963       969       971       965       963       969       972
       966       965       963       969       967       965       963       969
       968       965       963       969       969       972       975       976
       969       972       975       977       969       972       975       978
       970       969       972       973       970       969       972       974
       970       969       972       975       971       969       972       973
       971       969       972       974       971       969       972       975
       972       975       978       979       972       975       978       980
       972       975       978       984       973       972       975       976
       973       972       975       977       973       972       975       978
       974       972       975       976       974       972       975       977
       974       972       975       978       975       978       980       981
       975       978       980       982       975       978       980       983
       975       978       984       985       975       978       984       986
       975       978       984       987       976       975       978       979
       976       975       978       980       976       975       978       984
       977       975       978       979       977       975       978       980
       977       975       978       984       979       978       980       981
       979       978       980       982       979       978       980       983
       979       978       984       985       979       978       984       986
       979       978       984       987       980       978       984       985
       980       978       984       986       980       978       984       987
       981       980       978       984       982       980       978       984
       983       980       978       984       988       992       995       996
       988       992       995      1026       988      1034      1031      1026
       988      1034      1031      1032       988      1034      1031      1033
       989       988       990       991       989       988       992       993
       989       988       992       994       989       988       992       995
       989       988      1034      1031       989       988      1034      1035
       989       988      1034      1036       990       988       992       993
       990       988       992       994       990       988       992       995
       990       988      1034      1031       990       988      1034      1035
       990       988      1034      1036       991       990       988       992
       991       990       988      1034       992       988      1034      1031
       992       988      1034      1035       992       988      1034      1036
       992       995       996       997       992       995       996       998
       992       995      1026      1024       992       995      1026      1027
       992       995      1026      1031       993       992       988      1034
       993       992       995       996       993       992       995      1026
       994       992       988      1034       994       992       995       996
       994       992       995      1026       995       992       988      1034
       995       996       998       999       995       996       998      1000
       995       996       998      1001       995      1026      1024      1001
       995      1026      1024      1021       995      1026      1024      1025
       995      1026      1027      1028       995      1026      1027      1029
       995      1026      1027      1030       995      1026      1031      1032
       995      1026      1031      1033       995      1026      1031      1034
       996       995      1026      1024       996       995      1026      1027
       996       995      1026      1031       996       998      1001      1002
       996       998      1001      1003       996       998      1001      1024
       997       996       995      1026       997       996       998       999
       997       996       998      1000       997       996       998      1001
       998       996       995      1026       998      1001      1003      1004
       998      1001      1003      1005       998      1001      1003      1013
       998      1001      1024      1021       998      1001      1024      1025
       998      1001      1024      1026       999       998      1001      1002
       999       998      1001      1003       999       998      1001      1024
      1000       998      1001      1002      1000       998      1001      1003
      1000       998      1001      1024      1001      1003      1005      1006
      1001      1003      1005      1007      1001      1003      1005      1008
      1001      1003      1013      1011      1001      1003      1013      1014
      1001      1003      1013      1018      1001      1024      1021      1018
      1001      1024      1021      1022      1001      1024      1021      1023
      1001      1024      1026      1027      1001      1024      1026      1031
      1002      1001      1003      1004      1002      1001      1003      1005
      1002      1001      1003      1013      1002      1001      1024      1021
      1002      1001      1024      1025      1002      1001      1024      1026
      1003      1001      1024      1021      1003      1001      1024      1025
      1003      1001      1024      1026      1003      1005      1008      1009
      1003      1005      1008      1010      1003      1005      1008      1011
      1003      1013      1011      1008      1003      1013      1011      1012
      1003      1013      1011      1037      1003      1013      1014      1015
      1003      1013      1014      1016      1003      1013      1014      1017
      1003      1013      1018      1019      1003      1013      1018      1020
      1003      1013      1018      1021      1004      1003      1001      1024
      1004      1003      1005      1006      1004      1003      1005      1007
      1004      1003      1005      1008      1004      1003      1013      1011
      1004      1003      1013      1014      1004      1003      1013      1018
      1005      1003      1001      1024      1005      1003      1013      1011
      1005      1003      1013      1014      1005      1003      1013      1018
      1005      1008      1011      1012      1005      1008      1011      1013
      1005      1008      1011      1037      1006      1005      1003      1013
      1006      1005      1008      1009      1006      1005      1008      1010
      1006      1005      1008      1011      1007      1005      1003      1013
      1007      1005      1008      1009      1007      1005      1008      1010
      1007      1005      1008      1011      1008      1005      1003      1013
      1008      1011      1013      1014      1008      1011      1013      1018
      1008      1011      1037      1038      1008      1011      1037      1039
      1008      1011      1037      1043      1009      1008      1011      1012
      1009      1008      1011      1013      1009      1008      1011      1037
      1010      1008      1011      1012      1010      1008      1011      1013
      1010      1008      1011      1037      1011      1013      1014      1015
      1011      1013      1014      1016      1011      1013      1014      1017
      1011      1013      1018      1019      1011      1013      1018      1020
      1011      1013      1018      1021      1011      1037      1039      1040
      1011      1037      1039      1041      1011      1037      1039      1042
      1011      1037      1043      1044      1011      1037      1043      1045
      1011      1037      1043      1046      1012      1011      1013      1014
      1012      1011      1013      1018      1012      1011      1037      1038
      1012      1011      1037      1039      1012      1011      1037      1043
      1013      1003      1001      1024      1013      1011      1037      1038
      1013      1011      1037      1039      1013      1011      1037      1043
      1013      1018      1021      1022      1013      1018      1021      1023
      1013      1018      1021      1024      1014      1013      1011      1037
      1014      1013      1018      1019      1014      1013      1018      1020
      1014      1013      1018      1021      1015      1014      1013      1018
      1016      1014      1013      1018      1017      1014      1013      1018
      1018      1013      1011      1037      1018      1021      1024      1025
      1018      1021      1024      1026      1019      1018      1021      1022
      1019      1018      1021      1023      1019      1018      1021      1024
      1020      1018      1021      1022      1020      1018      1021      1023
      1020      1018      1021      1024      1021      1024      1026      1027
      1021      1024      1026      1031      1022      1021      1024      1025
      1022      1021      1024      1026      1023      1021      1024      1025
      1023      1021      1024      1026      1024      1026      1027      1028
      1024      1026      1027      1029      1024      1026      1027      1030
      1024      1026      1031      1032      1024      1026      1031      1033
      1024      1026      1031      1034      1025      1024      1026      1027
      1025      1024      1026      1031      1026      1031      1034      1035
      1026      1031      1034      1036      1027      1026      1031      1032
      1027      1026      1031      1033      1027      1026      1031      1034
      1028      1027      1026      1031      1029      1027      1026      1031
      1030      1027      1026      1031      1032      1031      1034      1035
      1032      1031      1034      1036      1033      1031      1034      1035
      1033      1031      1034      1036      1037      1043      1046      1047
      1037      1043      1046      1048      1037      1043      1046      1049
      1038      1037      1039      1040      1038      1037      1039      1041
      1038      1037      1039      1042      1038      1037      1043      1044
      1038      1037      1043      1045      1038      1037      1043      1046
      1039      1037      1043      1044      1039      1037      1043      1045
      1039      1037      1043      1046      1040      1039      1037      1043
      1041      1039      1037      1043      1042      1039      1037      1043
      1043      1046      1049      1050      1043      1046      1049      1051
      1043      1046      1049      1052      1044      1043      1046      1047
      1044      1043      1046      1048      1044      1043      1046      1049
      1045      1043      1046      1047      1045      1043      1046      1048
      1045      1043      1046      1049      1046      1049      1052      1053
      1046      1049      1052      1054      1046      1049      1052      1058
      1047      1046      1049      1050      1047      1046      1049      1051
      1047      1046      1049      1052      1048      1046      1049      1050
      1048      1046      1049      1051      1048      1046      1049      1052
      1049      1052      1054      1055      1049      1052      1054      1056
      1049      1052      1054      1057      1049      1052      1058      1059
      1049      1052      1058      1060      1049      1052      1058      1061
      1050      1049      1052      1053      1050      1049      1052      1054
      1050      1049      1052      1058      1051      1049      1052      1053
      1051      1049      1052      1054      1051      1049      1052      1058
      1053      1052      1054      1055      1053      1052      1054      1056
      1053      1052      1054      1057      1053      1052      1058      1059
      1053      1052      1058      1060      1053      1052      1058      1061
      1054      1052      1058      1059      1054      1052      1058      1060
      1054      1052      1058      1061      1055      1054      1052      1058
      1056      1054      1052      1058      1057      1054      1052      1058
      1062      1066      1069      1070      1062      1066      1069      1100
      1062      1108      1105      1100      1062      1108      1105      1106
      1062      1108      1105      1107      1063      1062      1064      1065
      1063      1062      1066      1067      1063      1062      1066      1068
      1063      1062      1066      1069      1063      1062      1108      1105
      1063      1062      1108      1109      1063      1062      1108      1110
      1064      1062      1066      1067      1064      1062      1066      1068
      1064      1062      1066      1069      1064      1062      1108      1105
      1064      1062      1108      1109      1064      1062      1108      1110
      1065      1064      1062      1066      1065      1064      1062      1108
      1066      1062      1108      1105      1066      1062      1108      1109
      1066      1062      1108      1110      1066      1069      1070      1071
      1066      1069      1070      1072      1066      1069      1100      1098
      1066      1069      1100      1101      1066      1069      1100      1105
      1067      1066      1062      1108      1067      1066      1069      1070
      1067      1066      1069      1100      1068      1066      1062      1108
      1068      1066      1069      1070      1068      1066      1069      1100
      1069      1066      1062      1108      1069      1070      1072      1073
      1069      1070      1072      1074      1069      1070      1072      1075
      1069      1100      1098      1075      1069      1100      1098      1095
      1069      1100      1098      1099      1069      1100      1101      1102
      1069      1100      1101      1103      1069      1100      1101      1104
      1069      1100      1105      1106      1069      1100      1105      1107
      1069      1100      1105      1108      1070      1069      1100      1098
      1070      1069      1100      1101      1070      1069      1100      1105
      1070      1072      1075      1076      1070      1072      1075      1077
      1070      1072      1075      1098      1071      1070      1069      1100
      1071      1070      1072      1073      1071      1070      1072      1074
      1071      1070      1072      1075      1072      1070      1069      1100
      1072      1075      1077      1078      1072      1075      1077      1079
      1072      1075      1077      1087      1072      1075      1098      1095
      1072      1075      1098      1099      1072      1075      1098      1100
      1073      1072      1075      1076      1073      1072      1075      1077
      1073      1072      1075      1098      1074      1072      1075      1076
      1074      1072      1075      1077      1074      1072      1075      1098
      1075      1077      1079      1080      1075      1077      1079      1081
      1075      1077      1079      1082      1075      1077      1087      1085
      1075      1077      1087      1088      1075      1077      1087      1092
      1075      1098      1095      1092      1075      1098      1095      1096
      1075      1098      1095      1097      1075      1098      1100      1101
      1075      1098      1100      1105      1076      1075      1077      1078
      1076      1075      1077      1079      1076      1075      1077      1087
      1076      1075      1098      1095      1076      1075      1098      1099
      1076      1075      1098      1100      1077      1075      1098      1095
      1077      1075      1098      1099      1077      1075      1098      1100
      1077      1079      1082      1083      1077      1079      1082      1084
      1077      1079      1082      1085      1077      1087      1085      1082
      1077      1087      1085      1086      1077      1087      1085      1111
      1077      1087      1088      1089      1077      1087      1088      1090
      1077      1087      1088      1091      1077      1087      1092      1093
      1077      1087      1092      1094      1077      1087      1092      1095
      1078      1077      1075      1098      1078      1077      1079      1080
      1078      1077      1079      1081      1078      1077      1079      1082
      1078      1077      1087      1085      1078      1077      1087      1088
      1078      1077      1087      1092      1079      1077      1075      1098
      1079      1077      1087      1085      1079      1077      1087      1088
      1079      1077      1087      1092      1079      1082      1085      1086
      1079      1082      1085      1087      1079      1082      1085      1111
      1080      1079      1077      1087      1080      1079      1082      1083
      1080      1079      1082      1084      1080      1079      1082      1085
      1081      1079      1077      1087      1081      1079      1082      1083
      1081      1079      1082      1084      1081      1079      1082      1085
      1082      1079      1077      1087      1082      1085      1087      1088
      1082      1085      1087      1092      1082      1085      1111      1112
      1082      1085      1111      1113      1082      1085      1111      1117
      1083      1082      1085      1086      1083      1082      1085      1087
      1083      1082      1085      1111      1084      1082      1085      1086
      1084      1082      1085      1087      1084      1082      1085      1111
      1085      1087      1088      1089      1085      1087      1088      1090
      1085      1087      1088      1091      1085      1087      1092      1093
      1085      1087      1092      1094      1085      1087      1092      1095
      1085      1111      1113      1114      1085      1111      1113      1115
      1085      1111      1113      1116      1085      1111      1117      1118
      1085      1111      1117      1119      1085      1111      1117      1120
      1086      1085      1087      1088      1086      1085      1087      1092
      1086      1085      1111      1112      1086      1085      1111      1113
      1086      1085      1111      1117      1087      1077      1075      1098
      1087      1085      1111      1112      1087      1085      1111      1113
      1087      1085      1111      1117      1087      1092      1095      1096
      1087      1092      1095      1097      1087      1092      1095      1098
      1088      1087      1085      1111      1088      1087      1092      1093
      1088      1087      1092      1094      1088      1087      1092      1095
      1089      1088      1087      1092      1090      1088      1087      1092
      1091      1088      1087      1092      1092      1087      1085      1111
      1092      1095      1098      1099      1092      1095      1098      1100
      1093      1092      1095      1096      1093      1092      1095      1097
      1093      1092      1095      1098      1094      1092      1095      1096
      1094      1092      1095      1097      1094      1092      1095      1098
      1095      1098      1100      1101      1095      1098      1100      1105
      1096      1095      1098      1099      1096      1095      1098      1100
      1097      1095      1098      1099      1097      1095      1098      1100
      1098      1100      1101      1102      1098      1100      1101      1103
      1098      1100      1101      1104      1098      1100      1105      1106
      1098      1100      1105      1107      1098      1100      1105      1108
      1099      1098      1100      1101      1099      1098      1100      1105
      1100      1105      1108      1109      1100      1105      1108      1110
      1101      1100      1105      1106      1101      1100      1105      1107
      1101      1100      1105      1108      1102      1101      1100      1105
      1103      1101      1100      1105      1104      1101      1100      1105
      1106      1105      1108      1109      1106      1105      1108      1110
      1107      1105      1108      1109      1107      1105      1108      1110
      1111      1117      1120      1121      1111      1117      1120      1122
      1111      1117      1120      1123      1112      1111      1113      1114
      1112      1111      1113      1115      1112      1111      1113      1116
      1112      1111      1117      1118      1112      1111      1117      1119
      1112      1111      1117      1120      1113      1111      1117      1118
      1113      1111      1117      1119      1113      1111      1117      1120
      1114      1113      1111      1117      1115      1113      1111      1117
      1116      1113      1111      1117      1117      1120      1123      1124
      1117      1120      1123      1125      1117      1120      1123      1126
      1118      1117      1120      1121      1118      1117      1120      1122
      1118      1117      1120      1123      1119      1117      1120      1121
      1119      1117      1120      1122      1119      1117      1120      1123
      1120      1123      1126      1127      1120      1123      1126      1128
      1120      1123      1126      1132      1121      1120      1123      1124
      1121      1120      1123      1125      1121      1120      1123      1126
      1122      1120      1123      1124      1122      1120      1123      1125
      1122      1120      1123      1126      1123      1126      1128      1129
      1123      1126      1128      1130      1123      1126      1128      1131
      1123      1126      1132      1133      1123      1126      1132      1134
      1123      1126      1132      1135      1124      1123      1126      1127
      1124      1123      1126      1128      1124      1123      1126      1132
      1125      1123      1126      1127      1125      1123      1126      1128
      1125      1123      1126      1132      1127      1126      1128      1129
      1127      1126      1128      1130      1127      1126      1128      1131
      1127      1126      1132      1133      1127      1126      1132      1134
      1127      1126      1132      1135      1128      1126      1132      1133
      1128      1126      1132      1134      1128      1126      1132      1135
      1129      1128      1126      1132      1130      1128      1126      1132
      1131      1128      1126      1132      1136      1140      1143      1144
      1136      1140      1143      1174      1136      1182      1179      1174
      1136      1182      1179      1180      1136      1182      1179      1181
      1137      1136      1138      1139      1137      1136      1140      1141
      1137      1136      1140      1142      1137      1136      1140      1143
      1137      1136      1182      1179      1137      1136      1182      1183
      1137      1136      1182      1184      1138      1136      1140      1141
      1138      1136      1140      1142      1138      1136      1140      1143
      1138      1136      1182      1179      1138      1136      1182      1183
      1138      1136      1182      1184      1139      1138      1136      1140
      1139      1138      1136      1182      1140      1136      1182      1179
      1140      1136      1182      1183      1140      1136      1182      1184
      1140      1143      1144      1145      1140      1143      1144      1146
      1140      1143      1174      1172      1140      1143      1174      1175
      1140      1143      1174      1179      1141      1140      1136      1182
      1141      1140      1143      1144      1141      1140      1143      1174
      1142      1140      1136      1182      1142      1140      1143      1144
      1142      1140      1143      1174      1143      1140      1136      1182
      1143      1144      1146      1147      1143      1144      1146      1148
      1143      1144      1146      1149      1143      1174      1172      1149
      1143      1174      1172      1169      1143      1174      1172      1173
      1143      1174      1175      1176      1143      1174      1175      1177
      1143      1174      1175      1178      1143      1174      1179      1180
      1143      1174      1179      1181      1143      1174      1179      1182
      1144      1143      1174      1172      1144      1143      1174      1175
      1144      1143      1174      1179      1144      1146      1149      1150
      1144      1146      1149      1151      1144      1146      1149      1172
      1145      1144      1143      1174      1145      1144      1146      1147
      1145      1144      1146      1148      1145      1144      1146      1149
      1146      1144      1143      1174      1146      1149      1151      1152
      1146      1149      1151      1153      1146      1149      1151      1161
      1146      1149      1172      1169      1146      1149      1172      1173
      1146      1149      1172      1174      1147      1146      1149      1150
      1147      1146      1149      1151      1147      1146      1149      1172
      1148      1146      1149      1150      1148      1146      1149      1151
      1148      1146      1149      1172      1149      1151      1153      1154
      1149      1151      1153      1155      1149      1151      1153      1156
      1149      1151      1161      1159      1149      1151      1161      1162
      1149      1151      1161      1166      1149      1172      1169      1166
      1149      1172      1169      1170      1149      1172      1169      1171
      1149      1172      1174      1175      1149      1172      1174      1179
      1150      1149      1151      1152      1150      1149      1151      1153
      1150      1149      1151      1161      1150      1149      1172      1169
      1150      1149      1172      1173      1150      1149      1172      1174
      1151      1149      1172      1169      1151      1149      1172      1173
      1151      1149      1172      1174      1151      1153      1156      1157
      1151      1153      1156      1158      1151      1153      1156      1159
      1151      1161      1159      1156      1151      1161      1159      1160
      1151      1161      1159      1185      1151      1161      1162      1163
      1151      1161      1162      1164      1151      1161      1162      1165
      1151      1161      1166      1167      1151      1161      1166      1168
      1151      1161      1166      1169      1152      1151      1149      1172
      1152      1151      1153      1154      1152      1151      1153      1155
      1152      1151      1153      1156      1152      1151      1161      1159
      1152      1151      1161      1162      1152      1151      1161      1166
      1153      1151      1149      1172      1153      1151      1161      1159
      1153      1151      1161      1162      1153      1151      1161      1166
      1153      1156      1159      1160      1153      1156      1159      1161
      1153      1156      1159      1185      1154      1153      1151      1161
      1154      1153      1156      1157      1154      1153      1156      1158
      1154      1153      1156      1159      1155      1153      1151      1161
      1155      1153      1156      1157      1155      1153      1156      1158
      1155      1153      1156      1159      1156      1153      1151      1161
      1156      1159      1161      1162      1156      1159      1161      1166
      1156      1159      1185      1186      1156      1159      1185      1187
      1156      1159      1185      1191      1157      1156      1159      1160
      1157      1156      1159      1161      1157      1156      1159      1185
      1158      1156      1159      1160      1158      1156      1159      1161
      1158      1156      1159      1185      1159      1161      1162      1163
      1159      1161      1162      1164      1159      1161      1162      1165
      1159      1161      1166      1167      1159      1161      1166      1168
      1159      1161      1166      1169      1159      1185      1187      1188
      1159      1185      1187      1189      1159      1185      1187      1190
      1159      1185      1191      1192      1159      1185      1191      1193
      1159      1185      1191      1194      1160      1159      1161      1162
      1160      1159      1161      1166      1160      1159      1185      1186
      1160      1159      1185      1187      1160      1159      1185      1191
      1161      1151      1149      1172      1161      1159      1185      1186
      1161      1159      1185      1187      1161      1159      1185      1191
      1161      1166      1169      1170      1161      1166      1169      1171
      1161      1166      1169      1172      1162      1161      1159      1185
      1162      1161      1166      1167      1162      1161      1166      1168
      1162      1161      1166      1169      1163      1162      1161      1166
      1164      1162      1161      1166      1165      1162      1161      1166
      1166      1161      1159      1185      1166      1169      1172      1173
      1166      1169      1172      1174      1167      1166      1169      1170
      1167      1166      1169      1171      1167      1166      1169      1172
      1168      1166      1169      1170      1168      1166      1169      1171
      1168      1166      1169      1172      1169      1172      1174      1175
      1169      1172      1174      1179      1170      1169      1172      1173
      1170      1169      1172      1174      1171      1169      1172      1173
      1171      1169      1172      1174      1172      1174      1175      1176
      1172      1174      1175      1177      1172      1174      1175      1178
      1172      1174      1179      1180      1172      1174      1179      1181
      1172      1174      1179      1182      1173      1172      1174      1175
      1173      1172      1174      1179      1174      1179      1182      1183
      1174      1179      1182      1184      1175      1174      1179      1180
      1175      1174      1179      1181      1175      1174      1179      1182
      1176      1175      1174      1179      1177      1175      1174      1179
      1178      1175      1174      1179      1180      1179      1182      1183
      1180      1179      1182      1184      1181      1179      1182      1183
      1181      1179      1182      1184      1185      1191      1194      1195
      1185      1191      1194      1196      1185      1191      1194      1197
      1186      1185      1187      1188      1186      1185      1187      1189
      1186      1185      1187      1190      1186      1185      1191      1192
      1186      1185      1191      1193      1186      1185      1191      1194
      1187      1185      1191      1192      1187      1185      1191      1193
      1187      1185      1191      1194      1188      1187      1185      1191
      1189      1187      1185      1191      1190      1187      1185      1191
      1191      1194      1197      1198      1191      1194      1197      1199
      1191      1194      1197      1200      1192      1191      1194      1195
      1192      1191      1194      1196      1192      1191      1194      1197
      1193      1191      1194      1195      1193      1191      1194      1196
      1193      1191      1194      1197      1194      1197      1200      1201
      1194      1197      1200      1202      1194      1197      1200      1206
      1195      1194      1197      1198      1195      1194      1197      1199
      1195      1194      1197      1200      1196      1194      1197      1198
      1196      1194      1197      1199      1196      1194      1197      1200
      1197      1200      1202      1203      1197      1200      1202      1204
      1197      1200      1202      1205      1197      1200      1206      1207
      1197      1200      1206      1208      1197      1200      1206      1209
      1198      1197      1200      1201      1198      1197      1200      1202
      1198      1197      1200      1206      1199      1197      1200      1201
      1199      1197      1200      1202      1199      1197      1200      1206
      1201      1200      1202      1203      1201      1200      1202      1204
      1201      1200      1202      1205      1201      1200      1206      1207
      1201      1200      1206      1208      1201      1200      1206      1209
      1202      1200      1206      1207      1202      1200      1206      1208
      1202      1200      1206      1209      1203      1202      1200      1206
      1204      1202      1200      1206      1205      1202      1200      1206
      1210      1214      1217      1218      1210      1214      1217      1248
      1210      1256      1253      1248      1210      1256      1253      1254
      1210      1256      1253      1255      1211      1210      1212      1213
      1211      1210      1214      1215      1211      1210      1214      1216
      1211      1210      1214      1217      1211      1210      1256      1253
      1211      1210      1256      1257      1211      1210      1256      1258
      1212      1210      1214      1215      1212      1210      1214      1216
      1212      1210      1214      1217      1212      1210      1256      1253
      1212      1210      1256      1257      1212      1210      1256      1258
      1213      1212      1210      1214      1213      1212      1210      1256
      1214      1210      1256      1253      1214      1210      1256      1257
      1214      1210      1256      1258      1214      1217      1218      1219
      1214      1217      1218      1220      1214      1217      1248      1246
      1214      1217      1248      1249      1214      1217      1248      1253
      1215      1214      1210      1256      1215      1214      1217      1218
      1215      1214      1217      1248      1216      1214      1210      1256
      1216      1214      1217      1218      1216      1214      1217      1248
      1217      1214      1210      1256      1217      1218      1220      1221
      1217      1218      1220      1222      1217      1218      1220      1223
      1217      1248      1246      1223      1217      1248      1246      1243
      1217      1248      1246      1247      1217      1248      1249      1250
      1217      1248      1249      1251      1217      1248      1249      1252
      1217      1248      1253      1254      1217      1248      1253      1255
      1217      1248      1253      1256      1218      1217      1248      1246
      1218      1217      1248      1249      1218      1217      1248      1253
      1218      1220      1223      1224      1218      1220      1223      1225
      1218      1220      1223      1246      1219      1218      1217      1248
      1219      1218      1220      1221      1219      1218      1220      1222
      1219      1218      1220      1223      1220      1218      1217      1248
      1220      1223      1225      1226      1220      1223      1225      1227
      1220      1223      1225      1235      1220      1223      1246      1243
      1220      1223      1246      1247      1220      1223      1246      1248
      1221      1220      1223      1224      1221      1220      1223      1225
      1221      1220      1223      1246      1222      1220      1223      1224
      1222      1220      1223      1225      1222      1220      1223      1246
      1223      1225      1227      1228      1223      1225      1227      1229
      1223      1225      1227      1230      1223      1225      1235      1233
      1223      1225      1235      1236      1223      1225      1235      1240
      1223      1246      1243      1240      1223      1246      1243      1244
      1223      1246      1243      1245      1223      1246      1248      1249
      1223      1246      1248      1253      1224      1223      1225      1226
      1224      1223      1225      1227      1224      1223      1225      1235
      1224      1223      1246      1243      1224      1223      1246      1247
      1224      1223      1246      1248      1225      1223      1246      1243
      1225      1223      1246      1247      1225      1223      1246      1248
      1225      1227      1230      1231      1225      1227      1230      1232
      1225      1227      1230      1233      1225      1235      1233      1230
      1225      1235      1233      1234      1225      1235      1233      1259
      1225      1235      1236      1237      1225      1235      1236      1238
      1225      1235      1236      1239      1225      1235      1240      1241
      1225      1235      1240      1242      1225      1235      1240      1243
      1226      1225      1223      1246      1226      1225      1227      1228
      1226      1225      1227      1229      1226      1225      1227      1230
      1226      1225      1235      1233      1226      1225      1235      1236
      1226      1225      1235      1240      1227      1225      1223      1246
      1227      1225      1235      1233      1227      1225      1235      1236
      1227      1225      1235      1240      1227      1230      1233      1234
      1227      1230      1233      1235      1227      1230      1233      1259
      1228      1227      1225      1235      1228      1227      1230      1231
      1228      1227      1230      1232      1228      1227      1230      1233
      1229      1227      1225      1235      1229      1227      1230      1231
      1229      1227      1230      1232      1229      1227      1230      1233
      1230      1227      1225      1235      1230      1233      1235      1236
      1230      1233      1235      1240      1230      1233      1259      1260
      1230      1233      1259      1261      1230      1233      1259      1265
      1231      1230      1233      1234      1231      1230      1233      1235
      1231      1230      1233      1259      1232      1230      1233      1234
      1232      1230      1233      1235      1232      1230      1233      1259
      1233      1235      1236      1237      1233      1235      1236      1238
      1233      1235      1236      1239      1233      1235      1240      1241
      1233      1235      1240      1242      1233      1235      1240      1243
      1233      1259      1261      1262      1233      1259      1261      1263
      1233      1259      1261      1264      1233      1259      1265      1266
      1233      1259      1265      1267      1233      1259      1265      1268
      1234      1233      1235      1236      1234      1233      1235      1240
      1234      1233      1259      1260      1234      1233      1259      1261
      1234      1233      1259      1265      1235      1225      1223      1246
      1235      1233      1259      1260      1235      1233      1259      1261
      1235      1233      1259      1265      1235      1240      1243      1244
      1235      1240      1243      1245      1235      1240      1243      1246
      1236      1235      1233      1259      1236      1235      1240      1241
      1236      1235      1240      1242      1236      1235      1240      1243
      1237      1236      1235      1240      1238      1236      1235      1240
      1239      1236      1235      1240      1240      1235      1233      1259
      1240      1243      1246      1247      1240      1243      1246      1248
      1241      1240      1243      1244      1241      1240      1243      1245
      1241      1240      1243      1246      1242      1240      1243      1244
      1242      1240      1243      1245      1242      1240      1243      1246
      1243      1246      1248      1249      1243      1246      1248      1253
      1244      1243      1246      1247      1244      1243      1246      1248
      1245      1243      1246      1247      1245      1243      1246      1248
      1246      1248      1249      1250      1246      1248      1249      1251
      1246      1248      1249      1252      1246      1248      1253      1254
      1246      1248      1253      1255      1246      1248      1253      1256
      1247      1246      1248      1249      1247      1246      1248      1253
      1248      1253      1256      1257      1248      1253      1256      1258
      1249      1248      1253      1254      1249      1248      1253      1255
      1249      1248      1253      1256      1250      1249      1248      1253
      1251      1249      1248      1253      1252      1249      1248      1253
      1254      1253      1256      1257      1254      1253      1256      1258
      1255      1253      1256      1257      1255      1253      1256      1258
      1259      1265      1268      1269      1259      1265      1268      1270
      1259      1265      1268      1271      1260      1259      1261      1262
      1260      1259      1261      1263      1260      1259      1261      1264
      1260      1259      1265      1266      1260      1259      1265      1267
      1260      1259      1265      1268      1261      1259      1265      1266
      1261      1259      1265      1267      1261      1259      1265      1268
      1262      1261      1259      1265      1263      1261      1259      1265
      1264      1261      1259      1265      1265      1268      1271      1272
      1265      1268      1271      1273      1265      1268      1271      1274
      1266      1265      1268      1269      1266      1265      1268      1270
      1266      1265      1268      1271      1267      1265      1268      1269
      1267      1265      1268      1270      1267      1265      1268      1271
      1268      1271      1274      1275      1268      1271      1274      1276
      1268      1271      1274      1280      1269      1268      1271      1272
      1269      1268      1271      1273      1269      1268      1271      1274
      1270      1268      1271      1272      1270      1268      1271      1273
      1270      1268      1271      1274      1271      1274      1276      1277
      1271      1274      1276      1278      1271      1274      1276      1279
      1271      1274      1280      1281      1271      1274      1280      1282
      1271      1274      1280      1283      1272      1271      1274      1275
      1272      1271      1274      1276      1272      1271      1274      1280
      1273      1271      1274      1275      1273      1271      1274      1276
      1273      1271      1274      1280      1275      1274      1276      1277
      1275      1274      1276      1278      1275      1274      1276      1279
      1275      1274      1280      1281      1275      1274      1280      1282
      1275      1274      1280      1283      1276      1274      1280      1281
      1276      1274      1280      1282      1276      1274      1280      1283
      1277      1276      1274      1280      1278      1276      1274      1280
      1279      1276      1274      1280      1284      1288      1291      1292
      1284      1288      1291      1322      1284      1330      1327      1322
      1284      1330      1327      1328      1284      1330      1327      1329
      1285      1284      1286      1287      1285      1284      1288      1289
      1285      1284      1288      1290      1285      1284      1288      1291
      1285      1284      1330      1327      1285      1284      1330      1331
      1285      1284      1330      1332      1286      1284      1288      1289
      1286      1284      1288      1290      1286      1284      1288      1291
      1286      1284      1330      1327      1286      1284      1330      1331
      1286      1284      1330      1332      1287      1286      1284      1288
      1287      1286      1284      1330      1288      1284      1330      1327
      1288      1284      1330      1331      1288      1284      1330      1332
      1288      1291      1292      1293      1288      1291      1292      1294
      1288      1291      1322      1320      1288      1291      1322      1323
      1288      1291      1322      1327      1289      1288      1284      1330
      1289      1288      1291      1292      1289      1288      1291      1322
      1290      1288      1284      1330      1290      1288      1291      1292
      1290      1288      1291      1322      1291      1288      1284      1330
      1291      1292      1294      1295      1291      1292      1294      1296
      1291      1292      1294      1297      1291      1322      1320      1297
      1291      1322      1320      1317      1291      1322      1320      1321
      1291      1322      1323      1324      1291      1322      1323      1325
      1291      1322      1323      1326      1291      1322      1327      1328
      1291      1322      1327      1329      1291      1322      1327      1330
      1292      1291      1322      1320      1292      1291      1322      1323
      1292      1291      1322      1327      1292      1294      1297      1298
      1292      1294      1297      1299      1292      1294      1297      1320
      1293      1292      1291      1322      1293      1292      1294      1295
      1293      1292      1294      1296      1293      1292      1294      1297
      1294      1292      1291      1322      1294      1297      1299      1300
      1294      1297      1299      1301      1294      1297      1299      1309
      1294      1297      1320      1317      1294      1297      1320      1321
      1294      1297      1320      1322      1295      1294      1297      1298
      1295      1294      1297      1299      1295      1294      1297      1320
      1296      1294      1297      1298      1296      1294      1297      1299
      1296      1294      1297      1320      1297      1299      1301      1302
      1297      1299      1301      1303      1297      1299      1301      1304
      1297      1299      1309      1307      1297      1299      1309      1310
      1297      1299      1309      1314      1297      1320      1317      1314
      1297      1320      1317      1318      1297      1320      1317      1319
      1297      1320      1322      1323      1297      1320      1322      1327
      1298      1297      1299      1300      1298      1297      1299      1301
      1298      1297      1299      1309      1298      1297      1320      1317
      1298      1297      1320      1321      1298      1297      1320      1322
      1299      1297      1320      1317      1299      1297      1320      1321
      1299      1297      1320      1322      1299      1301      1304      1305
      1299      1301      1304      1306      1299      1301      1304      1307
      1299      1309      1307      1304      1299      1309      1307      1308
      1299      1309      1307      1333      1299      1309      1310      1311
      1299      1309      1310      1312      1299      1309      1310      1313
      1299      1309      1314      1315      1299      1309      1314      1316
      1299      1309      1314      1317      1300      1299      1297      1320
      1300      1299      1301      1302      1300      1299      1301      1303
      1300      1299      1301      1304      1300      1299      1309      1307
      1300      1299      1309      1310      1300      1299      1309      1314
      1301      1299      1297      1320      1301      1299      1309      1307
      1301      1299      1309      1310      1301      1299      1309      1314
      1301      1304      1307      1308      1301      1304      1307      1309
      1301      1304      1307      1333      1302      1301      1299      1309
      1302      1301      1304      1305      1302      1301      1304      1306
      1302      1301      1304      1307      1303      1301      1299      1309
      1303      1301      1304      1305      1303      1301      1304      1306
      1303      1301      1304      1307      1304      1301      1299      1309
      1304      1307      1309      1310      1304      1307      1309      1314
      1304      1307      1333      1334      1304      1307      1333      1335
      1304      1307      1333      1339      1305      1304      1307      1308
      1305      1304      1307      1309      1305      1304      1307      1333
      1306      1304      1307      1308      1306      1304      1307      1309
      1306      1304      1307      1333      1307      1309      1310      1311
      1307      1309      1310      1312      1307      1309      1310      1313
      1307      1309      1314      1315      1307      1309      1314      1316
      1307      1309      1314      1317      1307      1333      1335      1336
      1307      1333      1335      1337      1307      1333      1335      1338
      1307      1333      1339      1340      1307      1333      1339      1341
      1307      1333      1339      1342      1308      1307      1309      1310
      1308      1307      1309      1314      1308      1307      1333      1334
      1308      1307      1333      1335      1308      1307      1333      1339
      1309      1299      1297      1320      1309      1307      1333      1334
      1309      1307      1333      1335      1309      1307      1333      1339
      1309      1314      1317      1318      1309      1314      1317      1319
      1309      1314      1317      1320      1310      1309      1307      1333
      1310      1309      1314      1315      1310      1309      1314      1316
      1310      1309      1314      1317      1311      1310      1309      1314
      1312      1310      1309      1314      1313      1310      1309      1314
      1314      1309      1307      1333      1314      1317      1320      1321
      1314      1317      1320      1322      1315      1314      1317      1318
      1315      1314      1317      1319      1315      1314      1317      1320
      1316      1314      1317      1318      1316      1314      1317      1319
      1316      1314      1317      1320      1317      1320      1322      1323
      1317      1320      1322      1327      1318      1317      1320      1321
      1318      1317      1320      1322      1319      1317      1320      1321
      1319      1317      1320      1322      1320      1322      1323      1324
      1320      1322      1323      1325      1320      1322      1323      1326
      1320      1322      1327      1328      1320      1322      1327      1329
      1320      1322      1327      1330      1321      1320      1322      1323
      1321      1320      1322      1327      1322      1327      1330      1331
      1322      1327      1330      1332      1323      1322      1327      1328
      1323      1322      1327      1329      1323      1322      1327      1330
      1324      1323      1322      1327      1325      1323      1322      1327
      1326      1323      1322      1327      1328      1327      1330      1331
      1328      1327      1330      1332      1329      1327      1330      1331
      1329      1327      1330      1332      1333      1339      1342      1343
      1333      1339      1342      1344      1333      1339      1342      1345
      1334      1333      1335      1336      1334      1333      1335      1337
      1334      1333      1335      1338      1334      1333      1339      1340
      1334      1333      1339      1341      1334      1333      1339      1342
      1335      1333      1339      1340      1335      1333      1339      1341
      1335      1333      1339      1342      1336      1335      1333      1339
      1337      1335      1333      1339      1338      1335      1333      1339
      1339      1342      1345      1346      1339      1342      1345      1347
      1339      1342      1345      1348      1340      1339      1342      1343
      1340      1339      1342      1344      1340      1339      1342      1345
      1341      1339      1342      1343      1341      1339      1342      1344
      1341      1339      1342      1345      1342      1345      1348      1349
      1342      1345      1348      1350      1342      1345      1348      1354
      1343      1342      1345      1346      1343      1342      1345      1347
      1343      1342      1345      1348      1344      1342      1345      1346
      1344      1342      1345      1347      1344      1342      1345      1348
      1345      1348      1350      1351      1345      1348      1350      1352
      1345      1348      1350      1353      1345      1348      1354      1355
      1345      1348      1354      1356      1345      1348      1354      1357
      1346      1345      1348      1349      1346      1345      1348      1350
      1346      1345      1348      1354      1347      1345      1348      1349
      1347      1345      1348      1350      1347      1345      1348      1354
      1349      1348      1350      1351      1349      1348      1350      1352
      1349      1348      1350      1353      1349      1348      1354      1355
      1349      1348      1354      1356      1349      1348      1354      1357
      1350      1348      1354      1355      1350      1348      1354      1356
      1350      1348      1354      1357      1351      1350      1348      1354
      1352      1350      1348      1354      1353      1350      1348      1354
      1358      1362      1365      1366      1358      1362      1365      1396
      1358      1404      1401      1396      1358      1404      1401      1402
      1358      1404      1401      1403      1359      1358      1360      1361
      1359      1358      1362      1363      1359      1358      1362      1364
      1359      1358      1362      1365      1359      1358      1404      1401
      1359      1358      1404      1405      1359      1358      1404      1406
      1360      1358      1362      1363      1360      1358      1362      1364
      1360      1358      1362      1365      1360      1358      1404      1401
      1360      1358      1404      1405      1360      1358      1404      1406
      1361      1360      1358      1362      1361      1360      1358      1404
      1362      1358      1404      1401      1362      1358      1404      1405
      1362      1358      1404      1406      1362      1365      1366      1367
      1362      1365      1366      1368      1362      1365      1396      1394
      1362      1365      1396      1397      1362      1365      1396      1401
      1363      1362      1358      1404      1363      1362      1365      1366
      1363      1362      1365      1396      1364      1362      1358      1404
      1364      1362      1365      1366      1364      1362      1365      1396
      1365      1362      1358      1404      1365      1366      1368      1369
      1365      1366      1368      1370      1365      1366      1368      1371
      1365      1396      1394      1371      1365      1396      1394      1391
      1365      1396      1394      1395      1365      1396      1397      1398
      1365      1396      1397      1399      1365      1396      1397      1400
      1365      1396      1401      1402      1365      1396      1401      1403
      1365      1396      1401      1404      1366      1365      1396      1394
      1366      1365      1396      1397      1366      1365      1396      1401
      1366      1368      1371      1372      1366      1368      1371      1373
      1366      1368      1371      1394      1367      1366      1365      1396
      1367      1366      1368      1369      1367      1366      1368      1370
      1367      1366      1368      1371      1368      1366      1365      1396
      1368      1371      1373      1374      1368      1371      1373      1375
      1368      1371      1373      1383      1368      1371      1394      1391
      1368      1371      1394      1395      1368      1371      1394      1396
      1369      1368      1371      1372      1369      1368      1371      1373
      1369      1368      1371      1394      1370      1368      1371      1372
      1370      1368      1371      1373      1370      1368      1371      1394
      1371      1373      1375      1376      1371      1373      1375      1377
      1371      1373      1375      1378      1371      1373      1383      1381
      1371      1373      1383      1384      1371      1373      1383      1388
      1371      1394      1391      1388      1371      1394      1391      1392
      1371      1394      1391      1393      1371      1394      1396      1397
      1371      1394      1396      1401      1372      1371      1373      1374
      1372      1371      1373      1375      1372      1371      1373      1383
      1372      1371      1394      1391      1372      1371      1394      1395
      1372      1371      1394      1396      1373      1371      1394      1391
      1373      1371      1394      1395      1373      1371      1394      1396
      1373      1375      1378      1379      1373      1375      1378      1380
      1373      1375      1378      1381      1373      1383      1381      1378
      1373      1383      1381      1382      1373      1383      1381      1407
      1373      1383      1384      1385      1373      1383      1384      1386
      1373      1383      1384      1387      1373      1383      1388      1389
      1373      1383      1388      1390      1373      1383      1388      1391
      1374      1373      1371      1394      1374      1373      1375      1376
      1374      1373      1375      1377      1374      1373      1375      1378
      1374      1373      1383      1381      1374      1373      1383      1384
      1374      1373      1383      1388      1375      1373      1371      1394
      1375      1373      1383      1381      1375      1373      1383      1384
      1375      1373      1383      1388      1375      1378      1381      1382
      1375      1378      1381      1383      1375      1378      1381      1407
      1376      1375      1373      1383      1376      1375      1378      1379
      1376      1375      1378      1380      1376      1375      1378      1381
      1377      1375      1373      1383      1377      1375      1378      1379
      1377      1375      1378      1380      1377      1375      1378      1381
      1378      1375      1373      1383      1378      1381      1383      1384
      1378      1381      1383      1388      1378      1381      1407      1408
      1378      1381      1407      1409      1378      1381      1407      1413
      1379      1378      1381      1382      1379      1378      1381      1383
      1379      1378      1381      1407      1380      1378      1381      1382
      1380      1378      1381      1383      1380      1378      1381      1407
      1381      1383      1384      1385      1381      1383      1384      1386
      1381      1383      1384      1387      1381      1383      1388      1389
      1381      1383      1388      1390      1381      1383      1388      1391
      1381      1407      1409      1410      1381      1407      1409      1411
      1381      1407      1409      1412      1381      1407      1413      1414
      1381      1407      1413      1415      1381      1407      1413      1416
      1382      1381      1383      1384      1382      1381      1383      1388
      1382      1381      1407      1408      1382      1381      1407      1409
      1382      1381      1407      1413      1383      1373      1371      1394
      1383      1381      1407      1408      1383      1381      1407      1409
      1383      1381      1407      1413      1383      1388      1391      1392
      1383      1388      1391      1393      1383      1388      1391      1394
      1384      1383      1381      1407      1384      1383      1388      1389
      1384      1383      1388      1390      1384      1383      1388      1391
      1385      1384      1383      1388      1386      1384      1383      1388
      1387      1384      1383      1388      1388      1383      1381      1407
      1388      1391      1394      1395      1388      1391      1394      1396
      1389      1388      1391      1392      1389      1388      1391      1393
      1389      1388      1391      1394      1390      1388      1391      1392
      1390      1388      1391      1393      1390      1388      1391      1394
      1391      1394      1396      1397      1391      1394      1396      1401
      1392      1391      1394      1395      1392      1391      1394      1396
      1393      1391      1394      1395      1393      1391      1394      1396
      1394      1396      1397      1398      1394      1396      1397      1399
      1394      1396      1397      1400      1394      1396      1401      1402
      1394      1396      1401      1403      1394      1396      1401      1404
      1395      1394      1396      1397      1395      1394      1396      1401
      1396      1401      1404      1405      1396      1401      1404      1406
      1397      1396      1401      1402      1397      1396      1401      1403
      1397      1396      1401      1404      1398      1397      1396      1401
      1399      1397      1396      1401      1400      1397      1396      1401
      1402      1401      1404      1405      1402      1401      1404      1406
      1403      1401      1404      1405      1403      1401      1404      1406
      1407      1413      1416      1417      1407      1413      1416      1418
      1407      1413      1416      1419      1408      1407      1409      1410
      1408      1407      1409      1411      1408      1407      1409      1412
      1408      1407      1413      1414      1408      1407      1413      1415
      1408      1407      1413      1416      1409      1407      1413      1414
      1409      1407      1413      1415      1409      1407      1413      1416
      1410      1409      1407      1413      1411      1409      1407      1413
      1412      1409      1407      1413      1413      1416      1419      1420
      1413      1416      1419      1421      1413      1416      1419      1422
      1414      1413      1416      1417      1414      1413      1416      1418
      1414      1413      1416      1419      1415      1413      1416      1417
      1415      1413      1416      1418      1415      1413      1416      1419
      1416      1419      1422      1423      1416      1419      1422      1424
      1416      1419      1422      1428      1417      1416      1419      1420
      1417      1416      1419      1421      1417      1416      1419      1422
      1418      1416      1419      1420      1418      1416      1419      1421
      1418      1416      1419      1422      1419      1422      1424      1425
      1419      1422      1424      1426      1419      1422      1424      1427
      1419      1422      1428      1429      1419      1422      1428      1430
      1419      1422      1428      1431      1420      1419      1422      1423
      1420      1419      1422      1424      1420      1419      1422      1428
      1421      1419      1422      1423      1421      1419      1422      1424
      1421      1419      1422      1428      1423      1422      1424      1425
      1423      1422      1424      1426      1423      1422      1424      1427
      1423      1422      1428      1429      1423      1422      1428      1430
      1423      1422      1428      1431      1424      1422      1428      1429
      1424      1422      1428      1430      1424      1422      1428      1431
      1425      1424      1422      1428      1426      1424      1422      1428
      1427      1424      1422      1428      1432      1436      1439      1440
      1432      1436      1439      1470      1432      1478      1475      1470
      1432      1478      1475      1476      1432      1478      1475      1477
      1433      1432      1434      1435      1433      1432      1436      1437
      1433      1432      1436      1438      1433      1432      1436      1439
      1433      1432      1478      1475      1433      1432      1478      1479
      1433      1432      1478      1480      1434      1432      1436      1437
      1434      1432      1436      1438      1434      1432      1436      1439
      1434      1432      1478      1475      1434      1432      1478      1479
      1434      1432      1478      1480      1435      1434      1432      1436
      1435      1434      1432      1478      1436      1432      1478      1475
      1436      1432      1478      1479      1436      1432      1478      1480
      1436      1439      1440      1441      1436      1439      1440      1442
      1436      1439      1470      1468      1436      1439      1470      1471
      1436      1439      1470      1475      1437      1436      1432      1478
      1437      1436      1439      1440      1437      1436      1439      1470
      1438      1436      1432      1478      1438      1436      1439      1440
      1438      1436      1439      1470      1439      1436      1432      1478
      1439      1440      1442      1443      1439      1440      1442      1444
      1439      1440      1442      1445      1439      1470      1468      1445
      1439      1470      1468      1465      1439      1470      1468      1469
      1439      1470      1471      1472      1439      1470      1471      1473
      1439      1470      1471      1474      1439      1470      1475      1476
      1439      1470      1475      1477      1439      1470      1475      1478
      1440      1439      1470      1468      1440      1439      1470      1471
      1440      1439      1470      1475      1440      1442      1445      1446
      1440      1442      1445      1447      1440      1442      1445      1468
      1441      1440      1439      1470      1441      1440      1442      1443
      1441      1440      1442      1444      1441      1440      1442      1445
      1442      1440      1439      1470      1442      1445      1447      1448
      1442      1445      1447      1449      1442      1445      1447      1457
      1442      1445      1468      1465      1442      1445      1468      1469
      1442      1445      1468      1470      1443      1442      1445      1446
      1443      1442      1445      1447      1443      1442      1445      1468
      1444      1442      1445      1446      1444      1442      1445      1447
      1444      1442      1445      1468      1445      1447      1449      1450
      1445      1447      1449      1451      1445      1447      1449      1452
      1445      1447      1457      1455      1445      1447      1457      1458
      1445      1447      1457      1462      1445      1468      1465      1462
      1445      1468      1465      1466      1445      1468      1465      1467
      1445      1468      1470      1471      1445      1468      1470      1475
      1446      1445      1447      1448      1446      1445      1447      1449
      1446      1445      1447      1457      1446      1445      1468      1465
      1446      1445      1468      1469      1446      1445      1468      1470
      1447      1445      1468      1465      1447      1445      1468      1469
      1447      1445      1468      1470      1447      1449      1452      1453
      1447      1449      1452      1454      1447      1449      1452      1455
      1447      1457      1455      1452      1447      1457      1455      1456
      1447      1457      1455      1481      1447      1457      1458      1459
      1447      1457      1458      1460      1447      1457      1458      1461
      1447      1457      1462      1463      1447      1457      1462      1464
      1447      1457      1462      1465      1448      1447      1445      1468
      1448      1447      1449      1450      1448      1447      1449      1451
      1448      1447      1449      1452      1448      1447      1457      1455
      1448      1447      1457      1458      1448      1447      1457      1462
      1449      1447      1445      1468      1449      1447      1457      1455
      1449      1447      1457      1458      1449      1447      1457      1462
      1449      1452      1455      1456      1449      1452      1455      1457
      1449      1452      1455      1481      1450      1449      1447      1457
      1450      1449      1452      1453      1450      1449      1452      1454
      1450      1449      1452      1455      1451      1449      1447      1457
      1451      1449      1452      1453      1451      1449      1452      1454
      1451      1449      1452      1455      1452      1449      1447      1457
      1452      1455      1457      1458      1452      1455      1457      1462
      1452      1455      1481      1482      1452      1455      1481      1483
      1452      1455      1481      1487      1453      1452      1455      1456
      1453      1452      1455      1457      1453      1452      1455      1481
      1454      1452      1455      1456      1454      1452      1455      1457
      1454      1452      1455      1481      1455      1457      1458      1459
      1455      1457      1458      1460      1455      1457      1458      1461
      1455      1457      1462      1463      1455      1457      1462      1464
      1455      1457      1462      1465      1455      1481      1483      1484
      1455      1481      1483      1485      1455      1481      1483      1486
      1455      1481      1487      1488      1455      1481      1487      1489
      1455      1481      1487      1490      1456      1455      1457      1458
      1456      1455      1457      1462      1456      1455      1481      1482
      1456      1455      1481      1483      1456      1455      1481      1487
      1457      1447      1445      1468      1457      1455      1481      1482
      1457      1455      1481      1483      1457      1455      1481      1487
      1457      1462      1465      1466      1457      1462      1465      1467
      1457      1462      1465      1468      1458      1457      1455      1481
      1458      1457      1462      1463      1458      1457      1462      1464
      1458      1457      1462      1465      1459      1458      1457      1462
      1460      1458      1457      1462      1461      1458      1457      1462
      1462      1457      1455      1481      1462      1465      1468      1469
      1462      1465      1468      1470      1463      1462      1465      1466
      1463      1462      1465      1467      1463      1462      1465      1468
      1464      1462      1465      1466      1464      1462      1465      1467
      1464      1462      1465      1468      1465      1468      1470      1471
      1465      1468      1470      1475      1466      1465      1468      1469
      1466      1465      1468      1470      1467      1465      1468      1469
      1467      1465      1468      1470      1468      1470      1471      1472
      1468      1470      1471      1473      1468      1470      1471      1474
      1468      1470      1475      1476      1468      1470      1475      1477
      1468      1470      1475      1478      1469      1468      1470      1471
      1469      1468      1470      1475      1470      1475      1478      1479
      1470      1475      1478      1480      1471      1470      1475      1476
      1471      1470      1475      1477      1471      1470      1475      1478
      1472      1471      1470      1475      1473      1471      1470      1475
      1474      1471      1470      1475      1476      1475      1478      1479
      1476      1475      1478      1480      1477      1475      1478      1479
      1477      1475      1478      1480      1481      1487      1490      1491
      1481      1487      1490      1492      1481      1487      1490      1493
      1482      1481      1483      1484      1482      1481      1483      1485
      1482      1481      1483      1486      1482      1481      1487      1488
      1482      1481      1487      1489      1482      1481      1487      1490
      1483      1481      1487      1488      1483      1481      1487      1489
      1483      1481      1487      1490      1484      1483      1481      1487
      1485      1483      1481      1487      1486      1483      1481      1487
      1487      1490      1493      1494      1487      1490      1493      1495
      1487      1490      1493      1496      1488      1487      1490      1491
      1488      1487      1490      1492      1488      1487      1490      1493
      1489      1487      1490      1491      1489      1487      1490      1492
      1489      1487      1490      1493      1490      1493      1496      1497
      1490      1493      1496      1498      1490      1493      1496      1502
      1491      1490      1493      1494      1491      1490      1493      1495
      1491      1490      1493      1496      1492      1490      1493      1494
      1492      1490      1493      1495      1492      1490      1493      1496
      1493      1496      1498      1499      1493      1496      1498      1500
      1493      1496      1498      1501      1493      1496      1502      1503
      1493      1496      1502      1504      1493      1496      1502      1505
      1494      1493      1496      1497      1494      1493      1496      1498
      1494      1493      1496      1502      1495      1493      1496      1497
      1495      1493      1496      1498      1495      1493      1496      1502
      1497      1496      1498      1499      1497      1496      1498      1500
      1497      1496      1498      1501      1497      1496      1502      1503
      1497      1496      1502      1504      1497      1496      1502      1505
      1498      1496      1502      1503      1498      1496      1502      1504
      1498      1496      1502      1505      1499      1498      1496      1502
      1500      1498      1496      1502      1501      1498      1496      1502
      1506      1510      1513      1514      1506      1510      1513      1544
      1506      1552      1549      1544      1506      1552      1549      1550
      1506      1552      1549      1551      1507      1506      1508      1509
      1507      1506      1510      1511      1507      1506      1510      1512
      1507      1506      1510      1513      1507      1506      1552      1549
      1507      1506      1552      1553      1507      1506      1552      1554
      1508      1506      1510      1511      1508      1506      1510      1512
      1508      1506      1510      1513      1508      1506      1552      1549
      1508      1506      1552      1553      1508      1506      1552      1554
      1509      1508      1506      1510      1509      1508      1506      1552
      1510      1506      1552      1549      1510      1506      1552      1553
      1510      1506      1552      1554      1510      1513      1514      1515
      1510      1513      1514      1516      1510      1513      1544      1542
      1510      1513      1544      1545      1510      1513      1544      1549
      1511      1510      1506      1552      1511      1510      1513      1514
      1511      1510      1513      1544      1512      1510      1506      1552
      1512      1510      1513      1514      1512      1510      1513      1544
      1513      1510      1506      1552      1513      1514      1516      1517
      1513      1514      1516      1518      1513      1514      1516      1519
      1513      1544      1542      1519      1513      1544      1542      1539
      1513      1544      1542      1543      1513      1544      1545      1546
      1513      1544      1545      1547      1513      1544      1545      1548
      1513      1544      1549      1550      1513      1544      1549      1551
      1513      1544      1549      1552      1514      1513      1544      1542
      1514      1513      1544      1545      1514      1513      1544      1549
      1514      1516      1519      1520      1514      1516      1519      1521
      1514      1516      1519      1542      1515      1514      1513      1544
      1515      1514      1516      1517      1515      1514      1516      1518
      1515      1514      1516      1519      1516      1514      1513      1544
      1516      1519      1521      1522      1516      1519      1521      1523
      1516      1519      1521      1531      1516      1519      1542      1539
      1516      1519      1542      1543      1516      1519      1542      1544
      1517      1516      1519      1520      1517      1516      1519      1521
      1517      1516      1519      1542      1518      1516      1519      1520
      1518      1516      1519      1521      1518      1516      1519      1542
      1519      1521      1523      1524      1519      1521      1523      1525
      1519      1521      1523      1526      1519      1521      1531      1529
      1519      1521      1531      1532      1519      1521      1531      1536
      1519      1542      1539      1536      1519      1542      1539      1540
      1519      1542      1539      1541      1519      1542      1544      1545
      1519      1542      1544      1549      1520      1519      1521      1522
      1520      1519      1521      1523      1520      1519      1521      1531
      1520      1519      1542      1539      1520      1519      1542      1543
      1520      1519      1542      1544      1521      1519      1542      1539
      1521      1519      1542      1543      1521      1519      1542      1544
      1521      1523      1526      1527      1521      1523      1526      1528
      1521      1523      1526      1529      1521      1531      1529      1526
      1521      1531      1529      1530      1521      1531      1529      1555
      1521      1531      1532      1533      1521      1531      1532      1534
      1521      1531      1532      1535      1521      1531      1536      1537
      1521      1531      1536      1538      1521      1531      1536      1539
      1522      1521      1519      1542      1522      1521      1523      1524
      1522      1521      1523      1525      1522      1521      1523      1526
      1522      1521      1531      1529      1522      1521      1531      1532
      1522      1521      1531      1536      1523      1521      1519      1542
      1523      1521      1531      1529      1523      1521      1531      1532
      1523      1521      1531      1536      1523      1526      1529      1530
      1523      1526      1529      1531      1523      1526      1529      1555
      1524      1523      1521      1531      1524      1523      1526      1527
      1524      1523      1526      1528      1524      1523      1526      1529
      1525      1523      1521      1531      1525      1523      1526      1527
      1525      1523      1526      1528      1525      1523      1526      1529
      1526      1523      1521      1531      1526      1529      1531      1532
      1526      1529      1531      1536      1526      1529      1555      1556
      1526      1529      1555      1557      1526      1529      1555      1561
      1527      1526      1529      1530      1527      1526      1529      1531
      1527      1526      1529      1555      1528      1526      1529      1530
      1528      1526      1529      1531      1528      1526      1529      1555
      1529      1531      1532      1533      1529      1531      1532      1534
      1529      1531      1532      1535      1529      1531      1536      1537
      1529      1531      1536      1538      1529      1531      1536      1539
      1529      1555      1557      1558      1529      1555      1557      1559
      1529      1555      1557      1560      1529      1555      1561      1562
      1529      1555      1561      1563      1529      1555      1561      1564
      1530      1529      1531      1532      1530      1529      1531      1536
      1530      1529      1555      1556      1530      1529      1555      1557
      1530      1529      1555      1561      1531      1521      1519      1542
      1531      1529      1555      1556      1531      1529      1555      1557
      1531      1529      1555      1561      1531      1536      1539      1540
      1531      1536      1539      1541      1531      1536      1539      1542
      1532      1531      1529      1555      1532      1531      1536      1537
      1532      1531      1536      1538      1532      1531      1536      1539
      1533      1532      1531      1536      1534      1532      1531      1536
      1535      1532      1531      1536      1536      1531      1529      1555
      1536      1539      1542      1543      1536      1539      1542      1544
      1537      1536      1539      1540      1537      1536      1539      1541
      1537      1536      1539      1542      1538      1536      1539      1540
      1538      1536      1539      1541      1538      1536      1539      1542
      1539      1542      1544      1545      1539      1542      1544      1549
      1540      1539      1542      1543      1540      1539      1542      1544
      1541      1539      1542      1543      1541      1539      1542      1544
      1542      1544      1545      1546      1542      1544      1545      1547
      1542      1544      1545      1548      1542      1544      1549      1550
      1542      1544      1549      1551      1542      1544      1549      1552
      1543      1542      1544      1545      1543      1542      1544      1549
      1544      1549      1552      1553      1544      1549      1552      1554
      1545      1544      1549      1550      1545      1544      1549      1551
      1545      1544      1549      1552      1546      1545      1544      1549
      1547      1545      1544      1549      1548      1545      1544      1549
      1550      1549      1552      1553      1550      1549      1552      1554
      1551      1549      1552      1553      1551      1549      1552      1554
      1555      1561      1564      1565      1555      1561      1564      1566
      1555      1561      1564      1567      1556      1555      1557      1558
      1556      1555      1557      1559      1556      1555      1557      1560
      1556      1555      1561      1562      1556      1555      1561      1563
      1556      1555      1561      1564      1557      1555      1561      1562
      1557      1555      1561      1563      1557      1555      1561      1564
      1558      1557      1555      1561      1559      1557      1555      1561
      1560      1557      1555      1561      1561      1564      1567      1568
      1561      1564      1567      1569      1561      1564      1567      1570
      1562      1561      1564      1565      1562      1561      1564      1566
      1562      1561      1564      1567      1563      1561      1564      1565
      1563      1561      1564      1566      1563      1561      1564      1567
      1564      1567      1570      1571      1564      1567      1570      1572
      1564      1567      1570      1576      1565      1564      1567      1568
      1565      1564      1567      1569      1565      1564      1567      1570
      1566      1564      1567      1568      1566      1564      1567      1569
      1566      1564      1567      1570      1567      1570      1572      1573
      1567      1570      1572      1574      1567      1570      1572      1575
      1567      1570      1576      1577      1567      1570      1576      1578
      1567      1570      1576      1579      1568      1567      1570      1571
      1568      1567      1570      1572      1568      1567      1570      1576
      1569      1567      1570      1571      1569      1567      1570      1572
      1569      1567      1570      1576      1571      1570      1572      1573
      1571      1570      1572      1574      1571      1570      1572      1575
      1571      1570      1576      1577      1571      1570      1576      1578
      1571      1570      1576      1579      1572      1570      1576      1577
      1572      1570      1576      1578      1572      1570      1576      1579
      1573      1572      1570      1576      1574      1572      1570      1576
      1575      1572      1570      1576      1580      1584      1587      1588
      1580      1584      1587      1618      1580      1626      1623      1618
      1580      1626      1623      1624      1580      1626      1623      1625
      1581      1580      1582      1583      1581      1580      1584      1585
      1581      1580      1584      1586      1581      1580      1584      1587
      1581      1580      1626      1623      1581      1580      1626      1627
      1581      1580      1626      1628      1582      1580      1584      1585
      1582      1580      1584      1586      1582      1580      1584      1587
      1582      1580      1626      1623      1582      1580      1626      1627
      1582      1580      1626      1628      1583      1582      1580      1584
      1583      1582      1580      1626      1584      1580      1626      1623
      1584      1580      1626      1627      1584      1580      1626      1628
      1584      1587      1588      1589      1584      1587      1588      1590
      1584      1587      1618      1616      1584      1587      1618      1619
      1584      1587      1618      1623      1585      1584      1580      1626
      1585      1584      1587      1588      1585      1584      1587      1618
      1586      1584      1580      1626      1586      1584      1587      1588
      1586      1584      1587      1618      1587      1584      1580      1626
      1587      1588      1590      1591      1587      1588      1590      1592
      1587      1588      1590      1593      1587      1618      1616      1593
      1587      1618      1616      1613      1587      1618      1616      1617
      1587      1618      1619      1620      1587      1618      1619      1621
      1587      1618      1619      1622      1587      1618      1623      1624
      1587      1618      1623      1625      1587      1618      1623      1626
      1588      1587      1618      1616      1588      1587      1618      1619
      1588      1587      1618      1623      1588      1590      1593      1594
      1588      1590      1593      1595      1588      1590      1593      1616
      1589      1588      1587      1618      1589      1588      1590      1591
      1589      1588      1590      1592      1589      1588      1590      1593
      1590      1588      1587      1618      1590      1593      1595      1596
      1590      1593      1595      1597      1590      1593      1595      1605
      1590      1593      1616      1613      1590      1593      1616      1617
      1590      1593      1616      1618      1591      1590      1593      1594
      1591      1590      1593      1595      1591      1590      1593      1616
      1592      1590      1593      1594      1592      1590      1593      1595
      1592      1590      1593      1616      1593      1595      1597      1598
      1593      1595      1597      1599      1593      1595      1597      1600
      1593      1595      1605      1603      1593      1595      1605      1606
      1593      1595      1605      1610      1593      1616      1613      1610
      1593      1616      1613      1614      1593      1616      1613      1615
      1593      1616      1618      1619      1593      1616      1618      1623
      1594      1593      1595      1596      1594      1593      1595      1597
      1594      1593      1595      1605      1594      1593      1616      1613
      1594      1593      1616      1617      1594      1593      1616      1618
      1595      1593      1616      1613      1595      1593      1616      1617
      1595      1593      1616      1618      1595      1597      1600      1601
      1595      1597      1600      1602      1595      1597      1600      1603
      1595      1605      1603      1600      1595      1605      1603      1604
      1595      1605      1603      1629      1595      1605      1606      1607
      1595      1605      1606      1608      1595      1605      1606      1609
      1595      1605      1610      1611      1595      1605      1610      1612
      1595      1605      1610      1613      1596      1595      1593      1616
      1596      1595      1597      1598      1596      1595      1597      1599
      1596      1595      1597      1600      1596      1595      1605      1603
      1596      1595      1605      1606      1596      1595      1605      1610
      1597      1595      1593      1616      1597      1595      1605      1603
      1597      1595      1605      1606      1597      1595      1605      1610
      1597      1600      1603      1604      1597      1600      1603      1605
      1597      1600      1603      1629      1598      1597      1595      1605
      1598      1597      1600      1601      1598      1597      1600      1602
      1598      1597      1600      1603      1599      1597      1595      1605
      1599      1597      1600      1601      1599      1597      1600      1602
      1599      1597      1600      1603      1600      1597      1595      1605
      1600      1603      1605      1606      1600      1603      1605      1610
      1600      1603      1629      1630      1600      1603      1629      1631
      1600      1603      1629      1635      1601      1600      1603      1604
      1601      1600      1603      1605      1601      1600      1603      1629
      1602      1600      1603      1604      1602      1600      1603      1605
      1602      1600      1603      1629      1603      1605      1606      1607
      1603      1605      1606      1608      1603      1605      1606      1609
      1603      1605      1610      1611      1603      1605      1610      1612
      1603      1605      1610      1613      1603      1629      1631      1632
      1603      1629      1631      1633      1603      1629      1631      1634
      1603      1629      1635      1636      1603      1629      1635      1637
      1603      1629      1635      1638      1604      1603      1605      1606
      1604      1603      1605      1610      1604      1603      1629      1630
      1604      1603      1629      1631      1604      1603      1629      1635
      1605      1595      1593      1616      1605      1603      1629      1630
      1605      1603      1629      1631      1605      1603      1629      1635
      1605      1610      1613      1614      1605      1610      1613      1615
      1605      1610      1613      1616      1606      1605      1603      1629
      1606      1605      1610      1611      1606      1605      1610      1612
      1606      1605      1610      1613      1607      1606      1605      1610
      1608      1606      1605      1610      1609      1606      1605      1610
      1610      1605      1603      1629      1610      1613      1616      1617
      1610      1613      1616      1618      1611      1610      1613      1614
      1611      1610      1613      1615      1611      1610      1613      1616
      1612      1610      1613      1614      1612      1610      1613      1615
      1612      1610      1613      1616      1613      1616      1618      1619
      1613      1616      1618      1623      1614      1613      1616      1617
      1614      1613      1616      1618      1615      1613      1616      1617
      1615      1613      1616      1618      1616      1618      1619      1620
      1616      1618      1619      1621      1616      1618      1619      1622
      1616      1618      1623      1624      1616      1618      1623      1625
      1616      1618      1623      1626      1617      1616      1618      1619
      1617      1616      1618      1623      1618      1623      1626      1627
      1618      1623      1626      1628      1619      1618      1623      1624
      1619      1618      1623      1625      1619      1618      1623      1626
      1620      1619      1618      1623      1621      1619      1618      1623
      1622      1619      1618      1623      1624      1623      1626      1627
      1624      1623      1626      1628      1625      1623      1626      1627
      1625      1623      1626      1628      1629      1635      1638      1639
      1629      1635      1638      1640      1629      1635      1638      1641
      1630      1629      1631      1632      1630      1629      1631      1633
      1630      1629      1631      1634      1630      1629      1635      1636
      1630      1629      1635      1637      1630      1629      1635      1638
      1631      1629      1635      1636      1631      1629      1635      1637
      1631      1629      1635      1638      1632      1631      1629      1635
      1633      1631      1629      1635      1634      1631      1629      1635
      1635      1638      1641      1642      1635      1638      1641      1643
      1635      1638      1641      1644      1636      1635      1638      1639
      1636      1635      1638      1640      1636      1635      1638      1641
      1637      1635      1638      1639      1637      1635      1638      1640
      1637      1635      1638      1641      1638      1641      1644      1645
      1638      1641      1644      1646      1638      1641      1644      1650
      1639      1638      1641      1642      1639      1638      1641      1643
      1639      1638      1641      1644      1640      1638      1641      1642
      1640      1638      1641      1643      1640      1638      1641      1644
      1641      1644      1646      1647      1641      1644      1646      1648
      1641      1644      1646      1649      1641      1644      1650      1651
      1641      1644      1650      1652      1641      1644      1650      1653
      1642      1641      1644      1645      1642      1641      1644      1646
      1642      1641      1644      1650      1643      1641      1644      1645
      1643      1641      1644      1646      1643      1641      1644      1650
      1645      1644      1646      1647      1645      1644      1646      1648
      1645      1644      1646      1649      1645      1644      1650      1651
      1645      1644      1650      1652      1645      1644      1650      1653
      1646      1644      1650      1651      1646      1644      1650      1652
      1646      1644      1650      1653      1647      1646      1644      1650
      1648      1646      1644      1650      1649      1646      1644      1650
      1654      1658      1661      1662      1654      1658      1661      1692
      1654      1700      1697      1692      1654      1700      1697      1698
      1654      1700      1697      1699      1655      1654      1656      1657
      1655      1654      1658      1659      1655      1654      1658      1660
      1655      1654      1658      1661      1655      1654      1700      1697
      1655      1654      1700      1701      1655      1654      1700      1702
      1656      1654      1658      1659      1656      1654      1658      1660
      1656      1654      1658      1661      1656      1654      1700      1697
      1656      1654      1700      1701      1656      1654      1700      1702
      1657      1656      1654      1658      1657      1656      1654      1700
      1658      1654      1700      1697      1658      1654      1700      1701
      1658      1654      1700      1702      1658      1661      1662      1663
      1658      1661      1662      1664      1658      1661      1692      1690
      1658      1661      1692      1693      1658      1661      1692      1697
      1659      1658      1654      1700      1659      1658      1661      1662
      1659      1658      1661      1692      1660      1658      1654      1700
      1660      1658      1661      1662      1660      1658      1661      1692
      1661      1658      1654      1700      1661      1662      1664      1665
      1661      1662      1664      1666      1661      1662      1664      1667
      1661      1692      1690      1667      1661      1692      1690      1687
      1661      1692      1690      1691      1661      1692      1693      1694
      1661      1692      1693      1695      1661      1692      1693      1696
      1661      1692      1697      1698      1661      1692      1697      1699
      1661      1692      1697      1700      1662      1661      1692      1690
      1662      1661      1692      1693      1662      1661      1692      1697
      1662      1664      1667      1668      1662      1664      1667      1669
      1662      1664      1667      1690      1663      1662      1661      1692
      1663      1662      1664      1665      1663      1662      1664      1666
      1663      1662      1664      1667      1664      1662      1661      1692
      1664      1667      1669      1670      1664      1667      1669      1671
      1664      1667      1669      1679      1664      1667      1690      1687
      1664      1667      1690      1691      1664      1667      1690      1692
      1665      1664      1667      1668      1665      1664      1667      1669
      1665      1664      1667      1690      1666      1664      1667      1668
      1666      1664      1667      1669      1666      1664      1667      1690
      1667      1669      1671      1672      1667      1669      1671      1673
      1667      1669      1671      1674      1667      1669      1679      1677
      1667      1669      1679      1680      1667      1669      1679      1684
      1667      1690      1687      1684      1667      1690      1687      1688
      1667      1690      1687      1689      1667      1690      1692      1693
      1667      1690      1692      1697      1668      1667      1669      1670
      1668      1667      1669      1671      1668      1667      1669      1679
      1668      1667      1690      1687      1668      1667      1690      1691
      1668      1667      1690      1692      1669      1667      1690      1687
      1669      1667      1690      1691      1669      1667      1690      1692
      1669      1671      1674      1675      1669      1671      1674      1676
      1669      1671      1674      1677      1669      1679      1677      1674
      1669      1679      1677      1678      1669      1679      1677      1703
      1669      1679      1680      1681      1669      1679      1680      1682
      1669      1679      1680      1683      1669      1679      1684      1685
      1669      1679      1684      1686      1669      1679      1684      1687
      1670      1669      1667      1690      1670      1669      1671      1672
      1670      1669      1671      1673      1670      1669      1671      1674
      1670      1669      1679      1677      1670      1669      1679      1680
      1670      1669      1679      1684      1671      1669      1667      1690
      1671      1669      1679      1677      1671      1669      1679      1680
      1671      1669      1679      1684      1671      1674      1677      1678
      1671      1674      1677      1679      1671      1674      1677      1703
      1672      1671      1669      1679      1672      1671      1674      1675
      1672      1671      1674      1676      1672      1671      1674      1677
      1673      1671      1669      1679      1673      1671      1674      1675
      1673      1671      1674      1676      1673      1671      1674      1677
      1674      1671      1669      1679      1674      1677      1679      1680
      1674      1677      1679      1684      1674      1677      1703      1704
      1674      1677      1703      1705      1674      1677      1703      1709
      1675      1674      1677      1678      1675      1674      1677      1679
      1675      1674      1677      1703      1676      1674      1677      1678
      1676      1674      1677      1679      1676      1674      1677      1703
      1677      1679      1680      1681      1677      1679      1680      1682
      1677      1679      1680      1683      1677      1679      1684      1685
      1677      1679      1684      1686      1677      1679      1684      1687
      1677      1703      1705      1706      1677      1703      1705      1707
      1677      1703      1705      1708      1677      1703      1709      1710
      1677      1703      1709      1711      1677      1703      1709      1712
      1678      1677      1679      1680      1678      1677      1679      1684
      1678      1677      1703      1704      1678      1677      1703      1705
      1678      1677      1703      1709      1679      1669      1667      1690
      1679      1677      1703      1704      1679      1677      1703      1705
      1679      1677      1703      1709      1679      1684      1687      1688
      1679      1684      1687      1689      1679      1684      1687      1690
      1680      1679      1677      1703      1680      1679      1684      1685
      1680      1679      1684      1686      1680      1679      1684      1687
      1681      1680      1679      1684      1682      1680      1679      1684
      1683      1680      1679      1684      1684      1679      1677      1703
      1684      1687      1690      1691      1684      1687      1690      1692
      1685      1684      1687      1688      1685      1684      1687      1689
      1685      1684      1687      1690      1686      1684      1687      1688
      1686      1684      1687      1689      1686      1684      1687      1690
      1687      1690      1692      1693      1687      1690      1692      1697
      1688      1687      1690      1691      1688      1687      1690      1692
      1689      1687      1690      1691      1689      1687      1690      1692
      1690      1692      1693      1694      1690      1692      1693      1695
      1690      1692      1693      1696      1690      1692      1697      1698
      1690      1692      1697      1699      1690      1692      1697      1700
      1691      1690      1692      1693      1691      1690      1692      1697
      1692      1697      1700      1701      1692      1697      1700      1702
      1693      1692      1697      1698      1693      1692      1697      1699
      1693      1692      1697      1700      1694      1693      1692      1697
      1695      1693      1692      1697      1696      1693      1692      1697
      1698      1697      1700      1701      1698      1697      1700      1702
      1699      1697      1700      1701      1699      1697      1700      1702
      1703      1709      1712      1713      1703      1709      1712      1714
      1703      1709      1712      1715      1704      1703      1705      1706
      1704      1703      1705      1707      1704      1703      1705      1708
      1704      1703      1709      1710      1704      1703      1709      1711
      1704      1703      1709      1712      1705      1703      1709      1710
      1705      1703      1709      1711      1705      1703      1709      1712
      1706      1705      1703      1709      1707      1705      1703      1709
      1708      1705      1703      1709      1709      1712      1715      1716
      1709      1712      1715      1717      1709      1712      1715      1718
      1710      1709      1712      1713      1710      1709      1712      1714
      1710      1709      1712      1715      1711      1709      1712      1713
      1711      1709      1712      1714      1711      1709      1712      1715
      1712      1715      1718      1719      1712      1715      1718      1720
      1712      1715      1718      1724      1713      1712      1715      1716
      1713      1712      1715      1717      1713      1712      1715      1718
      1714      1712      1715      1716      1714      1712      1715      1717
      1714      1712      1715      1718      1715      1718      1720      1721
      1715      1718      1720      1722      1715      1718      1720      1723
      1715      1718      1724      1725      1715      1718      1724      1726
      1715      1718      1724      1727      1716      1715      1718      1719
      1716      1715      1718      1720      1716      1715      1718      1724
      1717      1715      1718      1719      1717      1715      1718      1720
      1717      1715      1718      1724      1719      1718      1720      1721
      1719      1718      1720      1722      1719      1718      1720      1723
      1719      1718      1724      1725      1719      1718      1724      1726
      1719      1718      1724      1727      1720      1718      1724      1725
      1720      1718      1724      1726      1720      1718      1724      1727
      1721      1720      1718      1724      1722      1720      1718      1724
      1723      1720      1718      1724      1728      1732      1735      1736
      1728      1732      1735      1766      1728      1774      1771      1766
      1728      1774      1771      1772      1728      1774      1771      1773
      1729      1728      1730      1731      1729      1728      1732      1733
      1729      1728      1732      1734      1729      1728      1732      1735
      1729      1728      1774      1771      1729      1728      1774      1775
      1729      1728      1774      1776      1730      1728      1732      1733
      1730      1728      1732      1734      1730      1728      1732      1735
      1730      1728      1774      1771      1730      1728      1774      1775
      1730      1728      1774      1776      1731      1730      1728      1732
      1731      1730      1728      1774      1732      1728      1774      1771
      1732      1728      1774      1775      1732      1728      1774      1776
      1732      1735      1736      1737      1732      1735      1736      1738
      1732      1735      1766      1764      1732      1735      1766      1767
      1732      1735      1766      1771      1733      1732      1728      1774
      1733      1732      1735      1736      1733      1732      1735      1766
      1734      1732      1728      1774      1734      1732      1735      1736
      1734      1732      1735      1766      1735      1732      1728      1774
      1735      1736      1738      1739      1735      1736      1738      1740
      1735      1736      1738      1741      1735      1766      1764      1741
      1735      1766      1764      1761      1735      1766      1764      1765
      1735      1766      1767      1768      1735      1766      1767      1769
      1735      1766      1767      1770      1735      1766      1771      1772
      1735      1766      1771      1773      1735      1766      1771      1774
      1736      1735      1766      1764      1736      1735      1766      1767
      1736      1735      1766      1771      1736      1738      1741      1742
      1736      1738      1741      1743      1736      1738      1741      1764
      1737      1736      1735      1766      1737      1736      1738      1739
      1737      1736      1738      1740      1737      1736      1738      1741
      1738      1736      1735      1766      1738      1741      1743      1744
      1738      1741      1743      1745      1738      1741      1743      1753
      1738      1741      1764      1761      1738      1741      1764      1765
      1738      1741      1764      1766      1739      1738      1741      1742
      1739      1738      1741      1743      1739      1738      1741      1764
      1740      1738      1741      1742      1740      1738      1741      1743
      1740      1738      1741      1764      1741      1743      1745      1746
      1741      1743      1745      1747      1741      1743      1745      1748
      1741      1743      1753      1751      1741      1743      1753      1754
      1741      1743      1753      1758      1741      1764      1761      1758
      1741      1764      1761      1762      1741      1764      1761      1763
      1741      1764      1766      1767      1741      1764      1766      1771
      1742      1741      1743      1744      1742      1741      1743      1745
      1742      1741      1743      1753      1742      1741      1764      1761
      1742      1741      1764      1765      1742      1741      1764      1766
      1743      1741      1764      1761      1743      1741      1764      1765
      1743      1741      1764      1766      1743      1745      1748      1749
      1743      1745      1748      1750      1743      1745      1748      1751
      1743      1753      1751      1748      1743      1753      1751      1752
      1743      1753      1751      1777      1743      1753      1754      1755
      1743      1753      1754      1756      1743      1753      1754      1757
      1743      1753      1758      1759      1743      1753      1758      1760
      1743      1753      1758      1761      1744      1743      1741      1764
      1744      1743      1745      1746      1744      1743      1745      1747
      1744      1743      1745      1748      1744      1743      1753      1751
      1744      1743      1753      1754      1744      1743      1753      1758
      1745      1743      1741      1764      1745      1743      1753      1751
      1745      1743      1753      1754      1745      1743      1753      1758
      1745      1748      1751      1752      1745      1748      1751      1753
      1745      1748      1751      1777      1746      1745      1743      1753
      1746      1745      1748      1749      1746      1745      1748      1750
      1746      1745      1748      1751      1747      1745      1743      1753
      1747      1745      1748      1749      1747      1745      1748      1750
      1747      1745      1748      1751      1748      1745      1743      1753
      1748      1751      1753      1754      1748      1751      1753      1758
      1748      1751      1777      1778      1748      1751      1777      1779
      1748      1751      1777      1783      1749      1748      1751      1752
      1749      1748      1751      1753      1749      1748      1751      1777
      1750      1748      1751      1752      1750      1748      1751      1753
      1750      1748      1751      1777      1751      1753      1754      1755
      1751      1753      1754      1756      1751      1753      1754      1757
      1751      1753      1758      1759      1751      1753      1758      1760
      1751      1753      1758      1761      1751      1777      1779      1780
      1751      1777      1779      1781      1751      1777      1779      1782
      1751      1777      1783      1784      1751      1777      1783      1785
      1751      1777      1783      1786      1752      1751      1753      1754
      1752      1751      1753      1758      1752      1751      1777      1778
      1752      1751      1777      1779      1752      1751      1777      1783
      1753      1743      1741      1764      1753      1751      1777      1778
      1753      1751      1777      1779      1753      1751      1777      1783
      1753      1758      1761      1762      1753      1758      1761      1763
      1753      1758      1761      1764      1754      1753      1751      1777
      1754      1753      1758      1759      1754      1753      1758      1760
      1754      1753      1758      1761      1755      1754      1753      1758
      1756      1754      1753      1758      1757      1754      1753      1758
      1758      1753      1751      1777      1758      1761      1764      1765
      1758      1761      1764      1766      1759      1758      1761      1762
      1759      1758      1761      1763      1759      1758      1761      1764
      1760      1758      1761      1762      1760      1758      1761      1763
      1760      1758      1761      1764      1761      1764      1766      1767
      1761      1764      1766      1771      1762      1761      1764      1765
      1762      1761      1764      1766      1763      1761      1764      1765
      1763      1761      1764      1766      1764      1766      1767      1768
      1764      1766      1767      1769      1764      1766      1767      1770
      1764      1766      1771      1772      1764      1766      1771      1773
      1764      1766      1771      1774      1765      1764      1766      1767
      1765      1764      1766      1771      1766      1771      1774      1775
      1766      1771      1774      1776      1767      1766      1771      1772
      1767      1766      1771      1773      1767      1766      1771      1774
      1768      1767      1766      1771      1769      1767      1766      1771
      1770      1767      1766      1771      1772      1771      1774      1775
      1772      1771      1774      1776      1773      1771      1774      1775
      1773      1771      1774      1776      1777      1783      1786      1787
      1777      1783      1786      1788      1777      1783      1786      1789
      1778      1777      1779      1780      1778      1777      1779      1781
      1778      1777      1779      1782      1778      1777      1783      1784
      1778      1777      1783      1785      1778      1777      1783      1786
      1779      1777      1783      1784      1779      1777      1783      1785
      1779      1777      1783      1786      1780      1779      1777      1783
      1781      1779      1777      1783      1782      1779      1777      1783
      1783      1786      1789      1790      1783      1786      1789      1791
      1783      1786      1789      1792      1784      1783      1786      1787
      1784      1783      1786      1788      1784      1783      1786      1789
      1785      1783      1786      1787      1785      1783      1786      1788
      1785      1783      1786      1789      1786      1789      1792      1793
      1786      1789      1792      1794      1786      1789      1792      1798
      1787      1786      1789      1790      1787      1786      1789      1791
      1787      1786      1789      1792      1788      1786      1789      1790
      1788      1786      1789      1791      1788      1786      1789      1792
      1789      1792      1794      1795      1789      1792      1794      1796
      1789      1792      1794      1797      1789      1792      1798      1799
      1789      1792      1798      1800      1789      1792      1798      1801
      1790      1789      1792      1793      1790      1789      1792      1794
      1790      1789      1792      1798      1791      1789      1792      1793
      1791      1789      1792      1794      1791      1789      1792      1798
      1793      1792      1794      1795      1793      1792      1794      1796
      1793      1792      1794      1797      1793      1792      1798      1799
      1793      1792      1798      1800      1793      1792      1798      1801
      1794      1792      1798      1799      1794      1792      1798      1800
      1794      1792      1798      1801      1795      1794      1792      1798
      1796      1794      1792      1798      1797      1794      1792      1798
      1802      1815      1818      1819      1802      1815      1818      1820
      1802      1815      1818      1825      1803      1802      1807      1808
      1803      1802      1807      1809      1803      1802      1807      1810
      1803      1802      1811      1812      1803      1802      1811      1813
      1803      1802      1811      1814      1803      1802      1815      1816
      1803      1802      1815      1817      1803      1802      1815      1818
      1804      1803      1802      1807      1804      1803      1802      1811
      1804      1803      1802      1815      1805      1803      1802      1807
      1805      1803      1802      1811      1805      1803      1802      1815
      1806      1803      1802      1807      1806      1803      1802      1811
      1806      1803      1802      1815      1807      1802      1811      1812
      1807      1802      1811      1813      1807      1802      1811      1814
      1807      1802      1815      1816      1807      1802      1815      1817
      1807      1802      1815      1818      1808      1807      1802      1811
      1808      1807      1802      1815      1809      1807      1802      1811
      1809      1807      1802      1815      1810      1807      1802      1811
      1810      1807      1802      1815      1811      1802      1815      1816
      1811      1802      1815      1817      1811      1802      1815      1818
      1812      1811      1802      1815      1813      1811      1802      1815
      1814      1811      1802      1815      1815      1818      1825      1821
      1816      1815      1818      1819      1816      1815      1818      1820
      1816      1815      1818      1825      1817      1815      1818      1819
      1817      1815      1818      1820      1817      1815      1818      1825
      1818      1825      1821      1822      1818      1825      1821      1823
      1818      1825      1821      1824      1819      1818      1825      1821
      1820      1818      1825      1821      1821      1824      1826      1827
      1821      1824      1826      1828      1821      1824      1826      1831
      1822      1821      1824      1826      1823      1821      1824      1826
      1824      1826      1831      1829      1824      1826      1831      1832
      1824      1826      1831      1833      1825      1821      1824      1826
      1826      1831      1829      1830      1826      1831      1829      1881
      1826      1831      1833      1834      1826      1831      1833      1835
      1826      1831      1833      1837      1827      1826      1831      1829
      1827      1826      1831      1832      1827      1826      1831      1833
      1828      1826      1831      1829      1828      1826      1831      1832
      1828      1826      1831      1833      1829      1831      1833      1834
      1829      1831      1833      1835      1829      1831      1833      1837
      1829      1881      1883      1884      1829      1881      1883      1885
      1829      1881      1883      1886      1830      1829      1831      1832
      1830      1829      1831      1833      1830      1829      1881      1882
      1830      1829      1881      1883      1831      1829      1881      1882
      1831      1829      1881      1883      1831      1833      1835      1836
      1831      1833      1837      1838      1831      1833      1837      1839
      1832      1831      1829      1881      1832      1831      1833      1834
      1832      1831      1833      1835      1832      1831      1833      1837
      1833      1831      1829      1881      1833      1837      1839      1840
      1833      1837      1839      1841      1834      1833      1835      1836
      1834      1833      1837      1838      1834      1833      1837      1839
      1835      1833      1837      1838      1835      1833      1837      1839
      1836      1835      1833      1837      1837      1839      1841      1842
      1837      1839      1841      1843      1837      1839      1841      1844
      1838      1837      1839      1840      1838      1837      1839      1841
      1839      1841      1844      1845      1839      1841      1844      1846
      1839      1841      1844      1847      1840      1839      1841      1842
      1840      1839      1841      1843      1840      1839      1841      1844
      1841      1844      1847      1848      1841      1844      1847      1849
      1841      1844      1847      1850      1842      1841      1844      1845
      1842      1841      1844      1846      1842      1841      1844      1847
      1843      1841      1844      1845      1843      1841      1844      1846
      1843      1841      1844      1847      1844      1847      1850      1851
      1844      1847      1850      1852      1844      1847      1850      1853
      1845      1844      1847      1848      1845      1844      1847      1849
      1845      1844      1847      1850      1846      1844      1847      1848
      1846      1844      1847      1849      1846      1844      1847      1850
      1847      1850      1853      1854      1847      1850      1853      1855
      1847      1850      1853      1856      1848      1847      1850      1851
      1848      1847      1850      1852      1848      1847      1850      1853
      1849      1847      1850      1851      1849      1847      1850      1852
      1849      1847      1850      1853      1850      1853      1856      1857
      1850      1853      1856      1858      1850      1853      1856      1859
      1851      1850      1853      1854      1851      1850      1853      1855
      1851      1850      1853      1856      1852      1850      1853      1854
      1852      1850      1853      1855      1852      1850      1853      1856
      1853      1856      1859      1860      1853      1856      1859      1861
      1853      1856      1859      1862      1854      1853      1856      1857
      1854      1853      1856      1858      1854      1853      1856      1859
      1855      1853      1856      1857      1855      1853      1856      1858
      1855      1853      1856      1859      1856      1859      1862      1863
      1856      1859      1862      1864      1856      1859      1862      1865
      1857      1856      1859      1860      1857      1856      1859      1861
      1857      1856      1859      1862      1858      1856      1859      1860
      1858      1856      1859      1861      1858      1856      1859      1862
      1859      1862      1865      1866      1859      1862      1865      1867
      1859      1862      1865      1868      1860      1859      1862      1863
      1860      1859      1862      1864      1860      1859      1862      1865
      1861      1859      1862      1863      1861      1859      1862      1864
      1861      1859      1862      1865      1862      1865      1868      1869
      1862      1865      1868      1870      1862      1865      1868      1871
      1863      1862      1865      1866      1863      1862      1865      1867
      1863      1862      1865      1868      1864      1862      1865      1866
      1864      1862      1865      1867      1864      1862      1865      1868
      1865      1868      1871      1872      1865      1868      1871      1873
      1865      1868      1871      1874      1866      1865      1868      1869
      1866      1865      1868      1870      1866      1865      1868      1871
      1867      1865      1868      1869      1867      1865      1868      1870
      1867      1865      1868      1871      1868      1871      1874      1875
      1868      1871      1874      1876      1868      1871      1874      1877
      1869      1868      1871      1872      1869      1868      1871      1873
      1869      1868      1871      1874      1870      1868      1871      1872
      1870      1868      1871      1873      1870      1868      1871      1874
      1871      1874      1877      1878      1871      1874      1877      1879
      1871      1874      1877      1880      1872      1871      1874      1875
      1872      1871      1874      1876      1872      1871      1874      1877
      1873      1871      1874      1875      1873      1871      1874      1876
      1873      1871      1874      1877      1875      1874      1877      1878
      1875      1874      1877      1879      1875      1874      1877      1880
      1876      1874      1877      1878      1876      1874      1877      1879
      1876      1874      1877      1880      1881      1883      1886      1887
      1881      1883      1886      1888      1881      1883      1886      1889
      1882      1881      1883      1884      1882      1881      1883      1885
      1882      1881      1883      1886      1883      1886      1889      1890
      1883      1886      1889      1891      1883      1886      1889      1892
      1884      1883      1886      1887      1884      1883      1886      1888
      1884      1883      1886      1889      1885      1883      1886      1887
      1885      1883      1886      1888      1885      1883      1886      1889
      1886      1889      1892      1893      1886      1889      1892      1894
      1886      1889      1892      1895      1887      1886      1889      1890
      1887      1886      1889      1891      1887      1886      1889      1892
      1888      1886      1889      1890      1888      1886      1889      1891
      1888      1886      1889      1892      1889      1892      1895      1896
      1889      1892      1895      1897      1889      1892      1895      1898
      1890      1889      1892      1893      1890      1889      1892      1894
      1890      1889      1892      1895      1891      1889      1892      1893
      1891      1889      1892      1894      1891      1889      1892      1895
      1892      1895      1898      1899      1892      1895      1898      1900
      1892      1895      1898      1901      1893      1892      1895      1896
      1893      1892      1895      1897      1893      1892      1895      1898
      1894      1892      1895      1896      1894      1892      1895      1897
      1894      1892      1895      1898      1895      1898      1901      1902
      1895      1898      1901      1903      1895      1898      1901      1904
      1896      1895      1898      1899      1896      1895      1898      1900
      1896      1895      1898      1901      1897      1895      1898      1899
      1897      1895      1898      1900      1897      1895      1898      1901
      1898      1901      1904      1905      1898      1901      1904      1906
      1898      1901      1904      1907      1899      1898      1901      1902
      1899      1898      1901      1903      1899      1898      1901      1904
      1900      1898      1901      1902      1900      1898      1901      1903
      1900      1898      1901      1904      1901      1904      1907      1908
      1901      1904      1907      1909      1901      1904      1907      1910
      1902      1901      1904      1905      1902      1901      1904      1906
      1902      1901      1904      1907      1903      1901      1904      1905
      1903      1901      1904      1906      1903      1901      1904      1907
      1904      1907      1910      1911      1904      1907      1910      1912
      1904      1907      1910      1913      1905      1904      1907      1908
      1905      1904      1907      1909      1905      1904      1907      1910
      1906      1904      1907      1908      1906      1904      1907      1909
      1906      1904      1907      1910      1907      1910      1913      1914
      1907      1910      1913      1915      1907      1910      1913      1916
      1908      1907      1910      1911      1908      1907      1910      1912
      1908      1907      1910      1913      1909      1907      1910      1911
      1909      1907      1910      1912      1909      1907      1910      1913
      1910      1913      1916      1917      1910      1913      1916      1918
      1910      1913      1916      1919      1911      1910      1913      1914
      1911      1910      1913      1915      1911      1910      1913      1916
      1912      1910      1913      1914      1912      1910      1913      1915
      1912      1910      1913      1916      1913      1916      1919      1920
      1913      1916      1919      1921      1913      1916      1919      1922
      1914      1913      1916      1917      1914      1913      1916      1918
      1914      1913      1916      1919      1915      1913      1916      1917
      1915      1913      1916      1918      1915      1913      1916      1919
      1916      1919      1922      1923      1916      1919      1922      1924
      1916      1919      1922      1925      1917      1916      1919      1920
      1917      1916      1919      1921      1917      1916      1919      1922
      1918      1916      1919      1920      1918      1916      1919      1921
      1918      1916      1919      1922      1919      1922      1925      1926
      1919      1922      1925      1927      1919      1922      1925      1928
      1920      1919      1922      1923      1920      1919      1922      1924
      1920      1919      1922      1925      1921      1919      1922      1923
      1921      1919      1922      1924      1921      1919      1922      1925
      1923      1922      1925      1926      1923      1922      1925      1927
      1923      1922      1925      1928      1924      1922      1925      1926
      1924      1922      1925      1927      1924      1922      1925      1928
      1929      1930      1945      1946      1929      1930      1945      1947
      1929      1930      1945      1951      1930      1929      1933      1934
      1930      1929      1933      1935      1930      1929      1933      1936
      1930      1929      1937      1938      1930      1929      1937      1939
      1930      1929      1937      1940      1930      1929      1941      1942
      1930      1929      1941      1943      1930      1929      1941      1944
      1930      1945      1951      1948      1931      1930      1929      1933
      1931      1930      1929      1937      1931      1930      1929      1941
      1931      1930      1945      1946      1931      1930      1945      1947
      1931      1930      1945      1951      1932      1930      1929      1933
      1932      1930      1929      1937      1932      1930      1929      1941
      1932      1930      1945      1946      1932      1930      1945      1947
      1932      1930      1945      1951      1933      1929      1930      1945
      1933      1929      1937      1938      1933      1929      1937      1939
      1933      1929      1937      1940      1933      1929      1941      1942
      1933      1929      1941      1943      1933      1929      1941      1944
      1934      1933      1929      1937      1934      1933      1929      1941
      1935      1933      1929      1937      1935      1933      1929      1941
      1936      1933      1929      1937      1936      1933      1929      1941
      1937      1929      1930      1945      1937      1929      1941      1942
      1937      1929      1941      1943      1937      1929      1941      1944
      1938      1937      1929      1941      1939      1937      1929      1941
      1940      1937      1929      1941      1941      1929      1930      1945
      1945      1951      1948      1949      1945      1951      1948      1950
      1945      1951      1948      1952      1946      1945      1951      1948
      1947      1945      1951      1948      1948      1952      1953      1954
      1948      1952      1953      1955      1948      1952      1953      1956
      1949      1948      1952      1953      1950      1948      1952      1953
      1951      1948      1952      1953      1952      1953      1956      1957
      1952      1953      1956      1958      1952      1953      1956      1964
      1953      1956      1958      1959      1953      1956      1964      1965
      1953      1956      1964      1966      1953      1956      1964      1967
      1954      1953      1956      1957      1954      1953      1956      1958
      1954      1953      1956      1964      1955      1953      1956      1957
      1955      1953      1956      1958      1955      1953      1956      1964
      1956      1958      1959      1960      1956      1958      1959      1961
      1956      1964      1967      1968      1957      1956      1958      1959
      1957      1956      1964      1965      1957      1956      1964      1966
      1957      1956      1964      1967      1958      1956      1964      1965
      1958      1956      1964      1966      1958      1956      1964      1967
      1958      1959      1961      1962      1958      1959      1961      1963
      1958      1959      1961      1973      1959      1958      1956      1964
      1959      1961      1973      1974      1959      1961      1973      1975
      1959      1961      1973      1976      1960      1959      1961      1962
      1960      1959      1961      1963      1960      1959      1961      1973
      1961      1973      1976      1977      1961      1973      1976      1978
      1961      1973      1976      1979      1962      1961      1973      1974
      1962      1961      1973      1975      1962      1961      1973      1976
      1963      1961      1973      1974      1963      1961      1973      1975
      1963      1961      1973      1976      1964      1967      1968      1969
      1964      1967      1968      1970      1965      1964      1967      1968
      1966      1964      1967      1968      1967      1968      1970      1971
      1967      1968      1970      1972      1967      1968      1970      2020
      1968      1970      2020      2021      1968      1970      2020      2022
      1968      1970      2020      2023      1969      1968      1970      1971
      1969      1968      1970      1972      1969      1968      1970      2020
      1970      2020      2023      2024      1970      2020      2023      2025
      1970      2020      2023      2026      1971      1970      2020      2021
      1971      1970      2020      2022      1971      1970      2020      2023
      1972      1970      2020      2021      1972      1970      2020      2022
      1972      1970      2020      2023      1973      1976      1979      1980
      1973      1976      1979      1981      1973      1976      1979      1982
      1974      1973      1976      1977      1974      1973      1976      1978
      1974      1973      1976      1979      1975      1973      1976      1977
      1975      1973      1976      1978      1975      1973      1976      1979
      1976      1979      1982      1983      1976      1979      1982      1984
      1976      1979      1982      1985      1977      1976      1979      1980
      1977      1976      1979      1981      1977      1976      1979      1982
      1978      1976      1979      1980      1978      1976      1979      1981
      1978      1976      1979      1982      1979      1982      1985      1986
      1979      1982      1985      1987      1979      1982      1985      1988
      1980      1979      1982      1983      1980      1979      1982      1984
      1980      1979      1982      1985      1981      1979      1982      1983
      1981      1979      1982      1984      1981      1979      1982      1985
      1982      1985      1988      1989      1982      1985      1988      1990
      1982      1985      1988      1991      1983      1982      1985      1986
      1983      1982      1985      1987      1983      1982      1985      1988
      1984      1982      1985      1986      1984      1982      1985      1987
      1984      1982      1985      1988      1985      1988      1991      1992
      1985      1988      1991      1993      1986      1985      1988      1989
      1986      1985      1988      1990      1986      1985      1988      1991
      1987      1985      1988      1989      1987      1985      1988      1990
      1987      1985      1988      1991      1988      1991      1993      1994
      1988      1991      1993      1995      1989      1988      1991      1992
      1989      1988      1991      1993      1990      1988      1991      1992
      1990      1988      1991      1993      1991      1993      1995      1996
      1991      1993      1995      1997      1991      1993      1995      1998
      1992      1991      1993      1994      1992      1991      1993      1995
      1993      1995      1998      1999      1993      1995      1998      2000
      1993      1995      1998      2001      1994      1993      1995      1996
      1994      1993      1995      1997      1994      1993      1995      1998
      1995      1998      2001      2002      1995      1998      2001      2003
      1995      1998      2001      2004      1996      1995      1998      1999
      1996      1995      1998      2000      1996      1995      1998      2001
      1997      1995      1998      1999      1997      1995      1998      2000
      1997      1995      1998      2001      1998      2001      2004      2005
      1998      2001      2004      2006      1998      2001      2004      2007
      1999      1998      2001      2002      1999      1998      2001      2003
      1999      1998      2001      2004      2000      1998      2001      2002
      2000      1998      2001      2003      2000      1998      2001      2004
      2001      2004      2007      2008      2001      2004      2007      2009
      2001      2004      2007      2010      2002      2001      2004      2005
      2002      2001      2004      2006      2002      2001      2004      2007
      2003      2001      2004      2005      2003      2001      2004      2006
      2003      2001      2004      2007      2004      2007      2010      2011
      2004      2007      2010      2012      2004      2007      2010      2013
      2005      2004      2007      2008      2005      2004      2007      2009
      2005      2004      2007      2010      2006      2004      2007      2008
      2006      2004      2007      2009      2006      2004      2007      2010
      2007      2010      2013      2014      2007      2010      2013      2015
      2007      2010      2013      2016      2008      2007      2010      2011
      2008      2007      2010      2012      2008      2007      2010      2013
      2009      2007      2010      2011      2009      2007      2010      2012
      2009      2007      2010      2013      2010      2013      2016      2017
      2010      2013      2016      2018      2010      2013      2016      2019
      2011      2010      2013      2014      2011      2010      2013      2015
      2011      2010      2013      2016      2012      2010      2013      2014
      2012      2010      2013      2015      2012      2010      2013      2016
      2014      2013      2016      2017      2014      2013      2016      2018
      2014      2013      2016      2019      2015      2013      2016      2017
      2015      2013      2016      2018      2015      2013      2016      2019
      2020      2023      2026      2027      2020      2023      2026      2028
      2020      2023      2026      2029      2021      2020      2023      2024
      2021      2020      2023      2025      2021      2020      2023      2026
      2022      2020      2023      2024      2022      2020      2023      2025
      2022      2020      2023      2026      2023      2026      2029      2030
      2023      2026      2029      2031      2023      2026      2029      2032
      2024      2023      2026      2027      2024      2023      2026      2028
      2024      2023      2026      2029      2025      2023      2026      2027
      2025      2023      2026      2028      2025      2023      2026      2029
      2026      2029      2032      2033      2026      2029      2032      2034
      2026      2029      2032      2035      2027      2026      2029      2030
      2027      2026      2029      2031      2027      2026      2029      2032
      2028      2026      2029      2030      2028      2026      2029      2031
      2028      2026      2029      2032      2029      2032      2035      2036
      2029      2032      2035      2037      2029      2032      2035      2038
      2030      2029      2032      2033      2030      2029      2032      2034
      2030      2029      2032      2035      2031      2029      2032      2033
      2031      2029      2032      2034      2031      2029      2032      2035
      2032      2035      2038      2039      2032      2035      2038      2040
      2032      2035      2038      2041      2033      2032      2035      2036
      2033      2032      2035      2037      2033      2032      2035      2038
      2034      2032      2035      2036      2034      2032      2035      2037
      2034      2032      2035      2038      2035      2038      2041      2042
      2035      2038      2041      2043      2035      2038      2041      2044
      2036      2035      2038      2039      2036      2035      2038      2040
      2036      2035      2038      2041      2037      2035      2038      2039
      2037      2035      2038      2040      2037      2035      2038      2041
      2038      2041      2044      2045      2038      2041      2044      2046
      2038      2041      2044      2047      2039      2038      2041      2042
      2039      2038      2041      2043      2039      2038      2041      2044
      2040      2038      2041      2042      2040      2038      2041      2043
      2040      2038      2041      2044      2041      2044      2047      2048
      2041      2044      2047      2049      2041      2044      2047      2050
      2042      2041      2044      2045      2042      2041      2044      2046
      2042      2041      2044      2047      2043      2041      2044      2045
      2043      2041      2044      2046      2043      2041      2044      2047
      2044      2047      2050      2051      2044      2047      2050      2052
      2044      2047      2050      2053      2045      2044      2047      2048
      2045      2044      2047      2049      2045      2044      2047      2050
      2046      2044      2047      2048      2046      2044      2047      2049
      2046      2044      2047      2050      2047      2050      2053      2054
      2047      2050      2053      2055      2047      2050      2053      2056
      2048      2047      2050      2051      2048      2047      2050      2052
      2048      2047      2050      2053      2049      2047      2050      2051
      2049      2047      2050      2052      2049      2047      2050      2053
      2050      2053      2056      2057      2050      2053      2056      2058
      2050      2053      2056      2059      2051      2050      2053      2054
      2051      2050      2053      2055      2051      2050      2053      2056
      2052      2050      2053      2054      2052      2050      2053      2055
      2052      2050      2053      2056      2053      2056      2059      2060
      2053      2056      2059      2061      2053      2056      2059      2062
      2054      2053      2056      2057      2054      2053      2056      2058
      2054      2053      2056      2059      2055      2053      2056      2057
      2055      2053      2056      2058      2055      2053      2056      2059
      2057      2056      2059      2060      2057      2056      2059      2061
      2057      2056      2059      2062      2058      2056      2059      2060
      2058      2056      2059      2061      2058      2056      2059      2062
      2063      2067      2069      2070      2063      2067      2069      2071
      2063      2067      2072      2073      2063      2067      2072      2074
      2063      2067      2072      2078      2064      2063      2067      2068
      2064      2063      2067      2069      2064      2063      2067      2072
      2065      2063      2067      2068      2065      2063      2067      2069
      2065      2063      2067      2072      2066      2063      2067      2068
      2066      2063      2067      2069      2066      2063      2067      2072
      2067      2072      2078      2075      2068      2067      2069      2070
      2068      2067      2069      2071      2068      2067      2072      2073
      2068      2067      2072      2074      2068      2067      2072      2078
      2069      2067      2072      2073      2069      2067      2072      2074
      2069      2067      2072      2078      2070      2069      2067      2072
      2071      2069      2067      2072      2072      2078      2075      2076
      2072      2078      2075      2077      2072      2078      2075      2079
      2073      2072      2078      2075      2074      2072      2078      2075
      2075      2079      2080      2081      2075      2079      2080      2082
      2075      2079      2080      2083      2076      2075      2079      2080
      2077      2075      2079      2080      2078      2075      2079      2080
      2079      2080      2083      2084      2079      2080      2083      2085
      2079      2080      2083      2091      2080      2083      2085      2086
      2080      2083      2091      2092      2080      2083      2091      2093
      2080      2083      2091      2094      2081      2080      2083      2084
      2081      2080      2083      2085      2081      2080      2083      2091
      2082      2080      2083      2084      2082      2080      2083      2085
      2082      2080      2083      2091      2083      2085      2086      2087
      2083      2085      2086      2088      2083      2091      2094      2095
      2084      2083      2085      2086      2084      2083      2091      2092
      2084      2083      2091      2093      2084      2083      2091      2094
      2085      2083      2091      2092      2085      2083      2091      2093
      2085      2083      2091      2094      2085      2086      2088      2089
      2085      2086      2088      2090      2085      2086      2088      2100
      2086      2085      2083      2091      2086      2088      2100      2101
      2086      2088      2100      2102      2086      2088      2100      2103
      2087      2086      2088      2089      2087      2086      2088      2090
      2087      2086      2088      2100      2088      2100      2103      2104
      2088      2100      2103      2105      2088      2100      2103      2106
      2089      2088      2100      2101      2089      2088      2100      2102
      2089      2088      2100      2103      2090      2088      2100      2101
      2090      2088      2100      2102      2090      2088      2100      2103
      2091      2094      2095      2096      2091      2094      2095      2097
      2092      2091      2094      2095      2093      2091      2094      2095
      2094      2095      2097      2098      2094      2095      2097      2099
      2094      2095      2097      2147      2095      2097      2147      2148
      2095      2097      2147      2149      2095      2097      2147      2150
      2096      2095      2097      2098      2096      2095      2097      2099
      2096      2095      2097      2147      2097      2147      2150      2151
      2097      2147      2150      2152      2097      2147      2150      2153
      2098      2097      2147      2148      2098      2097      2147      2149
      2098      2097      2147      2150      2099      2097      2147      2148
      2099      2097      2147      2149      2099      2097      2147      2150
      2100      2103      2106      2107      2100      2103      2106      2108
      2100      2103      2106      2109      2101      2100      2103      2104
      2101      2100      2103      2105      2101      2100      2103      2106
      2102      2100      2103      2104      2102      2100      2103      2105
      2102      2100      2103      2106      2103      2106      2109      2110
      2103      2106      2109      2111      2103      2106      2109      2112
      2104      2103      2106      2107      2104      2103      2106      2108
      2104      2103      2106      2109      2105      2103      2106      2107
      2105      2103      2106      2108      2105      2103      2106      2109
      2106      2109      2112      2113      2106      2109      2112      2114
      2106      2109      2112      2115      2107      2106      2109      2110
      2107      2106      2109      2111      2107      2106      2109      2112
      2108      2106      2109      2110      2108      2106      2109      2111
      2108      2106      2109      2112      2109      2112      2115      2116
      2109      2112      2115      2117      2109      2112      2115      2118
      2110      2109      2112      2113      2110      2109      2112      2114
      2110      2109      2112      2115      2111      2109      2112      2113
      2111      2109      2112      2114      2111      2109      2112      2115
      2112      2115      2118      2119      2112      2115      2118      2120
      2113      2112      2115      2116      2113      2112      2115      2117
      2113      2112      2115      2118      2114      2112      2115      2116
      2114      2112      2115      2117      2114      2112      2115      2118
      2115      2118      2120      2121      2115      2118      2120      2122
      2116      2115      2118      2119      2116      2115      2118      2120
      2117      2115      2118      2119      2117      2115      2118      2120
      2118      2120      2122      2123      2118      2120      2122      2124
      2118      2120      2122      2125      2119      2118      2120      2121
      2119      2118      2120      2122      2120      2122      2125      2126
      2120      2122      2125      2127      2120      2122      2125      2128
      2121      2120      2122      2123      2121      2120      2122      2124
      2121      2120      2122      2125      2122      2125      2128      2129
      2122      2125      2128      2130      2122      2125      2128      2131
      2123      2122      2125      2126      2123      2122      2125      2127
      2123      2122      2125      2128      2124      2122      2125      2126
      2124      2122      2125      2127      2124      2122      2125      2128
      2125      2128      2131      2132      2125      2128      2131      2133
      2125      2128      2131      2134      2126      2125      2128      2129
      2126      2125      2128      2130      2126      2125      2128      2131
      2127      2125      2128      2129      2127      2125      2128      2130
      2127      2125      2128      2131      2128      2131      2134      2135
      2128      2131      2134      2136      2128      2131      2134      2137
      2129      2128      2131      2132      2129      2128      2131      2133
      2129      2128      2131      2134      2130      2128      2131      2132
      2130      2128      2131      2133      2130      2128      2131      2134
      2131      2134      2137      2138      2131      2134      2137      2139
      2131      2134      2137      2140      2132      2131      2134      2135
      2132      2131      2134      2136      2132      2131      2134      2137
      2133      2131      2134      2135      2133      2131      2134      2136
      2133      2131      2134      2137      2134      2137      2140      2141
      2134      2137      2140      2142      2134      2137      2140      2143
      2135      2134      2137      2138      2135      2134      2137      2139
      2135      2134      2137      2140      2136      2134      2137      2138
      2136      2134      2137      2139      2136      2134      2137      2140
      2137      2140      2143      2144      2137      2140      2143      2145
      2137      2140      2143      2146      2138      2137      2140      2141
      2138      2137      2140      2142      2138      2137      2140      2143
      2139      2137      2140      2141      2139      2137      2140      2142
      2139      2137      2140      2143      2141      2140      2143      2144
      2141      2140      2143      2145      2141      2140      2143      2146
      2142      2140      2143      2144      2142      2140      2143      2145
      2142      2140      2143      2146      2147      2150      2153      2154
      2147      2150      2153      2155      2147      2150      2153      2156
      2148      2147      2150      2151      2148      2147      2150      2152
      2148      2147      2150      2153      2149      2147      2150      2151
      2149      2147      2150      2152      2149      2147      2150      2153
      2150      2153      2156      2157      2150      2153      2156      2158
      2150      2153      2156      2159      2151      2150      2153      2154
      2151      2150      2153      2155      2151      2150      2153      2156
      2152      2150      2153      2154      2152      2150      2153      2155
      2152      2150      2153      2156      2153      2156      2159      2160
      2153      2156      2159      2161      2153      2156      2159      2162
      2154      2153      2156      2157      2154      2153      2156      2158
      2154      2153      2156      2159      2155      2153      2156      2157
      2155      2153      2156      2158      2155      2153      2156      2159
      2156      2159      2162      2163      2156      2159      2162      2164
      2156      2159      2162      2165      2157      2156      2159      2160
      2157      2156      2159      2161      2157      2156      2159      2162
      2158      2156      2159      2160      2158      2156      2159      2161
      2158      2156      2159      2162      2159      2162      2165      2166
      2159      2162      2165      2167      2159      2162      2165      2168
      2160      2159      2162      2163      2160      2159      2162      2164
      2160      2159      2162      2165      2161      2159      2162      2163
      2161      2159      2162      2164      2161      2159      2162      2165
      2162      2165      2168      2169      2162      2165      2168      2170
      2162      2165      2168      2171      2163      2162      2165      2166
      2163      2162      2165      2167      2163      2162      2165      2168
      2164      2162      2165      2166      2164      2162      2165      2167
      2164      2162      2165      2168      2165      2168      2171      2172
      2165      2168      2171      2173      2165      2168      2171      2174
      2166      2165      2168      2169      2166      2165      2168      2170
      2166      2165      2168      2171      2167      2165      2168      2169
      2167      2165      2168      2170      2167      2165      2168      2171
      2168      2171      2174      2175      2168      2171      2174      2176
      2168      2171      2174      2177      2169      2168      2171      2172
      2169      2168      2171      2173      2169      2168      2171      2174
      2170      2168      2171      2172      2170      2168      2171      2173
      2170      2168      2171      2174      2171      2174      2177      2178
      2171      2174      2177      2179      2171      2174      2177      2180
      2172      2171      2174      2175      2172      2171      2174      2176
      2172      2171      2174      2177      2173      2171      2174      2175
      2173      2171      2174      2176      2173      2171      2174      2177
      2174      2177      2180      2181      2174      2177      2180      2182
      2174      2177      2180      2183      2175      2174      2177      2178
      2175      2174      2177      2179      2175      2174      2177      2180
      2176      2174      2177      2178      2176      2174      2177      2179
      2176      2174      2177      2180      2177      2180      2183      2184
      2177      2180      2183      2185      2177      2180      2183      2186
      2178      2177      2180      2181      2178      2177      2180      2182
      2178      2177      2180      2183      2179      2177      2180      2181
      2179      2177      2180      2182      2179      2177      2180      2183
      2180      2183      2186      2187      2180      2183      2186      2188
      2180      2183      2186      2189      2181      2180      2183      2184
      2181      2180      2183      2185      2181      2180      2183      2186
      2182      2180      2183      2184      2182      2180      2183      2185
      2182      2180      2183      2186      2184      2183      2186      2187
      2184      2183      2186      2188      2184      2183      2186      2189
      2185      2183      2186      2187      2185      2183      2186      2188
      2185      2183      2186      2189      2190      2203      2206      2207
      2190      2203      2206      2208      2190      2203      2206      2213
      2191      2190      2195      2196      2191      2190      2195      2197
      2191      2190      2195      2198      2191      2190      2199      2200
      2191      2190      2199      2201      2191      2190      2199      2202
      2191      2190      2203      2204      2191      2190      2203      2205
      2191      2190      2203      2206      2192      2191      2190      2195
      2192      2191      2190      2199      2192      2191      2190      2203
      2193      2191      2190      2195      2193      2191      2190      2199
      2193      2191      2190      2203      2194      2191      2190      2195
      2194      2191      2190      2199      2194      2191      2190      2203
      2195      2190      2199      2200      2195      2190      2199      2201
      2195      2190      2199      2202      2195      2190      2203      2204
      2195      2190      2203      2205      2195      2190      2203      2206
      2196      2195      2190      2199      2196      2195      2190      2203
      2197      2195      2190      2199      2197      2195      2190      2203
      2198      2195      2190      2199      2198      2195      2190      2203
      2199      2190      2203      2204      2199      2190      2203      2205
      2199      2190      2203      2206      2200      2199      2190      2203
      2201      2199      2190      2203      2202      2199      2190      2203
      2203      2206      2213      2209      2204      2203      2206      2207
      2204      2203      2206      2208      2204      2203      2206      2213
      2205      2203      2206      2207      2205      2203      2206      2208
      2205      2203      2206      2213      2206      2213      2209      2210
      2206      2213      2209      2211      2206      2213      2209      2212
      2207      2206      2213      2209      2208      2206      2213      2209
      2209      2212      2214      2215      2209      2212      2214      2216
      2209      2212      2214      2219      2210      2209      2212      2214
      2211      2209      2212      2214      2212      2214      2219      2217
      2212      2214      2219      2220      2212      2214      2219      2221
      2213      2209      2212      2214      2214      2219      2217      2218
      2214      2219      2217      2269      2214      2219      2221      2222
      2214      2219      2221      2223      2214      2219      2221      2225
      2215      2214      2219      2217      2215      2214      2219      2220
      2215      2214      2219      2221      2216      2214      2219      2217
      2216      2214      2219      2220      2216      2214      2219      2221
      2217      2219      2221      2222      2217      2219      2221      2223
      2217      2219      2221      2225      2217      2269      2271      2272
      2217      2269      2271      2273      2217      2269      2271      2274
      2218      2217      2219      2220      2218      2217      2219      2221
      2218      2217      2269      2270      2218      2217      2269      2271
      2219      2217      2269      2270      2219      2217      2269      2271
      2219      2221      2223      2224      2219      2221      2225      2226
      2219      2221      2225      2227      2220      2219      2217      2269
      2220      2219      2221      2222      2220      2219      2221      2223
      2220      2219      2221      2225      2221      2219      2217      2269
      2221      2225      2227      2228      2221      2225      2227      2229
      2222      2221      2223      2224      2222      2221      2225      2226
      2222      2221      2225      2227      2223      2221      2225      2226
      2223      2221      2225      2227      2224      2223      2221      2225
      2225      2227      2229      2230      2225      2227      2229      2231
      2225      2227      2229      2232      2226      2225      2227      2228
      2226      2225      2227      2229      2227      2229      2232      2233
      2227      2229      2232      2234      2227      2229      2232      2235
      2228      2227      2229      2230      2228      2227      2229      2231
      2228      2227      2229      2232      2229      2232      2235      2236
      2229      2232      2235      2237      2229      2232      2235      2238
      2230      2229      2232      2233      2230      2229      2232      2234
      2230      2229      2232      2235      2231      2229      2232      2233
      2231      2229      2232      2234      2231      2229      2232      2235
      2232      2235      2238      2239      2232      2235      2238      2240
      2232      2235      2238      2241      2233      2232      2235      2236
      2233      2232      2235      2237      2233      2232      2235      2238
      2234      2232      2235      2236      2234      2232      2235      2237
      2234      2232      2235      2238      2235      2238      2241      2242
      2235      2238      2241      2243      2235      2238      2241      2244
      2236      2235      2238      2239      2236      2235      2238      2240
      2236      2235      2238      2241      2237      2235      2238      2239
      2237      2235      2238      2240      2237      2235      2238      2241
      2238      2241      2244      2245      2238      2241      2244      2246
      2238      2241      2244      2247      2239      2238      2241      2242
      2239      2238      2241      2243      2239      2238      2241      2244
      2240      2238      2241      2242      2240      2238      2241      2243
      2240      2238      2241      2244      2241      2244      2247      2248
      2241      2244      2247      2249      2241      2244      2247      2250
      2242      2241      2244      2245      2242      2241      2244      2246
      2242      2241      2244      2247      2243      2241      2244      2245
      2243      2241      2244      2246      2243      2241      2244      2247
      2244      2247      2250      2251      2244      2247      2250      2252
      2244      2247      2250      2253      2245      2244      2247      2248
      2245      2244      2247      2249      2245      2244      2247      2250
      2246      2244      2247      2248      2246      2244      2247      2249
      2246      2244      2247      2250      2247      2250      2253      2254
      2247      2250      2253      2255      2247      2250      2253      2256
      2248      2247      2250      2251      2248      2247      2250      2252
      2248      2247      2250      2253      2249      2247      2250      2251
      2249      2247      2250      2252      2249      2247      2250      2253
      2250      2253      2256      2257      2250      2253      2256      2258
      2250      2253      2256      2259      2251      2250      2253      2254
      2251      2250      2253      2255      2251      2250      2253      2256
      2252      2250      2253      2254      2252      2250      2253      2255
      2252      2250      2253      2256      2253      2256      2259      2260
      2253      2256      2259      2261      2253      2256      2259      2262
      2254      2253      2256      2257      2254      2253      2256      2258
      2254      2253      2256      2259      2255      2253      2256      2257
      2255      2253      2256      2258      2255      2253      2256      2259
      2256      2259      2262      2263      2256      2259      2262      2264
      2256      2259      2262      2265      2257      2256      2259      2260
      2257      2256      2259      2261      2257      2256      2259      2262
      2258      2256      2259      2260      2258      2256      2259      2261
      2258      2256      2259      2262      2259      2262      2265      2266
      2259      2262      2265      2267      2259      2262      2265      2268
      2260      2259      2262      2263      2260      2259      2262      2264
      2260      2259      2262      2265      2261      2259      2262      2263
      2261      2259      2262      2264      2261      2259      2262      2265
      2263      2262      2265      2266      2263      2262      2265      2267
      2263      2262      2265      2268      2264      2262      2265      2266
      2264      2262      2265      2267      2264      2262      2265      2268
      2269      2271      2274      2275      2269      2271      2274      2276
      2269      2271      2274      2277      2270      2269      2271      2272
      2270      2269      2271      2273      2270      2269      2271      2274
      2271      2274      2277      2278      2271      2274      2277      2279
      2271      2274      2277      2280      2272      2271      2274      2275
      2272      2271      2274      2276      2272      2271      2274      2277
      2273      2271      2274      2275      2273      2271      2274      2276
      2273      2271      2274      2277      2274      2277      2280      2281
      2274      2277      2280      2282      2274      2277      2280      2283
      2275      2274      2277      2278      2275      2274      2277      2279
      2275      2274      2277      2280      2276      2274      2277      2278
      2276      2274      2277      2279      2276      2274      2277      2280
      2277      2280      2283      2284      2277      2280      2283      2285
      2277      2280      2283      2286      2278      2277      2280      2281
      2278      2277      2280      2282      2278      2277      2280      2283
      2279      2277      2280      2281      2279      2277      2280      2282
      2279      2277      2280      2283      2280      2283      2286      2287
      2280      2283      2286      2288      2280      2283      2286      2289
      2281      2280      2283      2284      2281      2280      2283      2285
      2281      2280      2283      2286      2282      2280      2283      2284
      2282      2280      2283      2285      2282      2280      2283      2286
      2283      2286      2289      2290      2283      2286      2289      2291
      2283      2286      2289      2292      2284      2283      2286      2287
      2284      2283      2286      2288      2284      2283      2286      2289
      2285      2283      2286      2287      2285      2283      2286      2288
      2285      2283      2286      2289      2286      2289      2292      2293
      2286      2289      2292      2294      2286      2289      2292      2295
      2287      2286      2289      2290      2287      2286      2289      2291
      2287      2286      2289      2292      2288      2286      2289      2290
      2288      2286      2289      2291      2288      2286      2289      2292
      2289      2292      2295      2296      2289      2292      2295      2297
      2289      2292      2295      2298      2290      2289      2292      2293
      2290      2289      2292      2294      2290      2289      2292      2295
      2291      2289      2292      2293      2291      2289      2292      2294
      2291      2289      2292      2295      2292      2295      2298      2299
      2292      2295      2298      2300      2292      2295      2298      2301
      2293      2292      2295      2296      2293      2292      2295      2297
      2293      2292      2295      2298      2294      2292      2295      2296
      2294      2292      2295      2297      2294      2292      2295      2298
      2295      2298      2301      2302      2295      2298      2301      2303
      2295      2298      2301      2304      2296      2295      2298      2299
      2296      2295      2298      2300      2296      2295      2298      2301
      2297      2295      2298      2299      2297      2295      2298      2300
      2297      2295      2298      2301      2298      2301      2304      2305
      2298      2301      2304      2306      2298      2301      2304      2307
      2299      2298      2301      2302      2299      2298      2301      2303
      2299      2298      2301      2304      2300      2298      2301      2302
      2300      2298      2301      2303      2300      2298      2301      2304
      2301      2304      2307      2308      2301      2304      2307      2309
      2301      2304      2307      2310      2302      2301      2304      2305
      2302      2301      2304      2306      2302      2301      2304      2307
      2303      2301      2304      2305      2303      2301      2304      2306
      2303      2301      2304      2307      2304      2307      2310      2311
      2304      2307      2310      2312      2304      2307      2310      2313
      2305      2304      2307      2308      2305      2304      2307      2309
      2305      2304      2307      2310      2306      2304      2307      2308
      2306      2304      2307      2309      2306      2304      2307      2310
      2307      2310      2313      2314      2307      2310      2313      2315
      2307      2310      2313      2316      2308      2307      2310      2311
      2308      2307      2310      2312      2308      2307      2310      2313
      2309      2307      2310      2311      2309      2307      2310      2312
      2309      2307      2310      2313      2311      2310      2313      2314
      2311      2310      2313      2315      2311      2310      2313      2316
      2312      2310      2313      2314      2312      2310      2313      2315
      2312      2310      2313      2316      2317      2318      2333      2334
      2317      2318      2333      2335      2317      2318      2333      2339
      2318      2317      2321      2322      2318      2317      2321      2323
      2318      2317      2321      2324      2318      2317      2325      2326
      2318      2317      2325      2327      2318      2317      2325      2328
      2318      2317      2329      2330      2318      2317      2329      2331
      2318      2317      2329      2332      2318      2333      2339      2336
      2319      2318      2317      2321      2319      2318      2317      2325
      2319      2318      2317      2329      2319      2318      2333      2334
      2319      2318      2333      2335      2319      2318      2333      2339
      2320      2318      2317      2321      2320      2318      2317      2325
      2320      2318      2317      2329      2320      2318      2333      2334
      2320      2318      2333      2335      2320      2318      2333      2339
      2321      2317      2318      2333      2321      2317      2325      2326
      2321      2317      2325      2327      2321      2317      2325      2328
      2321      2317      2329      2330      2321      2317      2329      2331
      2321      2317      2329      2332      2322      2321      2317      2325
      2322      2321      2317      2329      2323      2321      2317      2325
      2323      2321      2317      2329      2324      2321      2317      2325
      2324      2321      2317      2329      2325      2317      2318      2333
      2325      2317      2329      2330      2325      2317      2329      2331
      2325      2317      2329      2332      2326      2325      2317      2329
      2327      2325      2317      2329      2328      2325      2317      2329
      2329      2317      2318      2333      2333      2339      2336      2337
      2333      2339      2336      2338      2333      2339      2336      2340
      2334      2333      2339      2336      2335      2333      2339      2336
      2336      2340      2341      2342      2336      2340      2341      2343
      2336      2340      2341      2344      2337      2336      2340      2341
      2338      2336      2340      2341      2339      2336      2340      2341
      2340      2341      2344      2345      2340      2341      2344      2346
      2340      2341      2344      2352      2341      2344      2346      2347
      2341      2344      2352      2353      2341      2344      2352      2354
      2341      2344      2352      2355      2342      2341      2344      2345
      2342      2341      2344      2346      2342      2341      2344      2352
      2343      2341      2344      2345      2343      2341      2344      2346
      2343      2341      2344      2352      2344      2346      2347      2348
      2344      2346      2347      2349      2344      2352      2355      2356
      2345      2344      2346      2347      2345      2344      2352      2353
      2345      2344      2352      2354      2345      2344      2352      2355
      2346      2344      2352      2353      2346      2344      2352      2354
      2346      2344      2352      2355      2346      2347      2349      2350
      2346      2347      2349      2351      2346      2347      2349      2361
      2347      2346      2344      2352      2347      2349      2361      2362
      2347      2349      2361      2363      2347      2349      2361      2364
      2348      2347      2349      2350      2348      2347      2349      2351
      2348      2347      2349      2361      2349      2361      2364      2365
      2349      2361      2364      2366      2349      2361      2364      2367
      2350      2349      2361      2362      2350      2349      2361      2363
      2350      2349      2361      2364      2351      2349      2361      2362
      2351      2349      2361      2363      2351      2349      2361      2364
      2352      2355      2356      2357      2352      2355      2356      2358
      2353      2352      2355      2356      2354      2352      2355      2356
      2355      2356      2358      2359      2355      2356      2358      2360
      2355      2356      2358      2408      2356      2358      2408      2409
      2356      2358      2408      2410      2356      2358      2408      2411
      2357      2356      2358      2359      2357      2356      2358      2360
      2357      2356      2358      2408      2358      2408      2411      2412
      2358      2408      2411      2413      2358      2408      2411      2414
      2359      2358      2408      2409      2359      2358      2408      2410
      2359      2358      2408      2411      2360      2358      2408      2409
      2360      2358      2408      2410      2360      2358      2408      2411
      2361      2364      2367      2368      2361      2364      2367      2369
      2361      2364      2367      2370      2362      2361      2364      2365
      2362      2361      2364      2366      2362      2361      2364      2367
      2363      2361      2364      2365      2363      2361      2364      2366
      2363      2361      2364      2367      2364      2367      2370      2371
      2364      2367      2370      2372      2364      2367      2370      2373
      2365      2364      2367      2368      2365      2364      2367      2369
      2365      2364      2367      2370      2366      2364      2367      2368
      2366      2364      2367      2369      2366      2364      2367      2370
      2367      2370      2373      2374      2367      2370      2373      2375
      2367      2370      2373      2376      2368      2367      2370      2371
      2368      2367      2370      2372      2368      2367      2370      2373
      2369      2367      2370      2371      2369      2367      2370      2372
      2369      2367      2370      2373      2370      2373      2376      2377
      2370      2373      2376      2378      2370      2373      2376      2379
      2371      2370      2373      2374      2371      2370      2373      2375
      2371      2370      2373      2376      2372      2370      2373      2374
      2372      2370      2373      2375      2372      2370      2373      2376
      2373      2376      2379      2380      2373      2376      2379      2381
      2374      2373      2376      2377      2374      2373      2376      2378
      2374      2373      2376      2379      2375      2373      2376      2377
      2375      2373      2376      2378      2375      2373      2376      2379
      2376      2379      2381      2382      2376      2379      2381      2383
      2377      2376      2379      2380      2377      2376      2379      2381
      2378      2376      2379      2380      2378      2376      2379      2381
      2379      2381      2383      2384      2379      2381      2383      2385
      2379      2381      2383      2386      2380      2379      2381      2382
      2380      2379      2381      2383      2381      2383      2386      2387
      2381      2383      2386      2388      2381      2383      2386      2389
      2382      2381      2383      2384      2382      2381      2383      2385
      2382      2381      2383      2386      2383      2386      2389      2390
      2383      2386      2389      2391      2383      2386      2389      2392
      2384      2383      2386      2387      2384      2383      2386      2388
      2384      2383      2386      2389      2385      2383      2386      2387
      2385      2383      2386      2388      2385      2383      2386      2389
      2386      2389      2392      2393      2386      2389      2392      2394
      2386      2389      2392      2395      2387      2386      2389      2390
      2387      2386      2389      2391      2387      2386      2389      2392
      2388      2386      2389      2390      2388      2386      2389      2391
      2388      2386      2389      2392      2389      2392      2395      2396
      2389      2392      2395      2397      2389      2392      2395      2398
      2390      2389      2392      2393      2390      2389      2392      2394
      2390      2389      2392      2395      2391      2389      2392      2393
      2391      2389      2392      2394      2391      2389      2392      2395
      2392      2395      2398      2399      2392      2395      2398      2400
      2392      2395      2398      2401      2393      2392      2395      2396
      2393      2392      2395      2397      2393      2392      2395      2398
      2394      2392      2395      2396      2394      2392      2395      2397
      2394      2392      2395      2398      2395      2398      2401      2402
      2395      2398      2401      2403      2395      2398      2401      2404
      2396      2395      2398      2399      2396      2395      2398      2400
      2396      2395      2398      2401      2397      2395      2398      2399
      2397      2395      2398      2400      2397      2395      2398      2401
      2398      2401      2404      2405      2398      2401      2404      2406
      2398      2401      2404      2407      2399      2398      2401      2402
      2399      2398      2401      2403      2399      2398      2401      2404
      2400      2398      2401      2402      2400      2398      2401      2403
      2400      2398      2401      2404      2402      2401      2404      2405
      2402      2401      2404      2406      2402      2401      2404      2407
      2403      2401      2404      2405      2403      2401      2404      2406
      2403      2401      2404      2407      2408      2411      2414      2415
      2408      2411      2414      2416      2408      2411      2414      2417
      2409      2408      2411      2412      2409      2408      2411      2413
      2409      2408      2411      2414      2410      2408      2411      2412
      2410      2408      2411      2413      2410      2408      2411      2414
      2411      2414      2417      2418      2411      2414      2417      2419
      2411      2414      2417      2420      2412      2411      2414      2415
      2412      2411      2414      2416      2412      2411      2414      2417
      2413      2411      2414      2415      2413      2411      2414      2416
      2413      2411      2414      2417      2414      2417      2420      2421
      2414      2417      2420      2422      2414      2417      2420      2423
      2415      2414      2417      2418      2415      2414      2417      2419
      2415      2414      2417      2420      2416      2414      2417      2418
      2416      2414      2417      2419      2416      2414      2417      2420
      2417      2420      2423      2424      2417      2420      2423      2425
      2417      2420      2423      2426      2418      2417      2420      2421
      2418      2417      2420      2422      2418      2417      2420      2423
      2419      2417      2420      2421      2419      2417      2420      2422
      2419      2417      2420      2423      2420      2423      2426      2427
      2420      2423      2426      2428      2420      2423      2426      2429
      2421      2420      2423      2424      2421      2420      2423      2425
      2421      2420      2423      2426      2422      2420      2423      2424
      2422      2420      2423      2425      2422      2420      2423      2426
      2423      2426      2429      2430      2423      2426      2429      2431
      2423      2426      2429      2432      2424      2423      2426      2427
      2424      2423      2426      2428      2424      2423      2426      2429
      2425      2423      2426      2427      2425      2423      2426      2428
      2425      2423      2426      2429      2426      2429      2432      2433
      2426      2429      2432      2434      2426      2429      2432      2435
      2427      2426      2429      2430      2427      2426      2429      2431
      2427      2426      2429      2432      2428      2426      2429      2430
      2428      2426      2429      2431      2428      2426      2429      2432
      2429      2432      2435      2436      2429      2432      2435      2437
      2429      2432      2435      2438      2430      2429      2432      2433
      2430      2429      2432      2434      2430      2429      2432      2435
      2431      2429      2432      2433      2431      2429      2432      2434
      2431      2429      2432      2435      2432      2435      2438      2439
      2432      2435      2438      2440      2432      2435      2438      2441
      2433      2432      2435      2436      2433      2432      2435      2437
      2433      2432      2435      2438      2434      2432      2435      2436
      2434      2432      2435      2437      2434      2432      2435      2438
      2435      2438      2441      2442      2435      2438      2441      2443
      2435      2438      2441      2444      2436      2435      2438      2439
      2436      2435      2438      2440      2436      2435      2438      2441
      2437      2435      2438      2439      2437      2435      2438      2440
      2437      2435      2438      2441      2438      2441      2444      2445
      2438      2441      2444      2446      2438      2441      2444      2447
      2439      2438      2441      2442      2439      2438      2441      2443
      2439      2438      2441      2444      2440      2438      2441      2442
      2440      2438      2441      2443      2440      2438      2441      2444
      2441      2444      2447      2448      2441      2444      2447      2449
      2441      2444      2447      2450      2442      2441      2444      2445
      2442      2441      2444      2446      2442      2441      2444      2447
      2443      2441      2444      2445      2443      2441      2444      2446
      2443      2441      2444      2447      2445      2444      2447      2448
      2445      2444      2447      2449      2445      2444      2447      2450
      2446      2444      2447      2448      2446      2444      2447      2449
      2446      2444      2447      2450      2451      2455      2458      2459
      2451      2455      2458      2460      2451      2455      2458      2465
      2452      2451      2455      2456      2452      2451      2455      2457
      2452      2451      2455      2458      2453      2451      2455      2456
      2453      2451      2455      2457      2453      2451      2455      2458
      2454      2451      2455      2456      2454      2451      2455      2457
      2454      2451      2455      2458      2455      2458      2465      2461
      2456      2455      2458      2459      2456      2455      2458      2460
      2456      2455      2458      2465      2457      2455      2458      2459
      2457      2455      2458      2460      2457      2455      2458      2465
      2458      2465      2461      2462      2458      2465      2461      2463
      2458      2465      2461      2464      2459      2458      2465      2461
      2460      2458      2465      2461      2461      2464      2466      2467
      2461      2464      2466      2468      2461      2464      2466      2469
      2462      2461      2464      2466      2463      2461      2464      2466
      2464      2466      2469      2470      2464      2466      2469      2471
      2464      2466      2469      2477      2465      2461      2464      2466
      2466      2469      2471      2472      2466      2469      2477      2478
      2466      2469      2477      2479      2466      2469      2477      2480
      2467      2466      2469      2470      2467      2466      2469      2471
      2467      2466      2469      2477      2468      2466      2469      2470
      2468      2466      2469      2471      2468      2466      2469      2477
      2469      2471      2472      2473      2469      2471      2472      2474
      2469      2477      2480      2481      2470      2469      2471      2472
      2470      2469      2477      2478      2470      2469      2477      2479
      2470      2469      2477      2480      2471      2469      2477      2478
      2471      2469      2477      2479      2471      2469      2477      2480
      2471      2472      2474      2475      2471      2472      2474      2476
      2471      2472      2474      2486      2472      2471      2469      2477
      2472      2474      2486      2487      2472      2474      2486      2488
      2472      2474      2486      2489      2473      2472      2474      2475
      2473      2472      2474      2476      2473      2472      2474      2486
      2474      2486      2489      2490      2474      2486      2489      2491
      2474      2486      2489      2492      2475      2474      2486      2487
      2475      2474      2486      2488      2475      2474      2486      2489
      2476      2474      2486      2487      2476      2474      2486      2488
      2476      2474      2486      2489      2477      2480      2481      2482
      2477      2480      2481      2483      2478      2477      2480      2481
      2479      2477      2480      2481      2480      2481      2483      2484
      2480      2481      2483      2485      2480      2481      2483      2533
      2481      2483      2533      2534      2481      2483      2533      2535
      2481      2483      2533      2536      2482      2481      2483      2484
      2482      2481      2483      2485      2482      2481      2483      2533
      2483      2533      2536      2537      2483      2533      2536      2538
      2483      2533      2536      2539      2484      2483      2533      2534
      2484      2483      2533      2535      2484      2483      2533      2536
      2485      2483      2533      2534      2485      2483      2533      2535
      2485      2483      2533      2536      2486      2489      2492      2493
      2486      2489      2492      2494      2486      2489      2492      2495
      2487      2486      2489      2490      2487      2486      2489      2491
      2487      2486      2489      2492      2488      2486      2489      2490
      2488      2486      2489      2491      2488      2486      2489      2492
      2489      2492      2495      2496      2489      2492      2495      2497
      2489      2492      2495      2498      2490      2489      2492      2493
      2490      2489      2492      2494      2490      2489      2492      2495
      2491      2489      2492      2493      2491      2489      2492      2494
      2491      2489      2492      2495      2492      2495      2498      2499
      2492      2495      2498      2500      2492      2495      2498      2501
      2493      2492      2495      2496      2493      2492      2495      2497
      2493      2492      2495      2498      2494      2492      2495      2496
      2494      2492      2495      2497      2494      2492      2495      2498
      2495      2498      2501      2502      2495      2498      2501      2503
      2495      2498      2501      2504      2496      2495      2498      2499
      2496      2495      2498      2500      2496      2495      2498      2501
      2497      2495      2498      2499      2497      2495      2498      2500
      2497      2495      2498      2501      2498      2501      2504      2505
      2498      2501      2504      2506      2499      2498      2501      2502
      2499      2498      2501      2503      2499      2498      2501      2504
      2500      2498      2501      2502      2500      2498      2501      2503
      2500      2498      2501      2504      2501      2504      2506      2507
      2501      2504      2506      2508      2502      2501      2504      2505
      2502      2501      2504      2506      2503      2501      2504      2505
      2503      2501      2504      2506      2504      2506      2508      2509
      2504      2506      2508      2510      2504      2506      2508      2511
      2505      2504      2506      2507      2505      2504      2506      2508
      2506      2508      2511      2512      2506      2508      2511      2513
      2506      2508      2511      2514      2507      2506      2508      2509
      2507      2506      2508      2510      2507      2506      2508      2511
      2508      2511      2514      2515      2508      2511      2514      2516
      2508      2511      2514      2517      2509      2508      2511      2512
      2509      2508      2511      2513      2509      2508      2511      2514
      2510      2508      2511      2512      2510      2508      2511      2513
      2510      2508      2511      2514      2511      2514      2517      2518
      2511      2514      2517      2519      2511      2514      2517      2520
      2512      2511      2514      2515      2512      2511      2514      2516
      2512      2511      2514      2517      2513      2511      2514      2515
      2513      2511      2514      2516      2513      2511      2514      2517
      2514      2517      2520      2521      2514      2517      2520      2522
      2514      2517      2520      2523      2515      2514      2517      2518
      2515      2514      2517      2519      2515      2514      2517      2520
      2516      2514      2517      2518      2516      2514      2517      2519
      2516      2514      2517      2520      2517      2520      2523      2524
      2517      2520      2523      2525      2517      2520      2523      2526
      2518      2517      2520      2521      2518      2517      2520      2522
      2518      2517      2520      2523      2519      2517      2520      2521
      2519      2517      2520      2522      2519      2517      2520      2523
      2520      2523      2526      2527      2520      2523      2526      2528
      2520      2523      2526      2529      2521      2520      2523      2524
      2521      2520      2523      2525      2521      2520      2523      2526
      2522      2520      2523      2524      2522      2520      2523      2525
      2522      2520      2523      2526      2523      2526      2529      2530
      2523      2526      2529      2531      2523      2526      2529      2532
      2524      2523      2526      2527      2524      2523      2526      2528
      2524      2523      2526      2529      2525      2523      2526      2527
      2525      2523      2526      2528      2525      2523      2526      2529
      2527      2526      2529      2530      2527      2526      2529      2531
      2527      2526      2529      2532      2528      2526      2529      2530
      2528      2526      2529      2531      2528      2526      2529      2532
      2533      2536      2539      2540      2533      2536      2539      2541
      2533      2536      2539      2542      2534      2533      2536      2537
      2534      2533      2536      2538      2534      2533      2536      2539
      2535      2533      2536      2537      2535      2533      2536      2538
      2535      2533      2536      2539      2536      2539      2542      2543
      2536      2539      2542      2544      2536      2539      2542      2545
      2537      2536      2539      2540      2537      2536      2539      2541
      2537      2536      2539      2542      2538      2536      2539      2540
      2538      2536      2539      2541      2538      2536      2539      2542
      2539      2542      2545      2546      2539      2542      2545      2547
      2539      2542      2545      2548      2540      2539      2542      2543
      2540      2539      2542      2544      2540      2539      2542      2545
      2541      2539      2542      2543      2541      2539      2542      2544
      2541      2539      2542      2545      2542      2545      2548      2549
      2542      2545      2548      2550      2542      2545      2548      2551
      2543      2542      2545      2546      2543      2542      2545      2547
      2543      2542      2545      2548      2544      2542      2545      2546
      2544      2542      2545      2547      2544      2542      2545      2548
      2545      2548      2551      2552      2545      2548      2551      2553
      2545      2548      2551      2554      2546      2545      2548      2549
      2546      2545      2548      2550      2546      2545      2548      2551
      2547      2545      2548      2549      2547      2545      2548      2550
      2547      2545      2548      2551      2548      2551      2554      2555
      2548      2551      2554      2556      2548      2551      2554      2557
      2549      2548      2551      2552      2549      2548      2551      2553
      2549      2548      2551      2554      2550      2548      2551      2552
      2550      2548      2551      2553      2550      2548      2551      2554
      2551      2554      2557      2558      2551      2554      2557      2559
      2551      2554      2557      2560      2552      2551      2554      2555
      2552      2551      2554      2556      2552      2551      2554      2557
      2553      2551      2554      2555      2553      2551      2554      2556
      2553      2551      2554      2557      2554      2557      2560      2561
      2554      2557      2560      2562      2554      2557      2560      2563
      2555      2554      2557      2558      2555      2554      2557      2559
      2555      2554      2557      2560      2556      2554      2557      2558
      2556      2554      2557      2559      2556      2554      2557      2560
      2557      2560      2563      2564      2557      2560      2563      2565
      2557      2560      2563      2566      2558      2557      2560      2561
      2558      2557      2560      2562      2558      2557      2560      2563
      2559      2557      2560      2561      2559      2557      2560      2562
      2559      2557      2560      2563      2560      2563      2566      2567
      2560      2563      2566      2568      2560      2563      2566      2569
      2561      2560      2563      2564      2561      2560      2563      2565
      2561      2560      2563      2566      2562      2560      2563      2564
      2562      2560      2563      2565      2562      2560      2563      2566
      2563      2566      2569      2570      2563      2566      2569      2571
      2563      2566      2569      2572      2564      2563      2566      2567
      2564      2563      2566      2568      2564      2563      2566      2569
      2565      2563      2566      2567      2565      2563      2566      2568
      2565      2563      2566      2569      2566      2569      2572      2573
      2566      2569      2572      2574      2566      2569      2572      2575
      2567      2566      2569      2570      2567      2566      2569      2571
      2567      2566      2569      2572      2568      2566      2569      2570
      2568      2566      2569      2571      2568      2566      2569      2572
      2570      2569      2572      2573      2570      2569      2572      2574
      2570      2569      2572      2575      2571      2569      2572      2573
      2571      2569      2572      2574      2571      2569      2572      2575
      2576      2580      2582      2583      2576      2580      2582      2584
      2576      2580      2585      2586      2576      2580      2585      2587
      2576      2580      2585      2591      2577      2576      2580      2581
      2577      2576      2580      2582      2577      2576      2580      2585
      2578      2576      2580      2581      2578      2576      2580      2582
      2578      2576      2580      2585      2579      2576      2580      2581
      2579      2576      2580      2582      2579      2576      2580      2585
      2580      2585      2591      2588      2581      2580      2582      2583
      2581      2580      2582      2584      2581      2580      2585      2586
      2581      2580      2585      2587      2581      2580      2585      2591
      2582      2580      2585      2586      2582      2580      2585      2587
      2582      2580      2585      2591      2583      2582      2580      2585
      2584      2582      2580      2585      2585      2591      2588      2589
      2585      2591      2588      2590      2585      2591      2588      2592
      2586      2585      2591      2588      2587      2585      2591      2588
      2588      2592      2593      2594      2588      2592      2593      2595
      2588      2592      2593      2596      2589      2588      2592      2593
      2590      2588      2592      2593      2591      2588      2592      2593
      2592      2593      2596      2597      2592      2593      2596      2598
      2592      2593      2596      2604      2593      2596      2598      2599
      2593      2596      2604      2605      2593      2596      2604      2606
      2593      2596      2604      2607      2594      2593      2596      2597
      2594      2593      2596      2598      2594      2593      2596      2604
      2595      2593      2596      2597      2595      2593      2596      2598
      2595      2593      2596      2604      2596      2598      2599      2600
      2596      2598      2599      2601      2596      2604      2607      2608
      2597      2596      2598      2599      2597      2596      2604      2605
      2597      2596      2604      2606      2597      2596      2604      2607
      2598      2596      2604      2605      2598      2596      2604      2606
      2598      2596      2604      2607      2598      2599      2601      2602
      2598      2599      2601      2603      2598      2599      2601      2613
      2599      2598      2596      2604      2599      2601      2613      2614
      2599      2601      2613      2615      2599      2601      2613      2616
      2600      2599      2601      2602      2600      2599      2601      2603
      2600      2599      2601      2613      2601      2613      2616      2617
      2601      2613      2616      2618      2601      2613      2616      2619
      2602      2601      2613      2614      2602      2601      2613      2615
      2602      2601      2613      2616      2603      2601      2613      2614
      2603      2601      2613      2615      2603      2601      2613      2616
      2604      2607      2608      2609      2604      2607      2608      2610
      2605      2604      2607      2608      2606      2604      2607      2608
      2607      2608      2610      2611      2607      2608      2610      2612
      2607      2608      2610      2660      2608      2610      2660      2661
      2608      2610      2660      2662      2608      2610      2660      2663
      2609      2608      2610      2611      2609      2608      2610      2612
      2609      2608      2610      2660      2610      2660      2663      2664
      2610      2660      2663      2665      2610      2660      2663      2666
      2611      2610      2660      2661      2611      2610      2660      2662
      2611      2610      2660      2663      2612      2610      2660      2661
      2612      2610      2660      2662      2612      2610      2660      2663
      2613      2616      2619      2620      2613      2616      2619      2621
      2613      2616      2619      2622      2614      2613      2616      2617
      2614      2613      2616      2618      2614      2613      2616      2619
      2615      2613      2616      2617      2615      2613      2616      2618
      2615      2613      2616      2619      2616      2619      2622      2623
      2616      2619      2622      2624      2616      2619      2622      2625
      2617      2616      2619      2620      2617      2616      2619      2621
      2617      2616      2619      2622      2618      2616      2619      2620
      2618      2616      2619      2621      2618      2616      2619      2622
      2619      2622      2625      2626      2619      2622      2625      2627
      2619      2622      2625      2628      2620      2619      2622      2623
      2620      2619      2622      2624      2620      2619      2622      2625
      2621      2619      2622      2623      2621      2619      2622      2624
      2621      2619      2622      2625      2622      2625      2628      2629
      2622      2625      2628      2630      2622      2625      2628      2631
      2623      2622      2625      2626      2623      2622      2625      2627
      2623      2622      2625      2628      2624      2622      2625      2626
      2624      2622      2625      2627      2624      2622      2625      2628
      2625      2628      2631      2632      2625      2628      2631      2633
      2626      2625      2628      2629      2626      2625      2628      2630
      2626      2625      2628      2631      2627      2625      2628      2629
      2627      2625      2628      2630      2627      2625      2628      2631
      2628      2631      2633      2634      2628      2631      2633      2635
      2629      2628      2631      2632      2629      2628      2631      2633
      2630      2628      2631      2632      2630      2628      2631      2633
      2631      2633      2635      2636      2631      2633      2635      2637
      2631      2633      2635      2638      2632      2631      2633      2634
      2632      2631      2633      2635      2633      2635      2638      2639
      2633      2635      2638      2640      2633      2635      2638      2641
      2634      2633      2635      2636      2634      2633      2635      2637
      2634      2633      2635      2638      2635      2638      2641      2642
      2635      2638      2641      2643      2635      2638      2641      2644
      2636      2635      2638      2639      2636      2635      2638      2640
      2636      2635      2638      2641      2637      2635      2638      2639
      2637      2635      2638      2640      2637      2635      2638      2641
      2638      2641      2644      2645      2638      2641      2644      2646
      2638      2641      2644      2647      2639      2638      2641      2642
      2639      2638      2641      2643      2639      2638      2641      2644
      2640      2638      2641      2642      2640      2638      2641      2643
      2640      2638      2641      2644      2641      2644      2647      2648
      2641      2644      2647      2649      2641      2644      2647      2650
      2642      2641      2644      2645      2642      2641      2644      2646
      2642      2641      2644      2647      2643      2641      2644      2645
      2643      2641      2644      2646      2643      2641      2644      2647
      2644      2647      2650      2651      2644      2647      2650      2652
      2644      2647      2650      2653      2645      2644      2647      2648
      2645      2644      2647      2649      2645      2644      2647      2650
      2646      2644      2647      2648      2646      2644      2647      2649
      2646      2644      2647      2650      2647      2650      2653      2654
      2647      2650      2653      2655      2647      2650      2653      2656
      2648      2647      2650      2651      2648      2647      2650      2652
      2648      2647      2650      2653      2649      2647      2650      2651
      2649      2647      2650      2652      2649      2647      2650      2653
      2650      2653      2656      2657      2650      2653      2656      2658
      2650      2653      2656      2659      2651      2650      2653      2654
      2651      2650      2653      2655      2651      2650      2653      2656
      2652      2650      2653      2654      2652      2650      2653      2655
      2652      2650      2653      2656      2654      2653      2656      2657
      2654      2653      2656      2658      2654      2653      2656      2659
      2655      2653      2656      2657      2655      2653      2656      2658
      2655      2653      2656      2659      2660      2663      2666      2667
      2660      2663      2666      2668      2660      2663      2666      2669
      2661      2660      2663      2664      2661      2660      2663      2665
      2661      2660      2663      2666      2662      2660      2663      2664
      2662      2660      2663      2665      2662      2660      2663      2666
      2663      2666      2669      2670      2663      2666      2669      2671
      2663      2666      2669      2672      2664      2663      2666      2667
      2664      2663      2666      2668      2664      2663      2666      2669
      2665      2663      2666      2667      2665      2663      2666      2668
      2665      2663      2666      2669      2666      2669      2672      2673
      2666      2669      2672      2674      2666      2669      2672      2675
      2667      2666      2669      2670      2667      2666      2669      2671
      2667      2666      2669      2672      2668      2666      2669      2670
      2668      2666      2669      2671      2668      2666      2669      2672
      2669      2672      2675      2676      2669      2672      2675      2677
      2669      2672      2675      2678      2670      2669      2672      2673
      2670      2669      2672      2674      2670      2669      2672      2675
      2671      2669      2672      2673      2671      2669      2672      2674
      2671      2669      2672      2675      2672      2675      2678      2679
      2672      2675      2678      2680      2672      2675      2678      2681
      2673      2672      2675      2676      2673      2672      2675      2677
      2673      2672      2675      2678      2674      2672      2675      2676
      2674      2672      2675      2677      2674      2672      2675      2678
      2675      2678      2681      2682      2675      2678      2681      2683
      2675      2678      2681      2684      2676      2675      2678      2679
      2676      2675      2678      2680      2676      2675      2678      2681
      2677      2675      2678      2679      2677      2675      2678      2680
      2677      2675      2678      2681      2678      2681      2684      2685
      2678      2681      2684      2686      2678      2681      2684      2687
      2679      2678      2681      2682      2679      2678      2681      2683
      2679      2678      2681      2684      2680      2678      2681      2682
      2680      2678      2681      2683      2680      2678      2681      2684
      2681      2684      2687      2688      2681      2684      2687      2689
      2681      2684      2687      2690      2682      2681      2684      2685
      2682      2681      2684      2686      2682      2681      2684      2687
      2683      2681      2684      2685      2683      2681      2684      2686
      2683      2681      2684      2687      2684      2687      2690      2691
      2684      2687      2690      2692      2684      2687      2690      2693
      2685      2684      2687      2688      2685      2684      2687      2689
      2685      2684      2687      2690      2686      2684      2687      2688
      2686      2684      2687      2689      2686      2684      2687      2690
      2687      2690      2693      2694      2687      2690      2693      2695
      2687      2690      2693      2696      2688      2687      2690      2691
      2688      2687      2690      2692      2688      2687      2690      2693
      2689      2687      2690      2691      2689      2687      2690      2692
      2689      2687      2690      2693      2690      2693      2696      2697
      2690      2693      2696      2698      2690      2693      2696      2699
      2691      2690      2693      2694      2691      2690      2693      2695
      2691      2690      2693      2696      2692      2690      2693      2694
      2692      2690      2693      2695      2692      2690      2693      2696
      2693      2696      2699      2700      2693      2696      2699      2701
      2693      2696      2699      2702      2694      2693      2696      2697
      2694      2693      2696      2698      2694      2693      2696      2699
      2695      2693      2696      2697      2695      2693      2696      2698
      2695      2693      2696      2699      2697      2696      2699      2700
      2697      2696      2699      2701      2697      2696      2699      2702
      2698      2696      2699      2700      2698      2696      2699      2701
      2698      2696      2699      2702      2703      2707      2710      2711
      2703      2707      2710      2712      2703      2707      2710      2717
      2704      2703      2707      2708      2704      2703      2707      2709
      2704      2703      2707      2710      2705      2703      2707      2708
      2705      2703      2707      2709      2705      2703      2707      2710
      2706      2703      2707      2708      2706      2703      2707      2709
      2706      2703      2707      2710      2707      2710      2717      2713
      2708      2707      2710      2711      2708      2707      2710      2712
      2708      2707      2710      2717      2709      2707      2710      2711
      2709      2707      2710      2712      2709      2707      2710      2717
      2710      2717      2713      2714      2710      2717      2713      2715
      2710      2717      2713      2716      2711      2710      2717      2713
      2712      2710      2717      2713      2713      2716      2718      2719
      2713      2716      2718      2720      2713      2716      2718      2721
      2714      2713      2716      2718      2715      2713      2716      2718
      2716      2718      2721      2722      2716      2718      2721      2723
      2716      2718      2721      2729      2717      2713      2716      2718
      2718      2721      2723      2724      2718      2721      2729      2730
      2718      2721      2729      2731      2718      2721      2729      2732
      2719      2718      2721      2722      2719      2718      2721      2723
      2719      2718      2721      2729      2720      2718      2721      2722
      2720      2718      2721      2723      2720      2718      2721      2729
      2721      2723      2724      2725      2721      2723      2724      2726
      2721      2729      2732      2733      2722      2721      2723      2724
      2722      2721      2729      2730      2722      2721      2729      2731
      2722      2721      2729      2732      2723      2721      2729      2730
      2723      2721      2729      2731      2723      2721      2729      2732
      2723      2724      2726      2727      2723      2724      2726      2728
      2723      2724      2726      2738      2724      2723      2721      2729
      2724      2726      2738      2739      2724      2726      2738      2740
      2724      2726      2738      2741      2725      2724      2726      2727
      2725      2724      2726      2728      2725      2724      2726      2738
      2726      2738      2741      2742      2726      2738      2741      2743
      2726      2738      2741      2744      2727      2726      2738      2739
      2727      2726      2738      2740      2727      2726      2738      2741
      2728      2726      2738      2739      2728      2726      2738      2740
      2728      2726      2738      2741      2729      2732      2733      2734
      2729      2732      2733      2735      2730      2729      2732      2733
      2731      2729      2732      2733      2732      2733      2735      2736
      2732      2733      2735      2737      2732      2733      2735      2785
      2733      2735      2785      2786      2733      2735      2785      2787
      2733      2735      2785      2788      2734      2733      2735      2736
      2734      2733      2735      2737      2734      2733      2735      2785
      2735      2785      2788      2789      2735      2785      2788      2790
      2735      2785      2788      2791      2736      2735      2785      2786
      2736      2735      2785      2787      2736      2735      2785      2788
      2737      2735      2785      2786      2737      2735      2785      2787
      2737      2735      2785      2788      2738      2741      2744      2745
      2738      2741      2744      2746      2738      2741      2744      2747
      2739      2738      2741      2742      2739      2738      2741      2743
      2739      2738      2741      2744      2740      2738      2741      2742
      2740      2738      2741      2743      2740      2738      2741      2744
      2741      2744      2747      2748      2741      2744      2747      2749
      2741      2744      2747      2750      2742      2741      2744      2745
      2742      2741      2744      2746      2742      2741      2744      2747
      2743      2741      2744      2745      2743      2741      2744      2746
      2743      2741      2744      2747      2744      2747      2750      2751
      2744      2747      2750      2752      2744      2747      2750      2753
      2745      2744      2747      2748      2745      2744      2747      2749
      2745      2744      2747      2750      2746      2744      2747      2748
      2746      2744      2747      2749      2746      2744      2747      2750
      2747      2750      2753      2754      2747      2750      2753      2755
      2747      2750      2753      2756      2748      2747      2750      2751
      2748      2747      2750      2752      2748      2747      2750      2753
      2749      2747      2750      2751      2749      2747      2750      2752
      2749      2747      2750      2753      2750      2753      2756      2757
      2750      2753      2756      2758      2751      2750      2753      2754
      2751      2750      2753      2755      2751      2750      2753      2756
      2752      2750      2753      2754      2752      2750      2753      2755
      2752      2750      2753      2756      2753      2756      2758      2759
      2753      2756      2758      2760      2754      2753      2756      2757
      2754      2753      2756      2758      2755      2753      2756      2757
      2755      2753      2756      2758      2756      2758      2760      2761
      2756      2758      2760      2762      2756      2758      2760      2763
      2757      2756      2758      2759      2757      2756      2758      2760
      2758      2760      2763      2764      2758      2760      2763      2765
      2758      2760      2763      2766      2759      2758      2760      2761
      2759      2758      2760      2762      2759      2758      2760      2763
      2760      2763      2766      2767      2760      2763      2766      2768
      2760      2763      2766      2769      2761      2760      2763      2764
      2761      2760      2763      2765      2761      2760      2763      2766
      2762      2760      2763      2764      2762      2760      2763      2765
      2762      2760      2763      2766      2763      2766      2769      2770
      2763      2766      2769      2771      2763      2766      2769      2772
      2764      2763      2766      2767      2764      2763      2766      2768
      2764      2763      2766      2769      2765      2763      2766      2767
      2765      2763      2766      2768      2765      2763      2766      2769
      2766      2769      2772      2773      2766      2769      2772      2774
      2766      2769      2772      2775      2767      2766      2769      2770
      2767      2766      2769      2771      2767      2766      2769      2772
      2768      2766      2769      2770      2768      2766      2769      2771
      2768      2766      2769      2772      2769      2772      2775      2776
      2769      2772      2775      2777      2769      2772      2775      2778
      2770      2769      2772      2773      2770      2769      2772      2774
      2770      2769      2772      2775      2771      2769      2772      2773
      2771      2769      2772      2774      2771      2769      2772      2775
      2772      2775      2778      2779      2772      2775      2778      2780
      2772      2775      2778      2781      2773      2772      2775      2776
      2773      2772      2775      2777      2773      2772      2775      2778
      2774      2772      2775      2776      2774      2772      2775      2777
      2774      2772      2775      2778      2775      2778      2781      2782
      2775      2778      2781      2783      2775      2778      2781      2784
      2776      2775      2778      2779      2776      2775      2778      2780
      2776      2775      2778      2781      2777      2775      2778      2779
      2777      2775      2778      2780      2777      2775      2778      2781
      2779      2778      2781      2782      2779      2778      2781      2783
      2779      2778      2781      2784      2780      2778      2781      2782
      2780      2778      2781      2783      2780      2778      2781      2784
      2785      2788      2791      2792      2785      2788      2791      2793
      2785      2788      2791      2794      2786      2785      2788      2789
      2786      2785      2788      2790      2786      2785      2788      2791
      2787      2785      2788      2789      2787      2785      2788      2790
      2787      2785      2788      2791      2788      2791      2794      2795
      2788      2791      2794      2796      2788      2791      2794      2797
      2789      2788      2791      2792      2789      2788      2791      2793
      2789      2788      2791      2794      2790      2788      2791      2792
      2790      2788      2791      2793      2790      2788      2791      2794
      2791      2794      2797      2798      2791      2794      2797      2799
      2791      2794      2797      2800      2792      2791      2794      2795
      2792      2791      2794      2796      2792      2791      2794      2797
      2793      2791      2794      2795      2793      2791      2794      2796
      2793      2791      2794      2797      2794      2797      2800      2801
      2794      2797      2800      2802      2794      2797      2800      2803
      2795      2794      2797      2798      2795      2794      2797      2799
      2795      2794      2797      2800      2796      2794      2797      2798
      2796      2794      2797      2799      2796      2794      2797      2800
      2797      2800      2803      2804      2797      2800      2803      2805
      2797      2800      2803      2806      2798      2797      2800      2801
      2798      2797      2800      2802      2798      2797      2800      2803
      2799      2797      2800      2801      2799      2797      2800      2802
      2799      2797      2800      2803      2800      2803      2806      2807
      2800      2803      2806      2808      2800      2803      2806      2809
      2801      2800      2803      2804      2801      2800      2803      2805
      2801      2800      2803      2806      2802      2800      2803      2804
      2802      2800      2803      2805      2802      2800      2803      2806
      2803      2806      2809      2810      2803      2806      2809      2811
      2803      2806      2809      2812      2804      2803      2806      2807
      2804      2803      2806      2808      2804      2803      2806      2809
      2805      2803      2806      2807      2805      2803      2806      2808
      2805      2803      2806      2809      2806      2809      2812      2813
      2806      2809      2812      2814      2806      2809      2812      2815
      2807      2806      2809      2810      2807      2806      2809      2811
      2807      2806      2809      2812      2808      2806      2809      2810
      2808      2806      2809      2811      2808      2806      2809      2812
      2809      2812      2815      2816      2809      2812      2815      2817
      2809      2812      2815      2818      2810      2809      2812      2813
      2810      2809      2812      2814      2810      2809      2812      2815
      2811      2809      2812      2813      2811      2809      2812      2814
      2811      2809      2812      2815      2812      2815      2818      2819
      2812      2815      2818      2820      2812      2815      2818      2821
      2813      2812      2815      2816      2813      2812      2815      2817
      2813      2812      2815      2818      2814      2812      2815      2816
      2814      2812      2815      2817      2814      2812      2815      2818
      2815      2818      2821      2822      2815      2818      2821      2823
      2815      2818      2821      2824      2816      2815      2818      2819
      2816      2815      2818      2820      2816      2815      2818      2821
      2817      2815      2818      2819      2817      2815      2818      2820
      2817      2815      2818      2821      2818      2821      2824      2825
      2818      2821      2824      2826      2818      2821      2824      2827
      2819      2818      2821      2822      2819      2818      2821      2823
      2819      2818      2821      2824      2820      2818      2821      2822
      2820      2818      2821      2823      2820      2818      2821      2824
      2822      2821      2824      2825      2822      2821      2824      2826
      2822      2821      2824      2827      2823      2821      2824      2825
      2823      2821      2824      2826      2823      2821      2824      2827
      2828      2832      2834      2835      2828      2832      2834      2836
      2828      2832      2837      2838      2828      2832      2837      2839
      2828      2832      2837      2843      2829      2828      2832      2833
      2829      2828      2832      2834      2829      2828      2832      2837
      2830      2828      2832      2833      2830      2828      2832      2834
      2830      2828      2832      2837      2831      2828      2832      2833
      2831      2828      2832      2834      2831      2828      2832      2837
      2832      2837      2843      2840      2833      2832      2834      2835
      2833      2832      2834      2836      2833      2832      2837      2838
      2833      2832      2837      2839      2833      2832      2837      2843
      2834      2832      2837      2838      2834      2832      2837      2839
      2834      2832      2837      2843      2835      2834      2832      2837
      2836      2834      2832      2837      2837      2843      2840      2841
      2837      2843      2840      2842      2837      2843      2840      2844
      2838      2837      2843      2840      2839      2837      2843      2840
      2840      2844      2845      2846      2840      2844      2845      2847
      2840      2844      2845      2848      2841      2840      2844      2845
      2842      2840      2844      2845      2843      2840      2844      2845
      2844      2845      2848      2849      2844      2845      2848      2850
      2844      2845      2848      2856      2845      2848      2850      2851
      2845      2848      2856      2857      2845      2848      2856      2858
      2845      2848      2856      2859      2846      2845      2848      2849
      2846      2845      2848      2850      2846      2845      2848      2856
      2847      2845      2848      2849      2847      2845      2848      2850
      2847      2845      2848      2856      2848      2850      2851      2852
      2848      2850      2851      2853      2848      2856      2859      2860
      2849      2848      2850      2851      2849      2848      2856      2857
      2849      2848      2856      2858      2849      2848      2856      2859
      2850      2848      2856      2857      2850      2848      2856      2858
      2850      2848      2856      2859      2850      2851      2853      2854
      2850      2851      2853      2855      2850      2851      2853      2865
      2851      2850      2848      2856      2851      2853      2865      2866
      2851      2853      2865      2867      2851      2853      2865      2868
      2852      2851      2853      2854      2852      2851      2853      2855
      2852      2851      2853      2865      2853      2865      2868      2869
      2853      2865      2868      2870      2853      2865      2868      2871
      2854      2853      2865      2866      2854      2853      2865      2867
      2854      2853      2865      2868      2855      2853      2865      2866
      2855      2853      2865      2867      2855      2853      2865      2868
      2856      2859      2860      2861      2856      2859      2860      2862
      2857      2856      2859      2860      2858      2856      2859      2860
      2859      2860      2862      2863      2859      2860      2862      2864
      2859      2860      2862      2912      2860      2862      2912      2913
      2860      2862      2912      2914      2860      2862      2912      2915
      2861      2860      2862      2863      2861      2860      2862      2864
      2861      2860      2862      2912      2862      2912      2915      2916
      2862      2912      2915      2917      2862      2912      2915      2918
      2863      2862      2912      2913      2863      2862      2912      2914
      2863      2862      2912      2915      2864      2862      2912      2913
      2864      2862      2912      2914      2864      2862      2912      2915
      2865      2868      2871      2872      2865      2868      2871      2873
      2865      2868      2871      2874      2866      2865      2868      2869
      2866      2865      2868      2870      2866      2865      2868      2871
      2867      2865      2868      2869      2867      2865      2868      2870
      2867      2865      2868      2871      2868      2871      2874      2875
      2868      2871      2874      2876      2868      2871      2874      2877
      2869      2868      2871      2872      2869      2868      2871      2873
      2869      2868      2871      2874      2870      2868      2871      2872
      2870      2868      2871      2873      2870      2868      2871      2874
      2871      2874      2877      2878      2871      2874      2877      2879
      2871      2874      2877      2880      2872      2871      2874      2875
      2872      2871      2874      2876      2872      2871      2874      2877
      2873      2871      2874      2875      2873      2871      2874      2876
      2873      2871      2874      2877      2874      2877      2880      2881
      2874      2877      2880      2882      2874      2877      2880      2883
      2875      2874      2877      2878      2875      2874      2877      2879
      2875      2874      2877      2880      2876      2874      2877      2878
      2876      2874      2877      2879      2876      2874      2877      2880
      2877      2880      2883      2884      2877      2880      2883      2885
      2878      2877      2880      2881      2878      2877      2880      2882
      2878      2877      2880      2883      2879      2877      2880      2881
      2879      2877      2880      2882      2879      2877      2880      2883
      2880      2883      2885      2886      2880      2883      2885      2887
      2881      2880      2883      2884      2881      2880      2883      2885
      2882      2880      2883      2884      2882      2880      2883      2885
      2883      2885      2887      2888      2883      2885      2887      2889
      2883      2885      2887      2890      2884      2883      2885      2886
      2884      2883      2885      2887      2885      2887      2890      2891
      2885      2887      2890      2892      2885      2887      2890      2893
      2886      2885      2887      2888      2886      2885      2887      2889
      2886      2885      2887      2890      2887      2890      2893      2894
      2887      2890      2893      2895      2887      2890      2893      2896
      2888      2887      2890      2891      2888      2887      2890      2892
      2888      2887      2890      2893      2889      2887      2890      2891
      2889      2887      2890      2892      2889      2887      2890      2893
      2890      2893      2896      2897      2890      2893      2896      2898
      2890      2893      2896      2899      2891      2890      2893      2894
      2891      2890      2893      2895      2891      2890      2893      2896
      2892      2890      2893      2894      2892      2890      2893      2895
      2892      2890      2893      2896      2893      2896      2899      2900
      2893      2896      2899      2901      2893      2896      2899      2902
      2894      2893      2896      2897      2894      2893      2896      2898
      2894      2893      2896      2899      2895      2893      2896      2897
      2895      2893      2896      2898      2895      2893      2896      2899
      2896      2899      2902      2903      2896      2899      2902      2904
      2896      2899      2902      2905      2897      2896      2899      2900
      2897      2896      2899      2901      2897      2896      2899      2902
      2898      2896      2899      2900      2898      2896      2899      2901
      2898      2896      2899      2902      2899      2902      2905      2906
      2899      2902      2905      2907      2899      2902      2905      2908
      2900      2899      2902      2903      2900      2899      2902      2904
      2900      2899      2902      2905      2901      2899      2902      2903
      2901      2899      2902      2904      2901      2899      2902      2905
      2902      2905      2908      2909      2902      2905      2908      2910
      2902      2905      2908      2911      2903      2902      2905      2906
      2903      2902      2905      2907      2903      2902      2905      2908
      2904      2902      2905      2906      2904      2902      2905      2907
      2904      2902      2905      2908      2906      2905      2908      2909
      2906      2905      2908      2910      2906      2905      2908      2911
      2907      2905      2908      2909      2907      2905      2908      2910
      2907      2905      2908      2911      2912      2915      2918      2919
      2912      2915      2918      2920      2912      2915      2918      2921
      2913      2912      2915      2916      2913      2912      2915      2917
      2913      2912      2915      2918      2914      2912      2915      2916
      2914      2912      2915      2917      2914      2912      2915      2918
      2915      2918      2921      2922      2915      2918      2921      2923
      2915      2918      2921      2924      2916      2915      2918      2919
      2916      2915      2918      2920      2916      2915      2918      2921
      2917      2915      2918      2919      2917      2915      2918      2920
      2917      2915      2918      2921      2918      2921      2924      2925
      2918      2921      2924      2926      2918      2921      2924      2927
      2919      2918      2921      2922      2919      2918      2921      2923
      2919      2918      2921      2924      2920      2918      2921      2922
      2920      2918      2921      2923      2920      2918      2921      2924
      2921      2924      2927      2928      2921      2924      2927      2929
      2921      2924      2927      2930      2922      2921      2924      2925
      2922      2921      2924      2926      2922      2921      2924      2927
      2923      2921      2924      2925      2923      2921      2924      2926
      2923      2921      2924      2927      2924      2927      2930      2931
      2924      2927      2930      2932      2924      2927      2930      2933
      2925      2924      2927      2928      2925      2924      2927      2929
      2925      2924      2927      2930      2926      2924      2927      2928
      2926      2924      2927      2929      2926      2924      2927      2930
      2927      2930      2933      2934      2927      2930      2933      2935
      2927      2930      2933      2936      2928      2927      2930      2931
      2928      2927      2930      2932      2928      2927      2930      2933
      2929      2927      2930      2931      2929      2927      2930      2932
      2929      2927      2930      2933      2930      2933      2936      2937
      2930      2933      2936      2938      2930      2933      2936      2939
      2931      2930      2933      2934      2931      2930      2933      2935
      2931      2930      2933      2936      2932      2930      2933      2934
      2932      2930      2933      2935      2932      2930      2933      2936
      2933      2936      2939      2940      2933      2936      2939      2941
      2933      2936      2939      2942      2934      2933      2936      2937
      2934      2933      2936      2938      2934      2933      2936      2939
      2935      2933      2936      2937      2935      2933      2936      2938
      2935      2933      2936      2939      2936      2939      2942      2943
      2936      2939      2942      2944      2936      2939      2942      2945
      2937      2936      2939      2940      2937      2936      2939      2941
      2937      2936      2939      2942      2938      2936      2939      2940
      2938      2936      2939      2941      2938      2936      2939      2942
      2939      2942      2945      2946      2939      2942      2945      2947
      2939      2942      2945      2948      2940      2939      2942      2943
      2940      2939      2942      2944      2940      2939      2942      2945
      2941      2939      2942      2943      2941      2939      2942      2944
      2941      2939      2942      2945      2942      2945      2948      2949
      2942      2945      2948      2950      2942      2945      2948      2951
      2943      2942      2945      2946      2943      2942      2945      2947
      2943      2942      2945      2948      2944      2942      2945      2946
      2944      2942      2945      2947      2944      2942      2945      2948
      2945      2948      2951      2952      2945      2948      2951      2953
      2945      2948      2951      2954      2946      2945      2948      2949
      2946      2945      2948      2950      2946      2945      2948      2951
      2947      2945      2948      2949      2947      2945      2948      2950
      2947      2945      2948      2951      2949      2948      2951      2952
      2949      2948      2951      2953      2949      2948      2951      2954
      2950      2948      2951      2952      2950      2948      2951      2953
      2950      2948      2951      2954      2955      2956      2971      2972
      2955      2956      2971      2973      2955      2956      2971      2977
      2956      2955      2959      2960      2956      2955      2959      2961
      2956      2955      2959      2962      2956      2955      2963      2964
      2956      2955      2963      2965      2956      2955      2963      2966
      2956      2955      2967      2968      2956      2955      2967      2969
      2956      2955      2967      2970      2956      2971      2977      2974
      2957      2956      2955      2959      2957      2956      2955      2963
      2957      2956      2955      2967      2957      2956      2971      2972
      2957      2956      2971      2973      2957      2956      2971      2977
      2958      2956      2955      2959      2958      2956      2955      2963
      2958      2956      2955      2967      2958      2956      2971      2972
      2958      2956      2971      2973      2958      2956      2971      2977
      2959      2955      2956      2971      2959      2955      2963      2964
      2959      2955      2963      2965      2959      2955      2963      2966
      2959      2955      2967      2968      2959      2955      2967      2969
      2959      2955      2967      2970      2960      2959      2955      2963
      2960      2959      2955      2967      2961      2959      2955      2963
      2961      2959      2955      2967      2962      2959      2955      2963
      2962      2959      2955      2967      2963      2955      2956      2971
      2963      2955      2967      2968      2963      2955      2967      2969
      2963      2955      2967      2970      2964      2963      2955      2967
      2965      2963      2955      2967      2966      2963      2955      2967
      2967      2955      2956      2971      2971      2977      2974      2975
      2971      2977      2974      2976      2971      2977      2974      2978
      2972      2971      2977      2974      2973      2971      2977      2974
      2974      2978      2979      2980      2974      2978      2979      2981
      2974      2978      2979      2982      2975      2974      2978      2979
      2976      2974      2978      2979      2977      2974      2978      2979
      2978      2979      2982      2983      2978      2979      2982      2984
      2978      2979      2982      2990      2979      2982      2984      2985
      2979      2982      2990      2991      2979      2982      2990      2992
      2979      2982      2990      2993      2980      2979      2982      2983
      2980      2979      2982      2984      2980      2979      2982      2990
      2981      2979      2982      2983      2981      2979      2982      2984
      2981      2979      2982      2990      2982      2984      2985      2986
      2982      2984      2985      2987      2982      2990      2993      2994
      2983      2982      2984      2985      2983      2982      2990      2991
      2983      2982      2990      2992      2983      2982      2990      2993
      2984      2982      2990      2991      2984      2982      2990      2992
      2984      2982      2990      2993      2984      2985      2987      2988
      2984      2985      2987      2989      2984      2985      2987      2999
      2985      2984      2982      2990      2985      2987      2999      3000
      2985      2987      2999      3001      2985      2987      2999      3002
      2986      2985      2987      2988      2986      2985      2987      2989
      2986      2985      2987      2999      2987      2999      3002      3003
      2987      2999      3002      3004      2987      2999      3002      3005
      2988      2987      2999      3000      2988      2987      2999      3001
      2988      2987      2999      3002      2989      2987      2999      3000
      2989      2987      2999      3001      2989      2987      2999      3002
      2990      2993      2994      2995      2990      2993      2994      2996
      2991      2990      2993      2994      2992      2990      2993      2994
      2993      2994      2996      2997      2993      2994      2996      2998
      2993      2994      2996      3046      2994      2996      3046      3047
      2994      2996      3046      3048      2994      2996      3046      3049
      2995      2994      2996      2997      2995      2994      2996      2998
      2995      2994      2996      3046      2996      3046      3049      3050
      2996      3046      3049      3051      2996      3046      3049      3052
      2997      2996      3046      3047      2997      2996      3046      3048
      2997      2996      3046      3049      2998      2996      3046      3047
      2998      2996      3046      3048      2998      2996      3046      3049
      2999      3002      3005      3006      2999      3002      3005      3007
      2999      3002      3005      3008      3000      2999      3002      3003
      3000      2999      3002      3004      3000      2999      3002      3005
      3001      2999      3002      3003      3001      2999      3002      3004
      3001      2999      3002      3005      3002      3005      3008      3009
      3002      3005      3008      3010      3002      3005      3008      3011
      3003      3002      3005      3006      3003      3002      3005      3007
      3003      3002      3005      3008      3004      3002      3005      3006
      3004      3002      3005      3007      3004      3002      3005      3008
      3005      3008      3011      3012      3005      3008      3011      3013
      3005      3008      3011      3014      3006      3005      3008      3009
      3006      3005      3008      3010      3006      3005      3008      3011
      3007      3005      3008      3009      3007      3005      3008      3010
      3007      3005      3008      3011      3008      3011      3014      3015
      3008      3011      3014      3016      3008      3011      3014      3017
      3009      3008      3011      3012      3009      3008      3011      3013
      3009      3008      3011      3014      3010      3008      3011      3012
      3010      3008      3011      3013      3010      3008      3011      3014
      3011      3014      3017      3018      3011      3014      3017      3019
      3012      3011      3014      3015      3012      3011      3014      3016
      3012      3011      3014      3017      3013      3011      3014      3015
      3013      3011      3014      3016      3013      3011      3014      3017
      3014      3017      3019      3020      3014      3017      3019      3021
      3015      3014      3017      3018      3015      3014      3017      3019
      3016      3014      3017      3018      3016      3014      3017      3019
      3017      3019      3021      3022      3017      3019      3021      3023
      3017      3019      3021      3024      3018      3017      3019      3020
      3018      3017      3019      3021      3019      3021      3024      3025
      3019      3021      3024      3026      3019      3021      3024      3027
      3020      3019      3021      3022      3020      3019      3021      3023
      3020      3019      3021      3024      3021      3024      3027      3028
      3021      3024      3027      3029      3021      3024      3027      3030
      3022      3021      3024      3025      3022      3021      3024      3026
      3022      3021      3024      3027      3023      3021      3024      3025
      3023      3021      3024      3026      3023      3021      3024      3027
      3024      3027      3030      3031      3024      3027      3030      3032
      3024      3027      3030      3033      3025      3024      3027      3028
      3025      3024      3027      3029      3025      3024      3027      3030
      3026      3024      3027      3028      3026      3024      3027      3029
      3026      3024      3027      3030      3027      3030      3033      3034
      3027      3030      3033      3035      3027      3030      3033      3036
      3028      3027      3030      3031      3028      3027      3030      3032
      3028      3027      3030      3033      3029      3027      3030      3031
      3029      3027      3030      3032      3029      3027      3030      3033
      3030      3033      3036      3037      3030      3033      3036      3038
      3030      3033      3036      3039      3031      3030      3033      3034
      3031      3030      3033      3035      3031      3030      3033      3036
      3032      3030      3033      3034      3032      3030      3033      3035
      3032      3030      3033      3036      3033      3036      3039      3040
      3033      3036      3039      3041      3033      3036      3039      3042
      3034      3033      3036      3037      3034      3033      3036      3038
      3034      3033      3036      3039      3035      3033      3036      3037
      3035      3033      3036      3038      3035      3033      3036      3039
      3036      3039      3042      3043      3036      3039      3042      3044
      3036      3039      3042      3045      3037      3036      3039      3040
      3037      3036      3039      3041      3037      3036      3039      3042
      3038      3036      3039      3040      3038      3036      3039      3041
      3038      3036      3039      3042      3040      3039      3042      3043
      3040      3039      3042      3044      3040      3039      3042      3045
      3041      3039      3042      3043      3041      3039      3042      3044
      3041      3039      3042      3045      3046      3049      3052      3053
      3046      3049      3052      3054      3046      3049      3052      3055
      3047      3046      3049      3050      3047      3046      3049      3051
      3047      3046      3049      3052      3048      3046      3049      3050
      3048      3046      3049      3051      3048      3046      3049      3052
      3049      3052      3055      3056      3049      3052      3055      3057
      3049      3052      3055      3058      3050      3049      3052      3053
      3050      3049      3052      3054      3050      3049      3052      3055
      3051      3049      3052      3053      3051      3049      3052      3054
      3051      3049      3052      3055      3052      3055      3058      3059
      3052      3055      3058      3060      3052      3055      3058      3061
      3053      3052      3055      3056      3053      3052      3055      3057
      3053      3052      3055      3058      3054      3052      3055      3056
      3054      3052      3055      3057      3054      3052      3055      3058
      3055      3058      3061      3062      3055      3058      3061      3063
      3055      3058      3061      3064      3056      3055      3058      3059
      3056      3055      3058      3060      3056      3055      3058      3061
      3057      3055      3058      3059      3057      3055      3058      3060
      3057      3055      3058      3061      3058      3061      3064      3065
      3058      3061      3064      3066      3058      3061      3064      3067
      3059      3058      3061      3062      3059      3058      3061      3063
      3059      3058      3061      3064      3060      3058      3061      3062
      3060      3058      3061      3063      3060      3058      3061      3064
      3061      3064      3067      3068      3061      3064      3067      3069
      3061      3064      3067      3070      3062      3061      3064      3065
      3062      3061      3064      3066      3062      3061      3064      3067
      3063      3061      3064      3065      3063      3061      3064      3066
      3063      3061      3064      3067      3064      3067      3070      3071
      3064      3067      3070      3072      3064      3067      3070      3073
      3065      3064      3067      3068      3065      3064      3067      3069
      3065      3064      3067      3070      3066      3064      3067      3068
      3066      3064      3067      3069      3066      3064      3067      3070
      3067      3070      3073      3074      3067      3070      3073      3075
      3067      3070      3073      3076      3068      3067      3070      3071
      3068      3067      3070      3072      3068      3067      3070      3073
      3069      3067      3070      3071      3069      3067      3070      3072
      3069      3067      3070      3073      3070      3073      3076      3077
      3070      3073      3076      3078      3070      3073      3076      3079
      3071      3070      3073      3074      3071      3070      3073      3075
      3071      3070      3073      3076      3072      3070      3073      3074
      3072      3070      3073      3075      3072      3070      3073      3076
      3073      3076      3079      3080      3073      3076      3079      3081
      3073      3076      3079      3082      3074      3073      3076      3077
      3074      3073      3076      3078      3074      3073      3076      3079
      3075      3073      3076      3077      3075      3073      3076      3078
      3075      3073      3076      3079      3076      3079      3082      3083
      3076      3079      3082      3084      3076      3079      3082      3085
      3077      3076      3079      3080      3077      3076      3079      3081
      3077      3076      3079      3082      3078      3076      3079      3080
      3078      3076      3079      3081      3078      3076      3079      3082
      3079      3082      3085      3086      3079      3082      3085      3087
      3079      3082      3085      3088      3080      3079      3082      3083
      3080      3079      3082      3084      3080      3079      3082      3085
      3081      3079      3082      3083      3081      3079      3082      3084
      3081      3079      3082      3085      3083      3082      3085      3086
      3083      3082      3085      3087      3083      3082      3085      3088
      3084      3082      3085      3086      3084      3082      3085      3087
      3084      3082      3085      3088      3089      3093      3096      3097
      3089      3093      3096      3098      3089      3093      3096      3103
      3090      3089      3093      3094      3090      3089      3093      3095
      3090      3089      3093      3096      3091      3089      3093      3094
      3091      3089      3093      3095      3091      3089      3093      3096
      3092      3089      3093      3094      3092      3089      3093      3095
      3092      3089      3093      3096      3093      3096      3103      3099
      3094      3093      3096      3097      3094      3093      3096      3098
      3094      3093      3096      3103      3095      3093      3096      3097
      3095      3093      3096      3098      3095      3093      3096      3103
      3096      3103      3099      3100      3096      3103      3099      3101
      3096      3103      3099      3102      3097      3096      3103      3099
      3098      3096      3103      3099      3099      3102      3104      3105
      3099      3102      3104      3106      3099      3102      3104      3107
      3100      3099      3102      3104      3101      3099      3102      3104
      3102      3104      3107      3108      3102      3104      3107      3109
      3102      3104      3107      3115      3103      3099      3102      3104
      3104      3107      3109      3110      3104      3107      3115      3116
      3104      3107      3115      3117      3104      3107      3115      3118
      3105      3104      3107      3108      3105      3104      3107      3109
      3105      3104      3107      3115      3106      3104      3107      3108
      3106      3104      3107      3109      3106      3104      3107      3115
      3107      3109      3110      3111      3107      3109      3110      3112
      3107      3115      3118      3119      3108      3107      3109      3110
      3108      3107      3115      3116      3108      3107      3115      3117
      3108      3107      3115      3118      3109      3107      3115      3116
      3109      3107      3115      3117      3109      3107      3115      3118
      3109      3110      3112      3113      3109      3110      3112      3114
      3109      3110      3112      3124      3110      3109      3107      3115
      3110      3112      3124      3125      3110      3112      3124      3126
      3110      3112      3124      3127      3111      3110      3112      3113
      3111      3110      3112      3114      3111      3110      3112      3124
      3112      3124      3127      3128      3112      3124      3127      3129
      3112      3124      3127      3130      3113      3112      3124      3125
      3113      3112      3124      3126      3113      3112      3124      3127
      3114      3112      3124      3125      3114      3112      3124      3126
      3114      3112      3124      3127      3115      3118      3119      3120
      3115      3118      3119      3121      3116      3115      3118      3119
      3117      3115      3118      3119      3118      3119      3121      3122
      3118      3119      3121      3123      3118      3119      3121      3171
      3119      3121      3171      3172      3119      3121      3171      3173
      3119      3121      3171      3174      3120      3119      3121      3122
      3120      3119      3121      3123      3120      3119      3121      3171
      3121      3171      3174      3175      3121      3171      3174      3176
      3121      3171      3174      3177      3122      3121      3171      3172
      3122      3121      3171      3173      3122      3121      3171      3174
      3123      3121      3171      3172      3123      3121      3171      3173
      3123      3121      3171      3174      3124      3127      3130      3131
      3124      3127      3130      3132      3124      3127      3130      3133
      3125      3124      3127      3128      3125      3124      3127      3129
      3125      3124      3127      3130      3126      3124      3127      3128
      3126      3124      3127      3129      3126      3124      3127      3130
      3127      3130      3133      3134      3127      3130      3133      3135
      3127      3130      3133      3136      3128      3127      3130      3131
      3128      3127      3130      3132      3128      3127      3130      3133
      3129      3127      3130      3131      3129      3127      3130      3132
      3129      3127      3130      3133      3130      3133      3136      3137
      3130      3133      3136      3138      3130      3133      3136      3139
      3131      3130      3133      3134      3131      3130      3133      3135
      3131      3130      3133      3136      3132      3130      3133      3134
      3132      3130      3133      3135      3132      3130      3133      3136
      3133      3136      3139      3140      3133      3136      3139      3141
      3133      3136      3139      3142      3134      3133      3136      3137
      3134      3133      3136      3138      3134      3133      3136      3139
      3135      3133      3136      3137      3135      3133      3136      3138
      3135      3133      3136      3139      3136      3139      3142      3143
      3136      3139      3142      3144      3137      3136      3139      3140
      3137      3136      3139      3141      3137      3136      3139      3142
      3138      3136      3139      3140      3138      3136      3139      3141
      3138      3136      3139      3142      3139      3142      3144      3145
      3139      3142      3144      3146      3140      3139      3142      3143
      3140      3139      3142      3144      3141      3139      3142      3143
      3141      3139      3142      3144      3142      3144      3146      3147
      3142      3144      3146      3148      3142      3144      3146      3149
      3143      3142      3144      3145      3143      3142      3144      3146
      3144      3146      3149      3150      3144      3146      3149      3151
      3144      3146      3149      3152      3145      3144      3146      3147
      3145      3144      3146      3148      3145      3144      3146      3149
      3146      3149      3152      3153      3146      3149      3152      3154
      3146      3149      3152      3155      3147      3146      3149      3150
      3147      3146      3149      3151      3147      3146      3149      3152
      3148      3146      3149      3150      3148      3146      3149      3151
      3148      3146      3149      3152      3149      3152      3155      3156
      3149      3152      3155      3157      3149      3152      3155      3158
      3150      3149      3152      3153      3150      3149      3152      3154
      3150      3149      3152      3155      3151      3149      3152      3153
      3151      3149      3152      3154      3151      3149      3152      3155
      3152      3155      3158      3159      3152      3155      3158      3160
      3152      3155      3158      3161      3153      3152      3155      3156
      3153      3152      3155      3157      3153      3152      3155      3158
      3154      3152      3155      3156      3154      3152      3155      3157
      3154      3152      3155      3158      3155      3158      3161      3162
      3155      3158      3161      3163      3155      3158      3161      3164
      3156      3155      3158      3159      3156      3155      3158      3160
      3156      3155      3158      3161      3157      3155      3158      3159
      3157      3155      3158      3160      3157      3155      3158      3161
      3158      3161      3164      3165      3158      3161      3164      3166
      3158      3161      3164      3167      3159      3158      3161      3162
      3159      3158      3161      3163      3159      3158      3161      3164
      3160      3158      3161      3162      3160      3158      3161      3163
      3160      3158      3161      3164      3161      3164      3167      3168
      3161      3164      3167      3169      3161      3164      3167      3170
      3162      3161      3164      3165      3162      3161      3164      3166
      3162      3161      3164      3167      3163      3161      3164      3165
      3163      3161      3164      3166      3163      3161      3164      3167
      3165      3164      3167      3168      3165      3164      3167      3169
      3165      3164      3167      3170      3166      3164      3167      3168
      3166      3164      3167      3169      3166      3164      3167      3170
      3171      3174      3177      3178      3171      3174      3177      3179
      3171      3174      3177      3180      3172      3171      3174      3175
      3172      3171      3174      3176      3172      3171      3174      3177
      3173      3171      3174      3175      3173      3171      3174      3176
      3173      3171      3174      3177      3174      3177      3180      3181
      3174      3177      3180      3182      3174      3177      3180      3183
      3175      3174      3177      3178      3175      3174      3177      3179
      3175      3174      3177      3180      3176      3174      3177      3178
      3176      3174      3177      3179      3176      3174      3177      3180
      3177      3180      3183      3184      3177      3180      3183      3185
      3177      3180      3183      3186      3178      3177      3180      3181
      3178      3177      3180      3182      3178      3177      3180      3183
      3179      3177      3180      3181      3179      3177      3180      3182
      3179      3177      3180      3183      3180      3183      3186      3187
      3180      3183      3186      3188      3180      3183      3186      3189
      3181      3180      3183      3184      3181      3180      3183      3185
      3181      3180      3183      3186      3182      3180      3183      3184
      3182      3180      3183      3185      3182      3180      3183      3186
      3183      3186      3189      3190      3183      3186      3189      3191
      3183      3186      3189      3192      3184      3183      3186      3187
      3184      3183      3186      3188      3184      3183      3186      3189
      3185      3183      3186      3187      3185      3183      3186      3188
      3185      3183      3186      3189      3186      3189      3192      3193
      3186      3189      3192      3194      3186      3189      3192      3195
      3187      3186      3189      3190      3187      3186      3189      3191
      3187      3186      3189      3192      3188      3186      3189      3190
      3188      3186      3189      3191      3188      3186      3189      3192
      3189      3192      3195      3196      3189      3192      3195      3197
      3189      3192      3195      3198      3190      3189      3192      3193
      3190      3189      3192      3194      3190      3189      3192      3195
      3191      3189      3192      3193      3191      3189      3192      3194
      3191      3189      3192      3195      3192      3195      3198      3199
      3192      3195      3198      3200      3192      3195      3198      3201
      3193      3192      3195      3196      3193      3192      3195      3197
      3193      3192      3195      3198      3194      3192      3195      3196
      3194      3192      3195      3197      3194      3192      3195      3198
      3195      3198      3201      3202      3195      3198      3201      3203
      3195      3198      3201      3204      3196      3195      3198      3199
      3196      3195      3198      3200      3196      3195      3198      3201
      3197      3195      3198      3199      3197      3195      3198      3200
      3197      3195      3198      3201      3198      3201      3204      3205
      3198      3201      3204      3206      3198      3201      3204      3207
      3199      3198      3201      3202      3199      3198      3201      3203
      3199      3198      3201      3204      3200      3198      3201      3202
      3200      3198      3201      3203      3200      3198      3201      3204
      3201      3204      3207      3208      3201      3204      3207      3209
      3201      3204      3207      3210      3202      3201      3204      3205
      3202      3201      3204      3206      3202      3201      3204      3207
      3203      3201      3204      3205      3203      3201      3204      3206
      3203      3201      3204      3207      3204      3207      3210      3211
      3204      3207      3210      3212      3204      3207      3210      3213
      3205      3204      3207      3208      3205      3204      3207      3209
      3205      3204      3207      3210      3206      3204      3207      3208
      3206      3204      3207      3209      3206      3204      3207      3210
      3208      3207      3210      3211      3208      3207      3210      3212
      3208      3207      3210      3213      3209      3207      3210      3211
      3209      3207      3210      3212      3209      3207      3210      3213
      3214      3215      3230      3231      3214      3215      3230      3232
      3214      3215      3230      3236      3215      3214      3218      3219
      3215      3214      3218      3220      3215      3214      3218      3221
      3215      3214      3222      3223      3215      3214      3222      3224
      3215      3214      3222      3225      3215      3214      3226      3227
      3215      3214      3226      3228      3215      3214      3226      3229
      3215      3230      3236      3233      3216      3215      3214      3218
      3216      3215      3214      3222      3216      3215      3214      3226
      3216      3215      3230      3231      3216      3215      3230      3232
      3216      3215      3230      3236      3217      3215      3214      3218
      3217      3215      3214      3222      3217      3215      3214      3226
      3217      3215      3230      3231      3217      3215      3230      3232
      3217      3215      3230      3236      3218      3214      3215      3230
      3218      3214      3222      3223      3218      3214      3222      3224
      3218      3214      3222      3225      3218      3214      3226      3227
      3218      3214      3226      3228      3218      3214      3226      3229
      3219      3218      3214      3222      3219      3218      3214      3226
      3220      3218      3214      3222      3220      3218      3214      3226
      3221      3218      3214      3222      3221      3218      3214      3226
      3222      3214      3215      3230      3222      3214      3226      3227
      3222      3214      3226      3228      3222      3214      3226      3229
      3223      3222      3214      3226      3224      3222      3214      3226
      3225      3222      3214      3226      3226      3214      3215      3230
      3230      3236      3233      3234      3230      3236      3233      3235
      3230      3236      3233      3237      3231      3230      3236      3233
      3232      3230      3236      3233      3233      3237      3238      3239
      3233      3237      3238      3240      3233      3237      3238      3241
      3234      3233      3237      3238      3235      3233      3237      3238
      3236      3233      3237      3238      3237      3238      3241      3242
      3237      3238      3241      3243      3237      3238      3241      3249
      3238      3241      3243      3244      3238      3241      3249      3250
      3238      3241      3249      3251      3238      3241      3249      3252
      3239      3238      3241      3242      3239      3238      3241      3243
      3239      3238      3241      3249      3240      3238      3241      3242
      3240      3238      3241      3243      3240      3238      3241      3249
      3241      3243      3244      3245      3241      3243      3244      3246
      3241      3249      3252      3253      3242      3241      3243      3244
      3242      3241      3249      3250      3242      3241      3249      3251
      3242      3241      3249      3252      3243      3241      3249      3250
      3243      3241      3249      3251      3243      3241      3249      3252
      3243      3244      3246      3247      3243      3244      3246      3248
      3243      3244      3246      3258      3244      3243      3241      3249
      3244      3246      3258      3259      3244      3246      3258      3260
      3244      3246      3258      3261      3245      3244      3246      3247
      3245      3244      3246      3248      3245      3244      3246      3258
      3246      3258      3261      3262      3246      3258      3261      3263
      3246      3258      3261      3264      3247      3246      3258      3259
      3247      3246      3258      3260      3247      3246      3258      3261
      3248      3246      3258      3259      3248      3246      3258      3260
      3248      3246      3258      3261      3249      3252      3253      3254
      3249      3252      3253      3255      3250      3249      3252      3253
      3251      3249      3252      3253      3252      3253      3255      3256
      3252      3253      3255      3257      3252      3253      3255      3305
      3253      3255      3305      3306      3253      3255      3305      3307
      3253      3255      3305      3308      3254      3253      3255      3256
      3254      3253      3255      3257      3254      3253      3255      3305
      3255      3305      3308      3309      3255      3305      3308      3310
      3255      3305      3308      3311      3256      3255      3305      3306
      3256      3255      3305      3307      3256      3255      3305      3308
      3257      3255      3305      3306      3257      3255      3305      3307
      3257      3255      3305      3308      3258      3261      3264      3265
      3258      3261      3264      3266      3258      3261      3264      3267
      3259      3258      3261      3262      3259      3258      3261      3263
      3259      3258      3261      3264      3260      3258      3261      3262
      3260      3258      3261      3263      3260      3258      3261      3264
      3261      3264      3267      3268      3261      3264      3267      3269
      3261      3264      3267      3270      3262      3261      3264      3265
      3262      3261      3264      3266      3262      3261      3264      3267
      3263      3261      3264      3265      3263      3261      3264      3266
      3263      3261      3264      3267      3264      3267      3270      3271
      3264      3267      3270      3272      3264      3267      3270      3273
      3265      3264      3267      3268      3265      3264      3267      3269
      3265      3264      3267      3270      3266      3264      3267      3268
      3266      3264      3267      3269      3266      3264      3267      3270
      3267      3270      3273      3274      3267      3270      3273      3275
      3267      3270      3273      3276      3268      3267      3270      3271
      3268      3267      3270      3272      3268      3267      3270      3273
      3269      3267      3270      3271      3269      3267      3270      3272
      3269      3267      3270      3273      3270      3273      3276      3277
      3270      3273      3276      3278      3271      3270      3273      3274
      3271      3270      3273      3275      3271      3270      3273      3276
      3272      3270      3273      3274      3272      3270      3273      3275
      3272      3270      3273      3276      3273      3276      3278      3279
      3273      3276      3278      3280      3274      3273      3276      3277
      3274      3273      3276      3278      3275      3273      3276      3277
      3275      3273      3276      3278      3276      3278      3280      3281
      3276      3278      3280      3282      3276      3278      3280      3283
      3277      3276      3278      3279      3277      3276      3278      3280
      3278      3280      3283      3284      3278      3280      3283      3285
      3278      3280      3283      3286      3279      3278      3280      3281
      3279      3278      3280      3282      3279      3278      3280      3283
      3280      3283      3286      3287      3280      3283      3286      3288
      3280      3283      3286      3289      3281      3280      3283      3284
      3281      3280      3283      3285      3281      3280      3283      3286
      3282      3280      3283      3284      3282      3280      3283      3285
      3282      3280      3283      3286      3283      3286      3289      3290
      3283      3286      3289      3291      3283      3286      3289      3292
      3284      3283      3286      3287      3284      3283      3286      3288
      3284      3283      3286      3289      3285      3283      3286      3287
      3285      3283      3286      3288      3285      3283      3286      3289
      3286      3289      3292      3293      3286      3289      3292      3294
      3286      3289      3292      3295      3287      3286      3289      3290
      3287      3286      3289      3291      3287      3286      3289      3292
      3288      3286      3289      3290      3288      3286      3289      3291
      3288      3286      3289      3292      3289      3292      3295      3296
      3289      3292      3295      3297      3289      3292      3295      3298
      3290      3289      3292      3293      3290      3289      3292      3294
      3290      3289      3292      3295      3291      3289      3292      3293
      3291      3289      3292      3294      3291      3289      3292      3295
      3292      3295      3298      3299      3292      3295      3298      3300
      3292      3295      3298      3301      3293      3292      3295      3296
      3293      3292      3295      3297      3293      3292      3295      3298
      3294      3292      3295      3296      3294      3292      3295      3297
      3294      3292      3295      3298      3295      3298      3301      3302
      3295      3298      3301      3303      3295      3298      3301      3304
      3296      3295      3298      3299      3296      3295      3298      3300
      3296      3295      3298      3301      3297      3295      3298      3299
      3297      3295      3298      3300      3297      3295      3298      3301
      3299      3298      3301      3302      3299      3298      3301      3303
      3299      3298      3301      3304      3300      3298      3301      3302
      3300      3298      3301      3303      3300      3298      3301      3304
      3305      3308      3311      3312      3305      3308      3311      3313
      3305      3308      3311      3314      3306      3305      3308      3309
      3306      3305      3308      3310      3306      3305      3308      3311
      3307      3305      3308      3309      3307      3305      3308      3310
      3307      3305      3308      3311      3308      3311      3314      3315
      3308      3311      3314      3316      3308      3311      3314      3317
      3309      3308      3311      3312      3309      3308      3311      3313
      3309      3308      3311      3314      3310      3308      3311      3312
      3310      3308      3311      3313      3310      3308      3311      3314
      3311      3314      3317      3318      3311      3314      3317      3319
      3311      3314      3317      3320      3312      3311      3314      3315
      3312      3311      3314      3316      3312      3311      3314      3317
      3313      3311      3314      3315      3313      3311      3314      3316
      3313      3311      3314      3317      3314      3317      3320      3321
      3314      3317      3320      3322      3314      3317      3320      3323
      3315      3314      3317      3318      3315      3314      3317      3319
      3315      3314      3317      3320      3316      3314      3317      3318
      3316      3314      3317      3319      3316      3314      3317      3320
      3317      3320      3323      3324      3317      3320      3323      3325
      3317      3320      3323      3326      3318      3317      3320      3321
      3318      3317      3320      3322      3318      3317      3320      3323
      3319      3317      3320      3321      3319      3317      3320      3322
      3319      3317      3320      3323      3320      3323      3326      3327
      3320      3323      3326      3328      3320      3323      3326      3329
      3321      3320      3323      3324      3321      3320      3323      3325
      3321      3320      3323      3326      3322      3320      3323      3324
      3322      3320      3323      3325      3322      3320      3323      3326
      3323      3326      3329      3330      3323      3326      3329      3331
      3323      3326      3329      3332      3324      3323      3326      3327
      3324      3323      3326      3328      3324      3323      3326      3329
      3325      3323      3326      3327      3325      3323      3326      3328
      3325      3323      3326      3329      3326      3329      3332      3333
      3326      3329      3332      3334      3326      3329      3332      3335
      3327      3326      3329      3330      3327      3326      3329      3331
      3327      3326      3329      3332      3328      3326      3329      3330
      3328      3326      3329      3331      3328      3326      3329      3332
      3329      3332      3335      3336      3329      3332      3335      3337
      3329      3332      3335      3338      3330      3329      3332      3333
      3330      3329      3332      3334      3330      3329      3332      3335
      3331      3329      3332      3333      3331      3329      3332      3334
      3331      3329      3332      3335      3332      3335      3338      3339
      3332      3335      3338      3340      3332      3335      3338      3341
      3333      3332      3335      3336      3333      3332      3335      3337
      3333      3332      3335      3338      3334      3332      3335      3336
      3334      3332      3335      3337      3334      3332      3335      3338
      3335      3338      3341      3342      3335      3338      3341      3343
      3335      3338      3341      3344      3336      3335      3338      3339
      3336      3335      3338      3340      3336      3335      3338      3341
      3337      3335      3338      3339      3337      3335      3338      3340
      3337      3335      3338      3341      3338      3341      3344      3345
      3338      3341      3344      3346      3338      3341      3344      3347
      3339      3338      3341      3342      3339      3338      3341      3343
      3339      3338      3341      3344      3340      3338      3341      3342
      3340      3338      3341      3343      3340      3338      3341      3344
      3342      3341      3344      3345      3342      3341      3344      3346
      3342      3341      3344      3347      3343      3341      3344      3345
      3343      3341      3344      3346      3343      3341      3344      3347
      3348      3352      3354      3355      3348      3352      3354      3356
      3348      3352      3357      3358      3348      3352      3357      3359
      3348      3352      3357      3363      3349      3348      3352      3353
      3349      3348      3352      3354      3349      3348      3352      3357
      3350      3348      3352      3353      3350      3348      3352      3354
      3350      3348      3352      3357      3351      3348      3352      3353
      3351      3348      3352      3354      3351      3348      3352      3357
      3352      3357      3363      3360      3353      3352      3354      3355
      3353      3352      3354      3356      3353      3352      3357      3358
      3353      3352      3357      3359      3353      3352      3357      3363
      3354      3352      3357      3358      3354      3352      3357      3359
      3354      3352      3357      3363      3355      3354      3352      3357
      3356      3354      3352      3357      3357      3363      3360      3361
      3357      3363      3360      3362      3357      3363      3360      3364
      3358      3357      3363      3360      3359      3357      3363      3360
      3360      3364      3365      3366      3360      3364      3365      3367
      3360      3364      3365      3368      3361      3360      3364      3365
      3362      3360      3364      3365      3363      3360      3364      3365
      3364      3365      3368      3369      3364      3365      3368      3370
      3364      3365      3368      3376      3365      3368      3370      3371
      3365      3368      3376      3377      3365      3368      3376      3378
      3365      3368      3376      3379      3366      3365      3368      3369
      3366      3365      3368      3370      3366      3365      3368      3376
      3367      3365      3368      3369      3367      3365      3368      3370
      3367      3365      3368      3376      3368      3370      3371      3372
      3368      3370      3371      3373      3368      3376      3379      3380
      3369      3368      3370      3371      3369      3368      3376      3377
      3369      3368      3376      3378      3369      3368      3376      3379
      3370      3368      3376      3377      3370      3368      3376      3378
      3370      3368      3376      3379      3370      3371      3373      3374
      3370      3371      3373      3375      3370      3371      3373      3385
      3371      3370      3368      3376      3371      3373      3385      3386
      3371      3373      3385      3387      3371      3373      3385      3388
      3372      3371      3373      3374      3372      3371      3373      3375
      3372      3371      3373      3385      3373      3385      3388      3389
      3373      3385      3388      3390      3373      3385      3388      3391
      3374      3373      3385      3386      3374      3373      3385      3387
      3374      3373      3385      3388      3375      3373      3385      3386
      3375      3373      3385      3387      3375      3373      3385      3388
      3376      3379      3380      3381      3376      3379      3380      3382
      3377      3376      3379      3380      3378      3376      3379      3380
      3379      3380      3382      3383      3379      3380      3382      3384
      3379      3380      3382      3432      3380      3382      3432      3433
      3380      3382      3432      3434      3380      3382      3432      3435
      3381      3380      3382      3383      3381      3380      3382      3384
      3381      3380      3382      3432      3382      3432      3435      3436
      3382      3432      3435      3437      3382      3432      3435      3438
      3383      3382      3432      3433      3383      3382      3432      3434
      3383      3382      3432      3435      3384      3382      3432      3433
      3384      3382      3432      3434      3384      3382      3432      3435
      3385      3388      3391      3392      3385      3388      3391      3393
      3385      3388      3391      3394      3386      3385      3388      3389
      3386      3385      3388      3390      3386      3385      3388      3391
      3387      3385      3388      3389      3387      3385      3388      3390
      3387      3385      3388      3391      3388      3391      3394      3395
      3388      3391      3394      3396      3388      3391      3394      3397
      3389      3388      3391      3392      3389      3388      3391      3393
      3389      3388      3391      3394      3390      3388      3391      3392
      3390      3388      3391      3393      3390      3388      3391      3394
      3391      3394      3397      3398      3391      3394      3397      3399
      3391      3394      3397      3400      3392      3391      3394      3395
      3392      3391      3394      3396      3392      3391      3394      3397
      3393      3391      3394      3395      3393      3391      3394      3396
      3393      3391      3394      3397      3394      3397      3400      3401
      3394      3397      3400      3402      3394      3397      3400      3403
      3395      3394      3397      3398      3395      3394      3397      3399
      3395      3394      3397      3400      3396      3394      3397      3398
      3396      3394      3397      3399      3396      3394      3397      3400
      3397      3400      3403      3404      3397      3400      3403      3405
      3398      3397      3400      3401      3398      3397      3400      3402
      3398      3397      3400      3403      3399      3397      3400      3401
      3399      3397      3400      3402      3399      3397      3400      3403
      3400      3403      3405      3406      3400      3403      3405      3407
      3401      3400      3403      3404      3401      3400      3403      3405
      3402      3400      3403      3404      3402      3400      3403      3405
      3403      3405      3407      3408      3403      3405      3407      3409
      3403      3405      3407      3410      3404      3403      3405      3406
      3404      3403      3405      3407      3405      3407      3410      3411
      3405      3407      3410      3412      3405      3407      3410      3413
      3406      3405      3407      3408      3406      3405      3407      3409
      3406      3405      3407      3410      3407      3410      3413      3414
      3407      3410      3413      3415      3407      3410      3413      3416
      3408      3407      3410      3411      3408      3407      3410      3412
      3408      3407      3410      3413      3409      3407      3410      3411
      3409      3407      3410      3412      3409      3407      3410      3413
      3410      3413      3416      3417      3410      3413      3416      3418
      3410      3413      3416      3419      3411      3410      3413      3414
      3411      3410      3413      3415      3411      3410      3413      3416
      3412      3410      3413      3414      3412      3410      3413      3415
      3412      3410      3413      3416      3413      3416      3419      3420
      3413      3416      3419      3421      3413      3416      3419      3422
      3414      3413      3416      3417      3414      3413      3416      3418
      3414      3413      3416      3419      3415      3413      3416      3417
      3415      3413      3416      3418      3415      3413      3416      3419
      3416      3419      3422      3423      3416      3419      3422      3424
      3416      3419      3422      3425      3417      3416      3419      3420
      3417      3416      3419      3421      3417      3416      3419      3422
      3418      3416      3419      3420      3418      3416      3419      3421
      3418      3416      3419      3422      3419      3422      3425      3426
      3419      3422      3425      3427      3419      3422      3425      3428
      3420      3419      3422      3423      3420      3419      3422      3424
      3420      3419      3422      3425      3421      3419      3422      3423
      3421      3419      3422      3424      3421      3419      3422      3425
      3422      3425      3428      3429      3422      3425      3428      3430
      3422      3425      3428      3431      3423      3422      3425      3426
      3423      3422      3425      3427      3423      3422      3425      3428
      3424      3422      3425      3426      3424      3422      3425      3427
      3424      3422      3425      3428      3426      3425      3428      3429
      3426      3425      3428      3430      3426      3425      3428      3431
      3427      3425      3428      3429      3427      3425      3428      3430
      3427      3425      3428      3431      3432      3435      3438      3439
      3432      3435      3438      3440      3432      3435      3438      3441
      3433      3432      3435      3436      3433      3432      3435      3437
      3433      3432      3435      3438      3434      3432      3435      3436
      3434      3432      3435      3437      3434      3432      3435      3438
      3435      3438      3441      3442      3435      3438      3441      3443
      3435      3438      3441      3444      3436      3435      3438      3439
      3436      3435      3438      3440      3436      3435      3438      3441
      3437      3435      3438      3439      3437      3435      3438      3440
      3437      3435      3438      3441      3438      3441      3444      3445
      3438      3441      3444      3446      3438      3441      3444      3447
      3439      3438      3441      3442      3439      3438      3441      3443
      3439      3438      3441      3444      3440      3438      3441      3442
      3440      3438      3441      3443      3440      3438      3441      3444
      3441      3444      3447      3448      3441      3444      3447      3449
      3441      3444      3447      3450      3442      3441      3444      3445
      3442      3441      3444      3446      3442      3441      3444      3447
      3443      3441      3444      3445      3443      3441      3444      3446
      3443      3441      3444      3447      3444      3447      3450      3451
      3444      3447      3450      3452      3444      3447      3450      3453
      3445      3444      3447      3448      3445      3444      3447      3449
      3445      3444      3447      3450      3446      3444      3447      3448
      3446      3444      3447      3449      3446      3444      3447      3450
      3447      3450      3453      3454      3447      3450      3453      3455
      3447      3450      3453      3456      3448      3447      3450      3451
      3448      3447      3450      3452      3448      3447      3450      3453
      3449      3447      3450      3451      3449      3447      3450      3452
      3449      3447      3450      3453      3450      3453      3456      3457
      3450      3453      3456      3458      3450      3453      3456      3459
      3451      3450      3453      3454      3451      3450      3453      3455
      3451      3450      3453      3456      3452      3450      3453      3454
      3452      3450      3453      3455      3452      3450      3453      3456
      3453      3456      3459      3460      3453      3456      3459      3461
      3453      3456      3459      3462      3454      3453      3456      3457
      3454      3453      3456      3458      3454      3453      3456      3459
      3455      3453      3456      3457      3455      3453      3456      3458
      3455      3453      3456      3459      3456      3459      3462      3463
      3456      3459      3462      3464      3456      3459      3462      3465
      3457      3456      3459      3460      3457      3456      3459      3461
      3457      3456      3459      3462      3458      3456      3459      3460
      3458      3456      3459      3461      3458      3456      3459      3462
      3459      3462      3465      3466      3459      3462      3465      3467
      3459      3462      3465      3468      3460      3459      3462      3463
      3460      3459      3462      3464      3460      3459      3462      3465
      3461      3459      3462      3463      3461      3459      3462      3464
      3461      3459      3462      3465      3462      3465      3468      3469
      3462      3465      3468      3470      3462      3465      3468      3471
      3463      3462      3465      3466      3463      3462      3465      3467
      3463      3462      3465      3468      3464      3462      3465      3466
      3464      3462      3465      3467      3464      3462      3465      3468
      3465      3468      3471      3472      3465      3468      3471      3473
      3465      3468      3471      3474      3466      3465      3468      3469
      3466      3465      3468      3470      3466      3465      3468      3471
      3467      3465      3468      3469      3467      3465      3468      3470
      3467      3465      3468      3471      3469      3468      3471      3472
      3469      3468      3471      3473      3469      3468      3471      3474
      3470      3468      3471      3472      3470      3468      3471      3473
      3470      3468      3471      3474      3475      3488      3491      3492
      3475      3488      3491      3493      3475      3488      3491      3498
      3476      3475      3480      3481      3476      3475      3480      3482
      3476      3475      3480      3483      3476      3475      3484      3485
      3476      3475      3484      3486      3476      3475      3484      3487
      3476      3475      3488      3489      3476      3475      3488      3490
      3476      3475      3488      3491      3477      3476      3475      3480
      3477      3476      3475      3484      3477      3476      3475      3488
      3478      3476      3475      3480      3478      3476      3475      3484
      3478      3476      3475      3488      3479      3476      3475      3480
      3479      3476      3475      3484      3479      3476      3475      3488
      3480      3475      3484      3485      3480      3475      3484      3486
      3480      3475      3484      3487      3480      3475      3488      3489
      3480      3475      3488      3490      3480      3475      3488      3491
      3481      3480      3475      3484      3481      3480      3475      3488
      3482      3480      3475      3484      3482      3480      3475      3488
      3483      3480      3475      3484      3483      3480      3475      3488
      3484      3475      3488      3489      3484      3475      3488      3490
      3484      3475      3488      3491      3485      3484      3475      3488
      3486      3484      3475      3488      3487      3484      3475      3488
      3488      3491      3498      3494      3489      3488      3491      3492
      3489      3488      3491      3493      3489      3488      3491      3498
      3490      3488      3491      3492      3490      3488      3491      3493
      3490      3488      3491      3498      3491      3498      3494      3495
      3491      3498      3494      3496      3491      3498      3494      3497
      3492      3491      3498      3494      3493      3491      3498      3494
      3494      3497      3499      3500      3494      3497      3499      3501
      3494      3497      3499      3504      3495      3494      3497      3499
      3496      3494      3497      3499      3497      3499      3504      3502
      3497      3499      3504      3505      3497      3499      3504      3506
      3498      3494      3497      3499      3499      3504      3502      3503
      3499      3504      3502      3554      3499      3504      3506      3507
      3499      3504      3506      3508      3499      3504      3506      3510
      3500      3499      3504      3502      3500      3499      3504      3505
      3500      3499      3504      3506      3501      3499      3504      3502
      3501      3499      3504      3505      3501      3499      3504      3506
      3502      3504      3506      3507      3502      3504      3506      3508
      3502      3504      3506      3510      3502      3554      3556      3557
      3502      3554      3556      3558      3502      3554      3556      3559
      3503      3502      3504      3505      3503      3502      3504      3506
      3503      3502      3554      3555      3503      3502      3554      3556
      3504      3502      3554      3555      3504      3502      3554      3556
      3504      3506      3508      3509      3504      3506      3510      3511
      3504      3506      3510      3512      3505      3504      3502      3554
      3505      3504      3506      3507      3505      3504      3506      3508
      3505      3504      3506      3510      3506      3504      3502      3554
      3506      3510      3512      3513      3506      3510      3512      3514
      3507      3506      3508      3509      3507      3506      3510      3511
      3507      3506      3510      3512      3508      3506      3510      3511
      3508      3506      3510      3512      3509      3508      3506      3510
      3510      3512      3514      3515      3510      3512      3514      3516
      3510      3512      3514      3517      3511      3510      3512      3513
      3511      3510      3512      3514      3512      3514      3517      3518
      3512      3514      3517      3519      3512      3514      3517      3520
      3513      3512      3514      3515      3513      3512      3514      3516
      3513      3512      3514      3517      3514      3517      3520      3521
      3514      3517      3520      3522      3514      3517      3520      3523
      3515      3514      3517      3518      3515      3514      3517      3519
      3515      3514      3517      3520      3516      3514      3517      3518
      3516      3514      3517      3519      3516      3514      3517      3520
      3517      3520      3523      3524      3517      3520      3523      3525
      3517      3520      3523      3526      3518      3517      3520      3521
      3518      3517      3520      3522      3518      3517      3520      3523
      3519      3517      3520      3521      3519      3517      3520      3522
      3519      3517      3520      3523      3520      3523      3526      3527
      3520      3523      3526      3528      3520      3523      3526      3529
      3521      3520      3523      3524      3521      3520      3523      3525
      3521      3520      3523      3526      3522      3520      3523      3524
      3522      3520      3523      3525      3522      3520      3523      3526
      3523      3526      3529      3530      3523      3526      3529      3531
      3523      3526      3529      3532      3524      3523      3526      3527
      3524      3523      3526      3528      3524      3523      3526      3529
      3525      3523      3526      3527      3525      3523      3526      3528
      3525      3523      3526      3529      3526      3529      3532      3533
      3526      3529      3532      3534      3526      3529      3532      3535
      3527      3526      3529      3530      3527      3526      3529      3531
      3527      3526      3529      3532      3528      3526      3529      3530
      3528      3526      3529      3531      3528      3526      3529      3532
      3529      3532      3535      3536      3529      3532      3535      3537
      3529      3532      3535      3538      3530      3529      3532      3533
      3530      3529      3532      3534      3530      3529      3532      3535
      3531      3529      3532      3533      3531      3529      3532      3534
      3531      3529      3532      3535      3532      3535      3538      3539
      3532      3535      3538      3540      3532      3535      3538      3541
      3533      3532      3535      3536      3533      3532      3535      3537
      3533      3532      3535      3538      3534      3532      3535      3536
      3534      3532      3535      3537      3534      3532      3535      3538
      3535      3538      3541      3542      3535      3538      3541      3543
      3535      3538      3541      3544      3536      3535      3538      3539
      3536      3535      3538      3540      3536      3535      3538      3541
      3537      3535      3538      3539      3537      3535      3538      3540
      3537      3535      3538      3541      3538      3541      3544      3545
      3538      3541      3544      3546      3538      3541      3544      3547
      3539      3538      3541      3542      3539      3538      3541      3543
      3539      3538      3541      3544      3540      3538      3541      3542
      3540      3538      3541      3543      3540      3538      3541      3544
      3541      3544      3547      3548      3541      3544      3547      3549
      3541      3544      3547      3550      3542      3541      3544      3545
      3542      3541      3544      3546      3542      3541      3544      3547
      3543      3541      3544      3545      3543      3541      3544      3546
      3543      3541      3544      3547      3544      3547      3550      3551
      3544      3547      3550      3552      3544      3547      3550      3553
      3545      3544      3547      3548      3545      3544      3547      3549
      3545      3544      3547      3550      3546      3544      3547      3548
      3546      3544      3547      3549      3546      3544      3547      3550
      3548      3547      3550      3551      3548      3547      3550      3552
      3548      3547      3550      3553      3549      3547      3550      3551
      3549      3547      3550      3552      3549      3547      3550      3553
      3554      3556      3559      3560      3554      3556      3559      3561
      3554      3556      3559      3562      3555      3554      3556      3557
      3555      3554      3556      3558      3555      3554      3556      3559
      3556      3559      3562      3563      3556      3559      3562      3564
      3556      3559      3562      3565      3557      3556      3559      3560
      3557      3556      3559      3561      3557      3556      3559      3562
      3558      3556      3559      3560      3558      3556      3559      3561
      3558      3556      3559      3562      3559      3562      3565      3566
      3559      3562      3565      3567      3559      3562      3565      3568
      3560      3559      3562      3563      3560      3559      3562      3564
      3560      3559      3562      3565      3561      3559      3562      3563
      3561      3559      3562      3564      3561      3559      3562      3565
      3562      3565      3568      3569      3562      3565      3568      3570
      3562      3565      3568      3571      3563      3562      3565      3566
      3563      3562      3565      3567      3563      3562      3565      3568
      3564      3562      3565      3566      3564      3562      3565      3567
      3564      3562      3565      3568      3565      3568      3571      3572
      3565      3568      3571      3573      3565      3568      3571      3574
      3566      3565      3568      3569      3566      3565      3568      3570
      3566      3565      3568      3571      3567      3565      3568      3569
      3567      3565      3568      3570      3567      3565      3568      3571
      3568      3571      3574      3575      3568      3571      3574      3576
      3568      3571      3574      3577      3569      3568      3571      3572
      3569      3568      3571      3573      3569      3568      3571      3574
      3570      3568      3571      3572      3570      3568      3571      3573
      3570      3568      3571      3574      3571      3574      3577      3578
      3571      3574      3577      3579      3571      3574      3577      3580
      3572      3571      3574      3575      3572      3571      3574      3576
      3572      3571      3574      3577      3573      3571      3574      3575
      3573      3571      3574      3576      3573      3571      3574      3577
      3574      3577      3580      3581      3574      3577      3580      3582
      3574      3577      3580      3583      3575      3574      3577      3578
      3575      3574      3577      3579      3575      3574      3577      3580
      3576      3574      3577      3578      3576      3574      3577      3579
      3576      3574      3577      3580      3577      3580      3583      3584
      3577      3580      3583      3585      3577      3580      3583      3586
      3578      3577      3580      3581      3578      3577      3580      3582
      3578      3577      3580      3583      3579      3577      3580      3581
      3579      3577      3580      3582      3579      3577      3580      3583
      3580      3583      3586      3587      3580      3583      3586      3588
      3580      3583      3586      3589      3581      3580      3583      3584
      3581      3580      3583      3585      3581      3580      3583      3586
      3582      3580      3583      3584      3582      3580      3583      3585
      3582      3580      3583      3586      3583      3586      3589      3590
      3583      3586      3589      3591      3583      3586      3589      3592
      3584      3583      3586      3587      3584      3583      3586      3588
      3584      3583      3586      3589      3585      3583      3586      3587
      3585      3583      3586      3588      3585      3583      3586      3589
      3586      3589      3592      3593      3586      3589      3592      3594
      3586      3589      3592      3595      3587      3586      3589      3590
      3587      3586      3589      3591      3587      3586      3589      3592
      3588      3586      3589      3590      3588      3586      3589      3591
      3588      3586      3589      3592      3589      3592      3595      3596
      3589      3592      3595      3597      3589      3592      3595      3598
      3590      3589      3592      3593      3590      3589      3592      3594
      3590      3589      3592      3595      3591      3589      3592      3593
      3591      3589      3592      3594      3591      3589      3592      3595
      3592      3595      3598      3599      3592      3595      3598      3600
      3592      3595      3598      3601      3593      3592      3595      3596
      3593      3592      3595      3597      3593      3592      3595      3598
      3594      3592      3595      3596      3594      3592      3595      3597
      3594      3592      3595      3598      3596      3595      3598      3599
      3596      3595      3598      3600      3596      3595      3598      3601
      3597      3595      3598      3599      3597      3595      3598      3600
      3597      3595      3598      3601      3602      3603      3618      3619
      3602      3603      3618      3620      3602      3603      3618      3624
      3603      3602      3606      3607      3603      3602      3606      3608
      3603      3602      3606      3609      3603      3602      3610      3611
      3603      3602      3610      3612      3603      3602      3610      3613
      3603      3602      3614      3615      3603      3602      3614      3616
      3603      3602      3614      3617      3603      3618      3624      3621
      3604      3603      3602      3606      3604      3603      3602      3610
      3604      3603      3602      3614      3604      3603      3618      3619
      3604      3603      3618      3620      3604      3603      3618      3624
      3605      3603      3602      3606      3605      3603      3602      3610
      3605      3603      3602      3614      3605      3603      3618      3619
      3605      3603      3618      3620      3605      3603      3618      3624
      3606      3602      3603      3618      3606      3602      3610      3611
      3606      3602      3610      3612      3606      3602      3610      3613
      3606      3602      3614      3615      3606      3602      3614      3616
      3606      3602      3614      3617      3607      3606      3602      3610
      3607      3606      3602      3614      3608      3606      3602      3610
      3608      3606      3602      3614      3609      3606      3602      3610
      3609      3606      3602      3614      3610      3602      3603      3618
      3610      3602      3614      3615      3610      3602      3614      3616
      3610      3602      3614      3617      3611      3610      3602      3614
      3612      3610      3602      3614      3613      3610      3602      3614
      3614      3602      3603      3618      3618      3624      3621      3622
      3618      3624      3621      3623      3618      3624      3621      3625
      3619      3618      3624      3621      3620      3618      3624      3621
      3621      3625      3626      3627      3621      3625      3626      3628
      3621      3625      3626      3629      3622      3621      3625      3626
      3623      3621      3625      3626      3624      3621      3625      3626
      3625      3626      3629      3630      3625      3626      3629      3631
      3625      3626      3629      3637      3626      3629      3631      3632
      3626      3629      3637      3638      3626      3629      3637      3639
      3626      3629      3637      3640      3627      3626      3629      3630
      3627      3626      3629      3631      3627      3626      3629      3637
      3628      3626      3629      3630      3628      3626      3629      3631
      3628      3626      3629      3637      3629      3631      3632      3633
      3629      3631      3632      3634      3629      3637      3640      3641
      3630      3629      3631      3632      3630      3629      3637      3638
      3630      3629      3637      3639      3630      3629      3637      3640
      3631      3629      3637      3638      3631      3629      3637      3639
      3631      3629      3637      3640      3631      3632      3634      3635
      3631      3632      3634      3636      3631      3632      3634      3646
      3632      3631      3629      3637      3632      3634      3646      3647
      3632      3634      3646      3648      3632      3634      3646      3649
      3633      3632      3634      3635      3633      3632      3634      3636
      3633      3632      3634      3646      3634      3646      3649      3650
      3634      3646      3649      3651      3634      3646      3649      3652
      3635      3634      3646      3647      3635      3634      3646      3648
      3635      3634      3646      3649      3636      3634      3646      3647
      3636      3634      3646      3648      3636      3634      3646      3649
      3637      3640      3641      3642      3637      3640      3641      3643
      3638      3637      3640      3641      3639      3637      3640      3641
      3640      3641      3643      3644      3640      3641      3643      3645
      3640      3641      3643      3693      3641      3643      3693      3694
      3641      3643      3693      3695      3641      3643      3693      3696
      3642      3641      3643      3644      3642      3641      3643      3645
      3642      3641      3643      3693      3643      3693      3696      3697
      3643      3693      3696      3698      3643      3693      3696      3699
      3644      3643      3693      3694      3644      3643      3693      3695
      3644      3643      3693      3696      3645      3643      3693      3694
      3645      3643      3693      3695      3645      3643      3693      3696
      3646      3649      3652      3653      3646      3649      3652      3654
      3646      3649      3652      3655      3647      3646      3649      3650
      3647      3646      3649      3651      3647      3646      3649      3652
      3648      3646      3649      3650      3648      3646      3649      3651
      3648      3646      3649      3652      3649      3652      3655      3656
      3649      3652      3655      3657      3649      3652      3655      3658
      3650      3649      3652      3653      3650      3649      3652      3654
      3650      3649      3652      3655      3651      3649      3652      3653
      3651      3649      3652      3654      3651      3649      3652      3655
      3652      3655      3658      3659      3652      3655      3658      3660
      3652      3655      3658      3661      3653      3652      3655      3656
      3653      3652      3655      3657      3653      3652      3655      3658
      3654      3652      3655      3656      3654      3652      3655      3657
      3654      3652      3655      3658      3655      3658      3661      3662
      3655      3658      3661      3663      3655      3658      3661      3664
      3656      3655      3658      3659      3656      3655      3658      3660
      3656      3655      3658      3661      3657      3655      3658      3659
      3657      3655      3658      3660      3657      3655      3658      3661
      3658      3661      3664      3665      3658      3661      3664      3666
      3659      3658      3661      3662      3659      3658      3661      3663
      3659      3658      3661      3664      3660      3658      3661      3662
      3660      3658      3661      3663      3660      3658      3661      3664
      3661      3664      3666      3667      3661      3664      3666      3668
      3662      3661      3664      3665      3662      3661      3664      3666
      3663      3661      3664      3665      3663      3661      3664      3666
      3664      3666      3668      3669      3664      3666      3668      3670
      3664      3666      3668      3671      3665      3664      3666      3667
      3665      3664      3666      3668      3666      3668      3671      3672
      3666      3668      3671      3673      3666      3668      3671      3674
      3667      3666      3668      3669      3667      3666      3668      3670
      3667      3666      3668      3671      3668      3671      3674      3675
      3668      3671      3674      3676      3668      3671      3674      3677
      3669      3668      3671      3672      3669      3668      3671      3673
      3669      3668      3671      3674      3670      3668      3671      3672
      3670      3668      3671      3673      3670      3668      3671      3674
      3671      3674      3677      3678      3671      3674      3677      3679
      3671      3674      3677      3680      3672      3671      3674      3675
      3672      3671      3674      3676      3672      3671      3674      3677
      3673      3671      3674      3675      3673      3671      3674      3676
      3673      3671      3674      3677      3674      3677      3680      3681
      3674      3677      3680      3682      3674      3677      3680      3683
      3675      3674      3677      3678      3675      3674      3677      3679
      3675      3674      3677      3680      3676      3674      3677      3678
      3676      3674      3677      3679      3676      3674      3677      3680
      3677      3680      3683      3684      3677      3680      3683      3685
      3677      3680      3683      3686      3678      3677      3680      3681
      3678      3677      3680      3682      3678      3677      3680      3683
      3679      3677      3680      3681      3679      3677      3680      3682
      3679      3677      3680      3683      3680      3683      3686      3687
      3680      3683      3686      3688      3680      3683      3686      3689
      3681      3680      3683      3684      3681      3680      3683      3685
      3681      3680      3683      3686      3682      3680      3683      3684
      3682      3680      3683      3685      3682      3680      3683      3686
      3683      3686      3689      3690      3683      3686      3689      3691
      3683      3686      3689      3692      3684      3683      3686      3687
      3684      3683      3686      3688      3684      3683      3686      3689
      3685      3683      3686      3687      3685      3683      3686      3688
      3685      3683      3686      3689      3687      3686      3689      3690
      3687      3686      3689      3691      3687      3686      3689      3692
      3688      3686      3689      3690      3688      3686      3689      3691
      3688      3686      3689      3692      3693      3696      3699      3700
      3693      3696      3699      3701      3693      3696      3699      3702
      3694      3693      3696      3697      3694      3693      3696      3698
      3694      3693      3696      3699      3695      3693      3696      3697
      3695      3693      3696      3698      3695      3693      3696      3699
      3696      3699      3702      3703      3696      3699      3702      3704
      3696      3699      3702      3705      3697      3696      3699      3700
      3697      3696      3699      3701      3697      3696      3699      3702
      3698      3696      3699      3700      3698      3696      3699      3701
      3698      3696      3699      3702      3699      3702      3705      3706
      3699      3702      3705      3707      3699      3702      3705      3708
      3700      3699      3702      3703      3700      3699      3702      3704
      3700      3699      3702      3705      3701      3699      3702      3703
      3701      3699      3702      3704      3701      3699      3702      3705
      3702      3705      3708      3709      3702      3705      3708      3710
      3702      3705      3708      3711      3703      3702      3705      3706
      3703      3702      3705      3707      3703      3702      3705      3708
      3704      3702      3705      3706      3704      3702      3705      3707
      3704      3702      3705      3708      3705      3708      3711      3712
      3705      3708      3711      3713      3705      3708      3711      3714
      3706      3705      3708      3709      3706      3705      3708      3710
      3706      3705      3708      3711      3707      3705      3708      3709
      3707      3705      3708      3710      3707      3705      3708      3711
      3708      3711      3714      3715      3708      3711      3714      3716
      3708      3711      3714      3717      3709      3708      3711      3712
      3709      3708      3711      3713      3709      3708      3711      3714
      3710      3708      3711      3712      3710      3708      3711      3713
      3710      3708      3711      3714      3711      3714      3717      3718
      3711      3714      3717      3719      3711      3714      3717      3720
      3712      3711      3714      3715      3712      3711      3714      3716
      3712      3711      3714      3717      3713      3711      3714      3715
      3713      3711      3714      3716      3713      3711      3714      3717
      3714      3717      3720      3721      3714      3717      3720      3722
      3714      3717      3720      3723      3715      3714      3717      3718
      3715      3714      3717      3719      3715      3714      3717      3720
      3716      3714      3717      3718      3716      3714      3717      3719
      3716      3714      3717      3720      3717      3720      3723      3724
      3717      3720      3723      3725      3717      3720      3723      3726
      3718      3717      3720      3721      3718      3717      3720      3722
      3718      3717      3720      3723      3719      3717      3720      3721
      3719      3717      3720      3722      3719      3717      3720      3723
      3720      3723      3726      3727      3720      3723      3726      3728
      3720      3723      3726      3729      3721      3720      3723      3724
      3721      3720      3723      3725      3721      3720      3723      3726
      3722      3720      3723      3724      3722      3720      3723      3725
      3722      3720      3723      3726      3723      3726      3729      3730
      3723      3726      3729      3731      3723      3726      3729      3732
      3724      3723      3726      3727      3724      3723      3726      3728
      3724      3723      3726      3729      3725      3723      3726      3727
      3725      3723      3726      3728      3725      3723      3726      3729
      3726      3729      3732      3733      3726      3729      3732      3734
      3726      3729      3732      3735      3727      3726      3729      3730
      3727      3726      3729      3731      3727      3726      3729      3732
      3728      3726      3729      3730      3728      3726      3729      3731
      3728      3726      3729      3732      3730      3729      3732      3733
      3730      3729      3732      3734      3730      3729      3732      3735
      3731      3729      3732      3733      3731      3729      3732      3734
      3731      3729      3732      3735      3736      3740      3742      3743
      3736      3740      3742      3744      3736      3740      3745      3746
      3736      3740      3745      3747      3736      3740      3745      3751
      3737      3736      3740      3741      3737      3736      3740      3742
      3737      3736      3740      3745      3738      3736      3740      3741
      3738      3736      3740      3742      3738      3736      3740      3745
      3739      3736      3740      3741      3739      3736      3740      3742
      3739      3736      3740      3745      3740      3745      3751      3748
      3741      3740      3742      3743      3741      3740      3742      3744
      3741      3740      3745      3746      3741      3740      3745      3747
      3741      3740      3745      3751      3742      3740      3745      3746
      3742      3740      3745      3747      3742      3740      3745      3751
      3743      3742      3740      3745      3744      3742      3740      3745
      3745      3751      3748      3749      3745      3751      3748      3750
      3745      3751      3748      3752      3746      3745      3751      3748
      3747      3745      3751      3748      3748      3752      3753      3754
      3748      3752      3753      3755      3748      3752      3753      3756
      3749      3748      3752      3753      3750      3748      3752      3753
      3751      3748      3752      3753      3752      3753      3756      3757
      3752      3753      3756      3758      3752      3753      3756      3764
      3753      3756      3758      3759      3753      3756      3764      3765
      3753      3756      3764      3766      3753      3756      3764      3767
      3754      3753      3756      3757      3754      3753      3756      3758
      3754      3753      3756      3764      3755      3753      3756      3757
      3755      3753      3756      3758      3755      3753      3756      3764
      3756      3758      3759      3760      3756      3758      3759      3761
      3756      3764      3767      3768      3757      3756      3758      3759
      3757      3756      3764      3765      3757      3756      3764      3766
      3757      3756      3764      3767      3758      3756      3764      3765
      3758      3756      3764      3766      3758      3756      3764      3767
      3758      3759      3761      3762      3758      3759      3761      3763
      3758      3759      3761      3773      3759      3758      3756      3764
      3759      3761      3773      3774      3759      3761      3773      3775
      3759      3761      3773      3776      3760      3759      3761      3762
      3760      3759      3761      3763      3760      3759      3761      3773
      3761      3773      3776      3777      3761      3773      3776      3778
      3761      3773      3776      3779      3762      3761      3773      3774
      3762      3761      3773      3775      3762      3761      3773      3776
      3763      3761      3773      3774      3763      3761      3773      3775
      3763      3761      3773      3776      3764      3767      3768      3769
      3764      3767      3768      3770      3765      3764      3767      3768
      3766      3764      3767      3768      3767      3768      3770      3771
      3767      3768      3770      3772      3767      3768      3770      3820
      3768      3770      3820      3821      3768      3770      3820      3822
      3768      3770      3820      3823      3769      3768      3770      3771
      3769      3768      3770      3772      3769      3768      3770      3820
      3770      3820      3823      3824      3770      3820      3823      3825
      3770      3820      3823      3826      3771      3770      3820      3821
      3771      3770      3820      3822      3771      3770      3820      3823
      3772      3770      3820      3821      3772      3770      3820      3822
      3772      3770      3820      3823      3773      3776      3779      3780
      3773      3776      3779      3781      3773      3776      3779      3782
      3774      3773      3776      3777      3774      3773      3776      3778
      3774      3773      3776      3779      3775      3773      3776      3777
      3775      3773      3776      3778      3775      3773      3776      3779
      3776      3779      3782      3783      3776      3779      3782      3784
      3776      3779      3782      3785      3777      3776      3779      3780
      3777      3776      3779      3781      3777      3776      3779      3782
      3778      3776      3779      3780      3778      3776      3779      3781
      3778      3776      3779      3782      3779      3782      3785      3786
      3779      3782      3785      3787      3779      3782      3785      3788
      3780      3779      3782      3783      3780      3779      3782      3784
      3780      3779      3782      3785      3781      3779      3782      3783
      3781      3779      3782      3784      3781      3779      3782      3785
      3782      3785      3788      3789      3782      3785      3788      3790
      3782      3785      3788      3791      3783      3782      3785      3786
      3783      3782      3785      3787      3783      3782      3785      3788
      3784      3782      3785      3786      3784      3782      3785      3787
      3784      3782      3785      3788      3785      3788      3791      3792
      3785      3788      3791      3793      3786      3785      3788      3789
      3786      3785      3788      3790      3786      3785      3788      3791
      3787      3785      3788      3789      3787      3785      3788      3790
      3787      3785      3788      3791      3788      3791      3793      3794
      3788      3791      3793      3795      3789      3788      3791      3792
      3789      3788      3791      3793      3790      3788      3791      3792
      3790      3788      3791      3793      3791      3793      3795      3796
      3791      3793      3795      3797      3791      3793      3795      3798
      3792      3791      3793      3794      3792      3791      3793      3795
      3793      3795      3798      3799      3793      3795      3798      3800
      3793      3795      3798      3801      3794      3793      3795      3796
      3794      3793      3795      3797      3794      3793      3795      3798
      3795      3798      3801      3802      3795      3798      3801      3803
      3795      3798      3801      3804      3796      3795      3798      3799
      3796      3795      3798      3800      3796      3795      3798      3801
      3797      3795      3798      3799      3797      3795      3798      3800
      3797      3795      3798      3801      3798      3801      3804      3805
      3798      3801      3804      3806      3798      3801      3804      3807
      3799      3798      3801      3802      3799      3798      3801      3803
      3799      3798      3801      3804      3800      3798      3801      3802
      3800      3798      3801      3803      3800      3798      3801      3804
      3801      3804      3807      3808      3801      3804      3807      3809
      3801      3804      3807      3810      3802      3801      3804      3805
      3802      3801      3804      3806      3802      3801      3804      3807
      3803      3801      3804      3805      3803      3801      3804      3806
      3803      3801      3804      3807      3804      3807      3810      3811
      3804      3807      3810      3812      3804      3807      3810      3813
      3805      3804      3807      3808      3805      3804      3807      3809
      3805      3804      3807      3810      3806      3804      3807      3808
      3806      3804      3807      3809      3806      3804      3807      3810
      3807      3810      3813      3814      3807      3810      3813      3815
      3807      3810      3813      3816      3808      3807      3810      3811
      3808      3807      3810      3812      3808      3807      3810      3813
      3809      3807      3810      3811      3809      3807      3810      3812
      3809      3807      3810      3813      3810      3813      3816      3817
      3810      3813      3816      3818      3810      3813      3816      3819
      3811      3810      3813      3814      3811      3810      3813      3815
      3811      3810      3813      3816      3812      3810      3813      3814
      3812      3810      3813      3815      3812      3810      3813      3816
      3814      3813      3816      3817      3814      3813      3816      3818
      3814      3813      3816      3819      3815      3813      3816      3817
      3815      3813      3816      3818      3815      3813      3816      3819
      3820      3823      3826      3827      3820      3823      3826      3828
      3820      3823      3826      3829      3821      3820      3823      3824
      3821      3820      3823      3825      3821      3820      3823      3826
      3822      3820      3823      3824      3822      3820      3823      3825
      3822      3820      3823      3826      3823      3826      3829      3830
      3823      3826      3829      3831      3823      3826      3829      3832
      3824      3823      3826      3827      3824      3823      3826      3828
      3824      3823      3826      3829      3825      3823      3826      3827
      3825      3823      3826      3828      3825      3823      3826      3829
      3826      3829      3832      3833      3826      3829      3832      3834
      3826      3829      3832      3835      3827      3826      3829      3830
      3827      3826      3829      3831      3827      3826      3829      3832
      3828      3826      3829      3830      3828      3826      3829      3831
      3828      3826      3829      3832      3829      3832      3835      3836
      3829      3832      3835      3837      3829      3832      3835      3838
      3830      3829      3832      3833      3830      3829      3832      3834
      3830      3829      3832      3835      3831      3829      3832      3833
      3831      3829      3832      3834      3831      3829      3832      3835
      3832      3835      3838      3839      3832      3835      3838      3840
      3832      3835      3838      3841      3833      3832      3835      3836
      3833      3832      3835      3837      3833      3832      3835      3838
      3834      3832      3835      3836      3834      3832      3835      3837
      3834      3832      3835      3838      3835      3838      3841      3842
      3835      3838      3841      3843      3835      3838      3841      3844
      3836      3835      3838      3839      3836      3835      3838      3840
      3836      3835      3838      3841      3837      3835      3838      3839
      3837      3835      3838      3840      3837      3835      3838      3841
      3838      3841      3844      3845      3838      3841      3844      3846
      3838      3841      3844      3847      3839      3838      3841      3842
      3839      3838      3841      3843      3839      3838      3841      3844
      3840      3838      3841      3842      3840      3838      3841      3843
      3840      3838      3841      3844      3841      3844      3847      3848
      3841      3844      3847      3849      3841      3844      3847      3850
      3842      3841      3844      3845      3842      3841      3844      3846
      3842      3841      3844      3847      3843      3841      3844      3845
      3843      3841      3844      3846      3843      3841      3844      3847
      3844      3847      3850      3851      3844      3847      3850      3852
      3844      3847      3850      3853      3845      3844      3847      3848
      3845      3844      3847      3849      3845      3844      3847      3850
      3846      3844      3847      3848      3846      3844      3847      3849
      3846      3844      3847      3850      3847      3850      3853      3854
      3847      3850      3853      3855      3847      3850      3853      3856
      3848      3847      3850      3851      3848      3847      3850      3852
      3848      3847      3850      3853      3849      3847      3850      3851
      3849      3847      3850      3852      3849      3847      3850      3853
      3850      3853      3856      3857      3850      3853      3856      3858
      3850      3853      3856      3859      3851      3850      3853      3854
      3851      3850      3853      3855      3851      3850      3853      3856
      3852      3850      3853      3854      3852      3850      3853      3855
      3852      3850      3853      3856      3853      3856      3859      3860
      3853      3856      3859      3861      3853      3856      3859      3862
      3854      3853      3856      3857      3854      3853      3856      3858
      3854      3853      3856      3859      3855      3853      3856      3857
      3855      3853      3856      3858      3855      3853      3856      3859
      3857      3856      3859      3860      3857      3856      3859      3861
      3857      3856      3859      3862      3858      3856      3859      3860
      3858      3856      3859      3861      3858      3856      3859      3862
      3863      3876      3879      3880      3863      3876      3879      3881
      3863      3876      3879      3886      3864      3863      3868      3869
      3864      3863      3868      3870      3864      3863      3868      3871
      3864      3863      3872      3873      3864      3863      3872      3874
      3864      3863      3872      3875      3864      3863      3876      3877
      3864      3863      3876      3878      3864      3863      3876      3879
      3865      3864      3863      3868      3865      3864      3863      3872
      3865      3864      3863      3876      3866      3864      3863      3868
      3866      3864      3863      3872      3866      3864      3863      3876
      3867      3864      3863      3868      3867      3864      3863      3872
      3867      3864      3863      3876      3868      3863      3872      3873
      3868      3863      3872      3874      3868      3863      3872      3875
      3868      3863      3876      3877      3868      3863      3876      3878
      3868      3863      3876      3879      3869      3868      3863      3872
      3869      3868      3863      3876      3870      3868      3863      3872
      3870      3868      3863      3876      3871      3868      3863      3872
      3871      3868      3863      3876      3872      3863      3876      3877
      3872      3863      3876      3878      3872      3863      3876      3879
      3873      3872      3863      3876      3874      3872      3863      3876
      3875      3872      3863      3876      3876      3879      3886      3882
      3877      3876      3879      3880      3877      3876      3879      3881
      3877      3876      3879      3886      3878      3876      3879      3880
      3878      3876      3879      3881      3878      3876      3879      3886
      3879      3886      3882      3883      3879      3886      3882      3884
      3879      3886      3882      3885      3880      3879      3886      3882
      3881      3879      3886      3882      3882      3885      3887      3888
      3882      3885      3887      3889      3882      3885      3887      3892
      3883      3882      3885      3887      3884      3882      3885      3887
      3885      3887      3892      3890      3885      3887      3892      3893
      3885      3887      3892      3894      3886      3882      3885      3887
      3887      3892      3890      3891      3887      3892      3890      3942
      3887      3892      3894      3895      3887      3892      3894      3896
      3887      3892      3894      3898      3888      3887      3892      3890
      3888      3887      3892      3893      3888      3887      3892      3894
      3889      3887      3892      3890      3889      3887      3892      3893
      3889      3887      3892      3894      3890      3892      3894      3895
      3890      3892      3894      3896      3890      3892      3894      3898
      3890      3942      3944      3945      3890      3942      3944      3946
      3890      3942      3944      3947      3891      3890      3892      3893
      3891      3890      3892      3894      3891      3890      3942      3943
      3891      3890      3942      3944      3892      3890      3942      3943
      3892      3890      3942      3944      3892      3894      3896      3897
      3892      3894      3898      3899      3892      3894      3898      3900
      3893      3892      3890      3942      3893      3892      3894      3895
      3893      3892      3894      3896      3893      3892      3894      3898
      3894      3892      3890      3942      3894      3898      3900      3901
      3894      3898      3900      3902      3895      3894      3896      3897
      3895      3894      3898      3899      3895      3894      3898      3900
      3896      3894      3898      3899      3896      3894      3898      3900
      3897      3896      3894      3898      3898      3900      3902      3903
      3898      3900      3902      3904      3898      3900      3902      3905
      3899      3898      3900      3901      3899      3898      3900      3902
      3900      3902      3905      3906      3900      3902      3905      3907
      3900      3902      3905      3908      3901      3900      3902      3903
      3901      3900      3902      3904      3901      3900      3902      3905
      3902      3905      3908      3909      3902      3905      3908      3910
      3902      3905      3908      3911      3903      3902      3905      3906
      3903      3902      3905      3907      3903      3902      3905      3908
      3904      3902      3905      3906      3904      3902      3905      3907
      3904      3902      3905      3908      3905      3908      3911      3912
      3905      3908      3911      3913      3905      3908      3911      3914
      3906      3905      3908      3909      3906      3905      3908      3910
      3906      3905      3908      3911      3907      3905      3908      3909
      3907      3905      3908      3910      3907      3905      3908      3911
      3908      3911      3914      3915      3908      3911      3914      3916
      3908      3911      3914      3917      3909      3908      3911      3912
      3909      3908      3911      3913      3909      3908      3911      3914
      3910      3908      3911      3912      3910      3908      3911      3913
      3910      3908      3911      3914      3911      3914      3917      3918
      3911      3914      3917      3919      3911      3914      3917      3920
      3912      3911      3914      3915      3912      3911      3914      3916
      3912      3911      3914      3917      3913      3911      3914      3915
      3913      3911      3914      3916      3913      3911      3914      3917
      3914      3917      3920      3921      3914      3917      3920      3922
      3914      3917      3920      3923      3915      3914      3917      3918
      3915      3914      3917      3919      3915      3914      3917      3920
      3916      3914      3917      3918      3916      3914      3917      3919
      3916      3914      3917      3920      3917      3920      3923      3924
      3917      3920      3923      3925      3917      3920      3923      3926
      3918      3917      3920      3921      3918      3917      3920      3922
      3918      3917      3920      3923      3919      3917      3920      3921
      3919      3917      3920      3922      3919      3917      3920      3923
      3920      3923      3926      3927      3920      3923      3926      3928
      3920      3923      3926      3929      3921      3920      3923      3924
      3921      3920      3923      3925      3921      3920      3923      3926
      3922      3920      3923      3924      3922      3920      3923      3925
      3922      3920      3923      3926      3923      3926      3929      3930
      3923      3926      3929      3931      3923      3926      3929      3932
      3924      3923      3926      3927      3924      3923      3926      3928
      3924      3923      3926      3929      3925      3923      3926      3927
      3925      3923      3926      3928      3925      3923      3926      3929
      3926      3929      3932      3933      3926      3929      3932      3934
      3926      3929      3932      3935      3927      3926      3929      3930
      3927      3926      3929      3931      3927      3926      3929      3932
      3928      3926      3929      3930      3928      3926      3929      3931
      3928      3926      3929      3932      3929      3932      3935      3936
      3929      3932      3935      3937      3929      3932      3935      3938
      3930      3929      3932      3933      3930      3929      3932      3934
      3930      3929      3932      3935      3931      3929      3932      3933
      3931      3929      3932      3934      3931      3929      3932      3935
      3932      3935      3938      3939      3932      3935      3938      3940
      3932      3935      3938      3941      3933      3932      3935      3936
      3933      3932      3935      3937      3933      3932      3935      3938
      3934      3932      3935      3936      3934      3932      3935      3937
      3934      3932      3935      3938      3936      3935      3938      3939
      3936      3935      3938      3940      3936      3935      3938      3941
      3937      3935      3938      3939      3937      3935      3938      3940
      3937      3935      3938      3941      3942      3944      3947      3948
      3942      3944      3947      3949      3942      3944      3947      3950
      3943      3942      3944      3945      3943      3942      3944      3946
      3943      3942      3944      3947      3944      3947      3950      3951
      3944      3947      3950      3952      3944      3947      3950      3953
      3945      3944      3947      3948      3945      3944      3947      3949
      3945      3944      3947      3950      3946      3944      3947      3948
      3946      3944      3947      3949      3946      3944      3947      3950
      3947      3950      3953      3954      3947      3950      3953      3955
      3947      3950      3953      3956      3948      3947      3950      3951
      3948      3947      3950      3952      3948      3947      3950      3953
      3949      3947      3950      3951      3949      3947      3950      3952
      3949      3947      3950      3953      3950      3953      3956      3957
      3950      3953      3956      3958      3950      3953      3956      3959
      3951      3950      3953      3954      3951      3950      3953      3955
      3951      3950      3953      3956      3952      3950      3953      3954
      3952      3950      3953      3955      3952      3950      3953      3956
      3953      3956      3959      3960      3953      3956      3959      3961
      3953      3956      3959      3962      3954      3953      3956      3957
      3954      3953      3956      3958      3954      3953      3956      3959
      3955      3953      3956      3957      3955      3953      3956      3958
      3955      3953      3956      3959      3956      3959      3962      3963
      3956      3959      3962      3964      3956      3959      3962      3965
      3957      3956      3959      3960      3957      3956      3959      3961
      3957      3956      3959      3962      3958      3956      3959      3960
      3958      3956      3959      3961      3958      3956      3959      3962
      3959      3962      3965      3966      3959      3962      3965      3967
      3959      3962      3965      3968      3960      3959      3962      3963
      3960      3959      3962      3964      3960      3959      3962      3965
      3961      3959      3962      3963      3961      3959      3962      3964
      3961      3959      3962      3965      3962      3965      3968      3969
      3962      3965      3968      3970      3962      3965      3968      3971
      3963      3962      3965      3966      3963      3962      3965      3967
      3963      3962      3965      3968      3964      3962      3965      3966
      3964      3962      3965      3967      3964      3962      3965      3968
      3965      3968      3971      3972      3965      3968      3971      3973
      3965      3968      3971      3974      3966      3965      3968      3969
      3966      3965      3968      3970      3966      3965      3968      3971
      3967      3965      3968      3969      3967      3965      3968      3970
      3967      3965      3968      3971      3968      3971      3974      3975
      3968      3971      3974      3976      3968      3971      3974      3977
      3969      3968      3971      3972      3969      3968      3971      3973
      3969      3968      3971      3974      3970      3968      3971      3972
      3970      3968      3971      3973      3970      3968      3971      3974
      3971      3974      3977      3978      3971      3974      3977      3979
      3971      3974      3977      3980      3972      3971      3974      3975
      3972      3971      3974      3976      3972      3971      3974      3977
      3973      3971      3974      3975      3973      3971      3974      3976
      3973      3971      3974      3977      3974      3977      3980      3981
      3974      3977      3980      3982      3974      3977      3980      3983
      3975      3974      3977      3978      3975      3974      3977      3979
      3975      3974      3977      3980      3976      3974      3977      3978
      3976      3974      3977      3979      3976      3974      3977      3980
      3977      3980      3983      3984      3977      3980      3983      3985
      3977      3980      3983      3986      3978      3977      3980      3981
      3978      3977      3980      3982      3978      3977      3980      3983
      3979      3977      3980      3981      3979      3977      3980      3982
      3979      3977      3980      3983      3980      3983      3986      3987
      3980      3983      3986      3988      3980      3983      3986      3989
      3981      3980      3983      3984      3981      3980      3983      3985
      3981      3980      3983      3986      3982      3980      3983      3984
      3982      3980      3983      3985      3982      3980      3983      3986
      3984      3983      3986      3987      3984      3983      3986      3988
      3984      3983      3986      3989      3985      3983      3986      3987
      3985      3983      3986      3988      3985      3983      3986      3989
      3990      3991      4006      4007      3990      3991      4006      4008
      3990      3991      4006      4012      3991      3990      3994      3995
      3991      3990      3994      3996      3991      3990      3994      3997
      3991      3990      3998      3999      3991      3990      3998      4000
      3991      3990      3998      4001      3991      3990      4002      4003
      3991      3990      4002      4004      3991      3990      4002      4005
      3991      4006      4012      4009      3992      3991      3990      3994
      3992      3991      3990      3998      3992      3991      3990      4002
      3992      3991      4006      4007      3992      3991      4006      4008
      3992      3991      4006      4012      3993      3991      3990      3994
      3993      3991      3990      3998      3993      3991      3990      4002
      3993      3991      4006      4007      3993      3991      4006      4008
      3993      3991      4006      4012      3994      3990      3991      4006
      3994      3990      3998      3999      3994      3990      3998      4000
      3994      3990      3998      4001      3994      3990      4002      4003
      3994      3990      4002      4004      3994      3990      4002      4005
      3995      3994      3990      3998      3995      3994      3990      4002
      3996      3994      3990      3998      3996      3994      3990      4002
      3997      3994      3990      3998      3997      3994      3990      4002
      3998      3990      3991      4006      3998      3990      4002      4003
      3998      3990      4002      4004      3998      3990      4002      4005
      3999      3998      3990      4002      4000      3998      3990      4002
      4001      3998      3990      4002      4002      3990      3991      4006
      4006      4012      4009      4010      4006      4012      4009      4011
      4006      4012      4009      4013      4007      4006      4012      4009
      4008      4006      4012      4009      4009      4013      4014      4015
      4009      4013      4014      4016      4009      4013      4014      4017
      4010      4009      4013      4014      4011      4009      4013      4014
      4012      4009      4013      4014      4013      4014      4017      4018
      4013      4014      4017      4019      4013      4014      4017      4025
      4014      4017      4019      4020      4014      4017      4025      4026
      4014      4017      4025      4027      4014      4017      4025      4028
      4015      4014      4017      4018      4015      4014      4017      4019
      4015      4014      4017      4025      4016      4014      4017      4018
      4016      4014      4017      4019      4016      4014      4017      4025
      4017      4019      4020      4021      4017      4019      4020      4022
      4017      4025      4028      4029      4018      4017      4019      4020
      4018      4017      4025      4026      4018      4017      4025      4027
      4018      4017      4025      4028      4019      4017      4025      4026
      4019      4017      4025      4027      4019      4017      4025      4028
      4019      4020      4022      4023      4019      4020      4022      4024
      4019      4020      4022      4034      4020      4019      4017      4025
      4020      4022      4034      4035      4020      4022      4034      4036
      4020      4022      4034      4037      4021      4020      4022      4023
      4021      4020      4022      4024      4021      4020      4022      4034
      4022      4034      4037      4038      4022      4034      4037      4039
      4022      4034      4037      4040      4023      4022      4034      4035
      4023      4022      4034      4036      4023      4022      4034      4037
      4024      4022      4034      4035      4024      4022      4034      4036
      4024      4022      4034      4037      4025      4028      4029      4030
      4025      4028      4029      4031      4026      4025      4028      4029
      4027      4025      4028      4029      4028      4029      4031      4032
      4028      4029      4031      4033      4028      4029      4031      4081
      4029      4031      4081      4082      4029      4031      4081      4083
      4029      4031      4081      4084      4030      4029      4031      4032
      4030      4029      4031      4033      4030      4029      4031      4081
      4031      4081      4084      4085      4031      4081      4084      4086
      4031      4081      4084      4087      4032      4031      4081      4082
      4032      4031      4081      4083      4032      4031      4081      4084
      4033      4031      4081      4082      4033      4031      4081      4083
      4033      4031      4081      4084      4034      4037      4040      4041
      4034      4037      4040      4042      4034      4037      4040      4043
      4035      4034      4037      4038      4035      4034      4037      4039
      4035      4034      4037      4040      4036      4034      4037      4038
      4036      4034      4037      4039      4036      4034      4037      4040
      4037      4040      4043      4044      4037      4040      4043      4045
      4037      4040      4043      4046      4038      4037      4040      4041
      4038      4037      4040      4042      4038      4037      4040      4043
      4039      4037      4040      4041      4039      4037      4040      4042
      4039      4037      4040      4043      4040      4043      4046      4047
      4040      4043      4046      4048      4040      4043      4046      4049
      4041      4040      4043      4044      4041      4040      4043      4045
      4041      4040      4043      4046      4042      4040      4043      4044
      4042      4040      4043      4045      4042      4040      4043      4046
      4043      4046      4049      4050      4043      4046      4049      4051
      4043      4046      4049      4052      4044      4043      4046      4047
      4044      4043      4046      4048      4044      4043      4046      4049
      4045      4043      4046      4047      4045      4043      4046      4048
      4045      4043      4046      4049      4046      4049      4052      4053
      4046      4049      4052      4054      4047      4046      4049      4050
      4047      4046      4049      4051      4047      4046      4049      4052
      4048      4046      4049      4050      4048      4046      4049      4051
      4048      4046      4049      4052      4049      4052      4054      4055
      4049      4052      4054      4056      4050      4049      4052      4053
      4050      4049      4052      4054      4051      4049      4052      4053
      4051      4049      4052      4054      4052      4054      4056      4057
      4052      4054      4056      4058      4052      4054      4056      4059
      4053      4052      4054      4055      4053      4052      4054      4056
      4054      4056      4059      4060      4054      4056      4059      4061
      4054      4056      4059      4062      4055      4054      4056      4057
      4055      4054      4056      4058      4055      4054      4056      4059
      4056      4059      4062      4063      4056      4059      4062      4064
      4056      4059      4062      4065      4057      4056      4059      4060
      4057      4056      4059      4061      4057      4056      4059      4062
      4058      4056      4059      4060      4058      4056      4059      4061
      4058      4056      4059      4062      4059      4062      4065      4066
      4059      4062      4065      4067      4059      4062      4065      4068
      4060      4059      4062      4063      4060      4059      4062      4064
      4060      4059      4062      4065      4061      4059      4062      4063
      4061      4059      4062      4064      4061      4059      4062      4065
      4062      4065      4068      4069      4062      4065      4068      4070
      4062      4065      4068      4071      4063      4062      4065      4066
      4063      4062      4065      4067      4063      4062      4065      4068
      4064      4062      4065      4066      4064      4062      4065      4067
      4064      4062      4065      4068      4065      4068      4071      4072
      4065      4068      4071      4073      4065      4068      4071      4074
      4066      4065      4068      4069      4066      4065      4068      4070
      4066      4065      4068      4071      4067      4065      4068      4069
      4067      4065      4068      4070      4067      4065      4068      4071
      4068      4071      4074      4075      4068      4071      4074      4076
      4068      4071      4074      4077      4069      4068      4071      4072
      4069      4068      4071      4073      4069      4068      4071      4074
      4070      4068      4071      4072      4070      4068      4071      4073
      4070      4068      4071      4074      4071      4074      4077      4078
      4071      4074      4077      4079      4071      4074      4077      4080
      4072      4071      4074      4075      4072      4071      4074      4076
      4072      4071      4074      4077      4073      4071      4074      4075
      4073      4071      4074      4076      4073      4071      4074      4077
      4075      4074      4077      4078      4075      4074      4077      4079
      4075      4074      4077      4080      4076      4074      4077      4078
      4076      4074      4077      4079      4076      4074      4077      4080
      4081      4084      4087      4088      4081      4084      4087      4089
      4081      4084      4087      4090      4082      4081      4084      4085
      4082      4081      4084      4086      4082      4081      4084      4087
      4083      4081      4084      4085      4083      4081      4084      4086
      4083      4081      4084      4087      4084      4087      4090      4091
      4084      4087      4090      4092      4084      4087      4090      4093
      4085      4084      4087      4088      4085      4084      4087      4089
      4085      4084      4087      4090      4086      4084      4087      4088
      4086      4084      4087      4089      4086      4084      4087      4090
      4087      4090      4093      4094      4087      4090      4093      4095
      4087      4090      4093      4096      4088      4087      4090      4091
      4088      4087      4090      4092      4088      4087      4090      4093
      4089      4087      4090      4091      4089      4087      4090      4092
      4089      4087      4090      4093      4090      4093      4096      4097
      4090      4093      4096      4098      4090      4093      4096      4099
      4091      4090      4093      4094      4091      4090      4093      4095
      4091      4090      4093      4096      4092      4090      4093      4094
      4092      4090      4093      4095      4092      4090      4093      4096
      4093      4096      4099      4100      4093      4096      4099      4101
      4093      4096      4099      4102      4094      4093      4096      4097
      4094      4093      4096      4098      4094      4093      4096      4099
      4095      4093      4096      4097      4095      4093      4096      4098
      4095      4093      4096      4099      4096      4099      4102      4103
      4096      4099      4102      4104      4096      4099      4102      4105
      4097      4096      4099      4100      4097      4096      4099      4101
      4097      4096      4099      4102      4098      4096      4099      4100
      4098      4096      4099      4101      4098      4096      4099      4102
      4099      4102      4105      4106      4099      4102      4105      4107
      4099      4102      4105      4108      4100      4099      4102      4103
      4100      4099      4102      4104      4100      4099      4102      4105
      4101      4099      4102      4103      4101      4099      4102      4104
      4101      4099      4102      4105      4102      4105      4108      4109
      4102      4105      4108      4110      4102      4105      4108      4111
      4103      4102      4105      4106      4103      4102      4105      4107
      4103      4102      4105      4108      4104      4102      4105      4106
      4104      4102      4105      4107      4104      4102      4105      4108
      4105      4108      4111      4112      4105      4108      4111      4113
      4105      4108      4111      4114      4106      4105      4108      4109
      4106      4105      4108      4110      4106      4105      4108      4111
      4107      4105      4108      4109      4107      4105      4108      4110
      4107      4105      4108      4111      4108      4111      4114      4115
      4108      4111      4114      4116      4108      4111      4114      4117
      4109      4108      4111      4112      4109      4108      4111      4113
      4109      4108      4111      4114      4110      4108      4111      4112
      4110      4108      4111      4113      4110      4108      4111      4114
      4111      4114      4117      4118      4111      4114      4117      4119
      4111      4114      4117      4120      4112      4111      4114      4115
      4112      4111      4114      4116      4112      4111      4114      4117
      4113      4111      4114      4115      4113      4111      4114      4116
      4113      4111      4114      4117      4114      4117      4120      4121
      4114      4117      4120      4122      4114      4117      4120      4123
      4115      4114      4117      4118      4115      4114      4117      4119
      4115      4114      4117      4120      4116      4114      4117      4118
      4116      4114      4117      4119      4116      4114      4117      4120
      4118      4117      4120      4121      4118      4117      4120      4122
      4118      4117      4120      4123      4119      4117      4120      4121
      4119      4117      4120      4122      4119      4117      4120      4123
      4124      4137      4140      4141      4124      4137      4140      4142
      4124      4137      4140      4147      4125      4124      4129      4130
      4125      4124      4129      4131      4125      4124      4129      4132
      4125      4124      4133      4134      4125      4124      4133      4135
      4125      4124      4133      4136      4125      4124      4137      4138
      4125      4124      4137      4139      4125      4124      4137      4140
      4126      4125      4124      4129      4126      4125      4124      4133
      4126      4125      4124      4137      4127      4125      4124      4129
      4127      4125      4124      4133      4127      4125      4124      4137
      4128      4125      4124      4129      4128      4125      4124      4133
      4128      4125      4124      4137      4129      4124      4133      4134
      4129      4124      4133      4135      4129      4124      4133      4136
      4129      4124      4137      4138      4129      4124      4137      4139
      4129      4124      4137      4140      4130      4129      4124      4133
      4130      4129      4124      4137      4131      4129      4124      4133
      4131      4129      4124      4137      4132      4129      4124      4133
      4132      4129      4124      4137      4133      4124      4137      4138
      4133      4124      4137      4139      4133      4124      4137      4140
      4134      4133      4124      4137      4135      4133      4124      4137
      4136      4133      4124      4137      4137      4140      4147      4143
      4138      4137      4140      4141      4138      4137      4140      4142
      4138      4137      4140      4147      4139      4137      4140      4141
      4139      4137      4140      4142      4139      4137      4140      4147
      4140      4147      4143      4144      4140      4147      4143      4145
      4140      4147      4143      4146      4141      4140      4147      4143
      4142      4140      4147      4143      4143      4146      4148      4149
      4143      4146      4148      4150      4143      4146      4148      4153
      4144      4143      4146      4148      4145      4143      4146      4148
      4146      4148      4153      4151      4146      4148      4153      4154
      4146      4148      4153      4155      4147      4143      4146      4148
      4148      4153      4151      4152      4148      4153      4151      4203
      4148      4153      4155      4156      4148      4153      4155      4157
      4148      4153      4155      4159      4149      4148      4153      4151
      4149      4148      4153      4154      4149      4148      4153      4155
      4150      4148      4153      4151      4150      4148      4153      4154
      4150      4148      4153      4155      4151      4153      4155      4156
      4151      4153      4155      4157      4151      4153      4155      4159
      4151      4203      4205      4206      4151      4203      4205      4207
      4151      4203      4205      4208      4152      4151      4153      4154
      4152      4151      4153      4155      4152      4151      4203      4204
      4152      4151      4203      4205      4153      4151      4203      4204
      4153      4151      4203      4205      4153      4155      4157      4158
      4153      4155      4159      4160      4153      4155      4159      4161
      4154      4153      4151      4203      4154      4153      4155      4156
      4154      4153      4155      4157      4154      4153      4155      4159
      4155      4153      4151      4203      4155      4159      4161      4162
      4155      4159      4161      4163      4156      4155      4157      4158
      4156      4155      4159      4160      4156      4155      4159      4161
      4157      4155      4159      4160      4157      4155      4159      4161
      4158      4157      4155      4159      4159      4161      4163      4164
      4159      4161      4163      4165      4159      4161      4163      4166
      4160      4159      4161      4162      4160      4159      4161      4163
      4161      4163      4166      4167      4161      4163      4166      4168
      4161      4163      4166      4169      4162      4161      4163      4164
      4162      4161      4163      4165      4162      4161      4163      4166
      4163      4166      4169      4170      4163      4166      4169      4171
      4163      4166      4169      4172      4164      4163      4166      4167
      4164      4163      4166      4168      4164      4163      4166      4169
      4165      4163      4166      4167      4165      4163      4166      4168
      4165      4163      4166      4169      4166      4169      4172      4173
      4166      4169      4172      4174      4166      4169      4172      4175
      4167      4166      4169      4170      4167      4166      4169      4171
      4167      4166      4169      4172      4168      4166      4169      4170
      4168      4166      4169      4171      4168      4166      4169      4172
      4169      4172      4175      4176      4169      4172      4175      4177
      4169      4172      4175      4178      4170      4169      4172      4173
      4170      4169      4172      4174      4170      4169      4172      4175
      4171      4169      4172      4173      4171      4169      4172      4174
      4171      4169      4172      4175      4172      4175      4178      4179
      4172      4175      4178      4180      4172      4175      4178      4181
      4173      4172      4175      4176      4173      4172      4175      4177
      4173      4172      4175      4178      4174      4172      4175      4176
      4174      4172      4175      4177      4174      4172      4175      4178
      4175      4178      4181      4182      4175      4178      4181      4183
      4175      4178      4181      4184      4176      4175      4178      4179
      4176      4175      4178      4180      4176      4175      4178      4181
      4177      4175      4178      4179      4177      4175      4178      4180
      4177      4175      4178      4181      4178      4181      4184      4185
      4178      4181      4184      4186      4178      4181      4184      4187
      4179      4178      4181      4182      4179      4178      4181      4183
      4179      4178      4181      4184      4180      4178      4181      4182
      4180      4178      4181      4183      4180      4178      4181      4184
      4181      4184      4187      4188      4181      4184      4187      4189
      4181      4184      4187      4190      4182      4181      4184      4185
      4182      4181      4184      4186      4182      4181      4184      4187
      4183      4181      4184      4185      4183      4181      4184      4186
      4183      4181      4184      4187      4184      4187      4190      4191
      4184      4187      4190      4192      4184      4187      4190      4193
      4185      4184      4187      4188      4185      4184      4187      4189
      4185      4184      4187      4190      4186      4184      4187      4188
      4186      4184      4187      4189      4186      4184      4187      4190
      4187      4190      4193      4194      4187      4190      4193      4195
      4187      4190      4193      4196      4188      4187      4190      4191
      4188      4187      4190      4192      4188      4187      4190      4193
      4189      4187      4190      4191      4189      4187      4190      4192
      4189      4187      4190      4193      4190      4193      4196      4197
      4190      4193      4196      4198      4190      4193      4196      4199
      4191      4190      4193      4194      4191      4190      4193      4195
      4191      4190      4193      4196      4192      4190      4193      4194
      4192      4190      4193      4195      4192      4190      4193      4196
      4193      4196      4199      4200      4193      4196      4199      4201
      4193      4196      4199      4202      4194      4193      4196      4197
      4194      4193      4196      4198      4194      4193      4196      4199
      4195      4193      4196      4197      4195      4193      4196      4198
      4195      4193      4196      4199      4197      4196      4199      4200
      4197      4196      4199      4201      4197      4196      4199      4202
      4198      4196      4199      4200      4198      4196      4199      4201
      4198      4196      4199      4202      4203      4205      4208      4209
      4203      4205      4208      4210      4203      4205      4208      4211
      4204      4203      4205      4206      4204      4203      4205      4207
      4204      4203      4205      4208      4205      4208      4211      4212
      4205      4208      4211      4213      4205      4208      4211      4214
      4206      4205      4208      4209      4206      4205      4208      4210
      4206      4205      4208      4211      4207      4205      4208      4209
      4207      4205      4208      4210      4207      4205      4208      4211
      4208      4211      4214      4215      4208      4211      4214      4216
      4208      4211      4214      4217      4209      4208      4211      4212
      4209      4208      4211      4213      4209      4208      4211      4214
      4210      4208      4211      4212      4210      4208      4211      4213
      4210      4208      4211      4214      4211      4214      4217      4218
      4211      4214      4217      4219      4211      4214      4217      4220
      4212      4211      4214      4215      4212      4211      4214      4216
      4212      4211      4214      4217      4213      4211      4214      4215
      4213      4211      4214      4216      4213      4211      4214      4217
      4214      4217      4220      4221      4214      4217      4220      4222
      4214      4217      4220      4223      4215      4214      4217      4218
      4215      4214      4217      4219      4215      4214      4217      4220
      4216      4214      4217      4218      4216      4214      4217      4219
      4216      4214      4217      4220      4217      4220      4223      4224
      4217      4220      4223      4225      4217      4220      4223      4226
      4218      4217      4220      4221      4218      4217      4220      4222
      4218      4217      4220      4223      4219      4217      4220      4221
      4219      4217      4220      4222      4219      4217      4220      4223
      4220      4223      4226      4227      4220      4223      4226      4228
      4220      4223      4226      4229      4221      4220      4223      4224
      4221      4220      4223      4225      4221      4220      4223      4226
      4222      4220      4223      4224      4222      4220      4223      4225
      4222      4220      4223      4226      4223      4226      4229      4230
      4223      4226      4229      4231      4223      4226      4229      4232
      4224      4223      4226      4227      4224      4223      4226      4228
      4224      4223      4226      4229      4225      4223      4226      4227
      4225      4223      4226      4228      4225      4223      4226      4229
      4226      4229      4232      4233      4226      4229      4232      4234
      4226      4229      4232      4235      4227      4226      4229      4230
      4227      4226      4229      4231      4227      4226      4229      4232
      4228      4226      4229      4230      4228      4226      4229      4231
      4228      4226      4229      4232      4229      4232      4235      4236
      4229      4232      4235      4237      4229      4232      4235      4238
      4230      4229      4232      4233      4230      4229      4232      4234
      4230      4229      4232      4235      4231      4229      4232      4233
      4231      4229      4232      4234      4231      4229      4232      4235
      4232      4235      4238      4239      4232      4235      4238      4240
      4232      4235      4238      4241      4233      4232      4235      4236
      4233      4232      4235      4237      4233      4232      4235      4238
      4234      4232      4235      4236      4234      4232      4235      4237
      4234      4232      4235      4238      4235      4238      4241      4242
      4235      4238      4241      4243      4235      4238      4241      4244
      4236      4235      4238      4239      4236      4235      4238      4240
      4236      4235      4238      4241      4237      4235      4238      4239
      4237      4235      4238      4240      4237      4235      4238      4241
      4238      4241      4244      4245      4238      4241      4244      4246
      4238      4241      4244      4247      4239      4238      4241      4242
      4239      4238      4241      4243      4239      4238      4241      4244
      4240      4238      4241      4242      4240      4238      4241      4243
      4240      4238      4241      4244      4241      4244      4247      4248
      4241      4244      4247      4249      4241      4244      4247      4250
      4242      4241      4244      4245      4242      4241      4244      4246
      4242      4241      4244      4247      4243      4241      4244      4245
      4243      4241      4244      4246      4243      4241      4244      4247
      4245      4244      4247      4248      4245      4244      4247      4249
      4245      4244      4247      4250      4246      4244      4247      4248
      4246      4244      4247      4249      4246      4244      4247      4250
      4251      4255      4258      4259      4251      4255      4258      4260
      4251      4255      4258      4265      4252      4251      4255      4256
      4252      4251      4255      4257      4252      4251      4255      4258
      4253      4251      4255      4256      4253      4251      4255      4257
      4253      4251      4255      4258      4254      4251      4255      4256
      4254      4251      4255      4257      4254      4251      4255      4258
      4255      4258      4265      4261      4256      4255      4258      4259
      4256      4255      4258      4260      4256      4255      4258      4265
      4257      4255      4258      4259      4257      4255      4258      4260
      4257      4255      4258      4265      4258      4265      4261      4262
      4258      4265      4261      4263      4258      4265      4261      4264
      4259      4258      4265      4261      4260      4258      4265      4261
      4261      4264      4266      4267      4261      4264      4266      4268
      4261      4264      4266      4269      4262      4261      4264      4266
      4263      4261      4264      4266      4264      4266      4269      4270
      4264      4266      4269      4271      4264      4266      4269      4277
      4265      4261      4264      4266      4266      4269      4271      4272
      4266      4269      4277      4278      4266      4269      4277      4279
      4266      4269      4277      4280      4267      4266      4269      4270
      4267      4266      4269      4271      4267      4266      4269      4277
      4268      4266      4269      4270      4268      4266      4269      4271
      4268      4266      4269      4277      4269      4271      4272      4273
      4269      4271      4272      4274      4269      4277      4280      4281
      4270      4269      4271      4272      4270      4269      4277      4278
      4270      4269      4277      4279      4270      4269      4277      4280
      4271      4269      4277      4278      4271      4269      4277      4279
      4271      4269      4277      4280      4271      4272      4274      4275
      4271      4272      4274      4276      4271      4272      4274      4286
      4272      4271      4269      4277      4272      4274      4286      4287
      4272      4274      4286      4288      4272      4274      4286      4289
      4273      4272      4274      4275      4273      4272      4274      4276
      4273      4272      4274      4286      4274      4286      4289      4290
      4274      4286      4289      4291      4274      4286      4289      4292
      4275      4274      4286      4287      4275      4274      4286      4288
      4275      4274      4286      4289      4276      4274      4286      4287
      4276      4274      4286      4288      4276      4274      4286      4289
      4277      4280      4281      4282      4277      4280      4281      4283
      4278      4277      4280      4281      4279      4277      4280      4281
      4280      4281      4283      4284      4280      4281      4283      4285
      4280      4281      4283      4333      4281      4283      4333      4334
      4281      4283      4333      4335      4281      4283      4333      4336
      4282      4281      4283      4284      4282      4281      4283      4285
      4282      4281      4283      4333      4283      4333      4336      4337
      4283      4333      4336      4338      4283      4333      4336      4339
      4284      4283      4333      4334      4284      4283      4333      4335
      4284      4283      4333      4336      4285      4283      4333      4334
      4285      4283      4333      4335      4285      4283      4333      4336
      4286      4289      4292      4293      4286      4289      4292      4294
      4286      4289      4292      4295      4287      4286      4289      4290
      4287      4286      4289      4291      4287      4286      4289      4292
      4288      4286      4289      4290      4288      4286      4289      4291
      4288      4286      4289      4292      4289      4292      4295      4296
      4289      4292      4295      4297      4289      4292      4295      4298
      4290      4289      4292      4293      4290      4289      4292      4294
      4290      4289      4292      4295      4291      4289      4292      4293
      4291      4289      4292      4294      4291      4289      4292      4295
      4292      4295      4298      4299      4292      4295      4298      4300
      4292      4295      4298      4301      4293      4292      4295      4296
      4293      4292      4295      4297      4293      4292      4295      4298
      4294      4292      4295      4296      4294      4292      4295      4297
      4294      4292      4295      4298      4295      4298      4301      4302
      4295      4298      4301      4303      4295      4298      4301      4304
      4296      4295      4298      4299      4296      4295      4298      4300
      4296      4295      4298      4301      4297      4295      4298      4299
      4297      4295      4298      4300      4297      4295      4298      4301
      4298      4301      4304      4305      4298      4301      4304      4306
      4299      4298      4301      4302      4299      4298      4301      4303
      4299      4298      4301      4304      4300      4298      4301      4302
      4300      4298      4301      4303      4300      4298      4301      4304
      4301      4304      4306      4307      4301      4304      4306      4308
      4302      4301      4304      4305      4302      4301      4304      4306
      4303      4301      4304      4305      4303      4301      4304      4306
      4304      4306      4308      4309      4304      4306      4308      4310
      4304      4306      4308      4311      4305      4304      4306      4307
      4305      4304      4306      4308      4306      4308      4311      4312
      4306      4308      4311      4313      4306      4308      4311      4314
      4307      4306      4308      4309      4307      4306      4308      4310
      4307      4306      4308      4311      4308      4311      4314      4315
      4308      4311      4314      4316      4308      4311      4314      4317
      4309      4308      4311      4312      4309      4308      4311      4313
      4309      4308      4311      4314      4310      4308      4311      4312
      4310      4308      4311      4313      4310      4308      4311      4314
      4311      4314      4317      4318      4311      4314      4317      4319
      4311      4314      4317      4320      4312      4311      4314      4315
      4312      4311      4314      4316      4312      4311      4314      4317
      4313      4311      4314      4315      4313      4311      4314      4316
      4313      4311      4314      4317      4314      4317      4320      4321
      4314      4317      4320      4322      4314      4317      4320      4323
      4315      4314      4317      4318      4315      4314      4317      4319
      4315      4314      4317      4320      4316      4314      4317      4318
      4316      4314      4317      4319      4316      4314      4317      4320
      4317      4320      4323      4324      4317      4320      4323      4325
      4317      4320      4323      4326      4318      4317      4320      4321
      4318      4317      4320      4322      4318      4317      4320      4323
      4319      4317      4320      4321      4319      4317      4320      4322
      4319      4317      4320      4323      4320      4323      4326      4327
      4320      4323      4326      4328      4320      4323      4326      4329
      4321      4320      4323      4324      4321      4320      4323      4325
      4321      4320      4323      4326      4322      4320      4323      4324
      4322      4320      4323      4325      4322      4320      4323      4326
      4323      4326      4329      4330      4323      4326      4329      4331
      4323      4326      4329      4332      4324      4323      4326      4327
      4324      4323      4326      4328      4324      4323      4326      4329
      4325      4323      4326      4327      4325      4323      4326      4328
      4325      4323      4326      4329      4327      4326      4329      4330
      4327      4326      4329      4331      4327      4326      4329      4332
      4328      4326      4329      4330      4328      4326      4329      4331
      4328      4326      4329      4332      4333      4336      4339      4340
      4333      4336      4339      4341      4333      4336      4339      4342
      4334      4333      4336      4337      4334      4333      4336      4338
      4334      4333      4336      4339      4335      4333      4336      4337
      4335      4333      4336      4338      4335      4333      4336      4339
      4336      4339      4342      4343      4336      4339      4342      4344
      4336      4339      4342      4345      4337      4336      4339      4340
      4337      4336      4339      4341      4337      4336      4339      4342
      4338      4336      4339      4340      4338      4336      4339      4341
      4338      4336      4339      4342      4339      4342      4345      4346
      4339      4342      4345      4347      4339      4342      4345      4348
      4340      4339      4342      4343      4340      4339      4342      4344
      4340      4339      4342      4345      4341      4339      4342      4343
      4341      4339      4342      4344      4341      4339      4342      4345
      4342      4345      4348      4349      4342      4345      4348      4350
      4342      4345      4348      4351      4343      4342      4345      4346
      4343      4342      4345      4347      4343      4342      4345      4348
      4344      4342      4345      4346      4344      4342      4345      4347
      4344      4342      4345      4348      4345      4348      4351      4352
      4345      4348      4351      4353      4345      4348      4351      4354
      4346      4345      4348      4349      4346      4345      4348      4350
      4346      4345      4348      4351      4347      4345      4348      4349
      4347      4345      4348      4350      4347      4345      4348      4351
      4348      4351      4354      4355      4348      4351      4354      4356
      4348      4351      4354      4357      4349      4348      4351      4352
      4349      4348      4351      4353      4349      4348      4351      4354
      4350      4348      4351      4352      4350      4348      4351      4353
      4350      4348      4351      4354      4351      4354      4357      4358
      4351      4354      4357      4359      4351      4354      4357      4360
      4352      4351      4354      4355      4352      4351      4354      4356
      4352      4351      4354      4357      4353      4351      4354      4355
      4353      4351      4354      4356      4353      4351      4354      4357
      4354      4357      4360      4361      4354      4357      4360      4362
      4354      4357      4360      4363      4355      4354      4357      4358
      4355      4354      4357      4359      4355      4354      4357      4360
      4356      4354      4357      4358      4356      4354      4357      4359
      4356      4354      4357      4360      4357      4360      4363      4364
      4357      4360      4363      4365      4357      4360      4363      4366
      4358      4357      4360      4361      4358      4357      4360      4362
      4358      4357      4360      4363      4359      4357      4360      4361
      4359      4357      4360      4362      4359      4357      4360      4363
      4360      4363      4366      4367      4360      4363      4366      4368
      4360      4363      4366      4369      4361      4360      4363      4364
      4361      4360      4363      4365      4361      4360      4363      4366
      4362      4360      4363      4364      4362      4360      4363      4365
      4362      4360      4363      4366      4363      4366      4369      4370
      4363      4366      4369      4371      4363      4366      4369      4372
      4364      4363      4366      4367      4364      4363      4366      4368
      4364      4363      4366      4369      4365      4363      4366      4367
      4365      4363      4366      4368      4365      4363      4366      4369
      4366      4369      4372      4373      4366      4369      4372      4374
      4366      4369      4372      4375      4367      4366      4369      4370
      4367      4366      4369      4371      4367      4366      4369      4372
      4368      4366      4369      4370      4368      4366      4369      4371
      4368      4366      4369      4372      4370      4369      4372      4373
      4370      4369      4372      4374      4370      4369      4372      4375
      4371      4369      4372      4373      4371      4369      4372      4374
      4371      4369      4372      4375      4376      4377      4392      4393
      4376      4377      4392      4394      4376      4377      4392      4398
      4377      4376      4380      4381      4377      4376      4380      4382
      4377      4376      4380      4383      4377      4376      4384      4385
      4377      4376      4384      4386      4377      4376      4384      4387
      4377      4376      4388      4389      4377      4376      4388      4390
      4377      4376      4388      4391      4377      4392      4398      4395
      4378      4377      4376      4380      4378      4377      4376      4384
      4378      4377      4376      4388      4378      4377      4392      4393
      4378      4377      4392      4394      4378      4377      4392      4398
      4379      4377      4376      4380      4379      4377      4376      4384
      4379      4377      4376      4388      4379      4377      4392      4393
      4379      4377      4392      4394      4379      4377      4392      4398
      4380      4376      4377      4392      4380      4376      4384      4385
      4380      4376      4384      4386      4380      4376      4384      4387
      4380      4376      4388      4389      4380      4376      4388      4390
      4380      4376      4388      4391      4381      4380      4376      4384
      4381      4380      4376      4388      4382      4380      4376      4384
      4382      4380      4376      4388      4383      4380      4376      4384
      4383      4380      4376      4388      4384      4376      4377      4392
      4384      4376      4388      4389      4384      4376      4388      4390
      4384      4376      4388      4391      4385      4384      4376      4388
      4386      4384      4376      4388      4387      4384      4376      4388
      4388      4376      4377      4392      4392      4398      4395      4396
      4392      4398      4395      4397      4392      4398      4395      4399
      4393      4392      4398      4395      4394      4392      4398      4395
      4395      4399      4400      4401      4395      4399      4400      4402
      4395      4399      4400      4403      4396      4395      4399      4400
      4397      4395      4399      4400      4398      4395      4399      4400
      4399      4400      4403      4404      4399      4400      4403      4405
      4399      4400      4403      4411      4400      4403      4405      4406
      4400      4403      4411      4412      4400      4403      4411      4413
      4400      4403      4411      4414      4401      4400      4403      4404
      4401      4400      4403      4405      4401      4400      4403      4411
      4402      4400      4403      4404      4402      4400      4403      4405
      4402      4400      4403      4411      4403      4405      4406      4407
      4403      4405      4406      4408      4403      4411      4414      4415
      4404      4403      4405      4406      4404      4403      4411      4412
      4404      4403      4411      4413      4404      4403      4411      4414
      4405      4403      4411      4412      4405      4403      4411      4413
      4405      4403      4411      4414      4405      4406      4408      4409
      4405      4406      4408      4410      4405      4406      4408      4420
      4406      4405      4403      4411      4406      4408      4420      4421
      4406      4408      4420      4422      4406      4408      4420      4423
      4407      4406      4408      4409      4407      4406      4408      4410
      4407      4406      4408      4420      4408      4420      4423      4424
      4408      4420      4423      4425      4408      4420      4423      4426
      4409      4408      4420      4421      4409      4408      4420      4422
      4409      4408      4420      4423      4410      4408      4420      4421
      4410      4408      4420      4422      4410      4408      4420      4423
      4411      4414      4415      4416      4411      4414      4415      4417
      4412      4411      4414      4415      4413      4411      4414      4415
      4414      4415      4417      4418      4414      4415      4417      4419
      4414      4415      4417      4467      4415      4417      4467      4468
      4415      4417      4467      4469      4415      4417      4467      4470
      4416      4415      4417      4418      4416      4415      4417      4419
      4416      4415      4417      4467      4417      4467      4470      4471
      4417      4467      4470      4472      4417      4467      4470      4473
      4418      4417      4467      4468      4418      4417      4467      4469
      4418      4417      4467      4470      4419      4417      4467      4468
      4419      4417      4467      4469      4419      4417      4467      4470
      4420      4423      4426      4427      4420      4423      4426      4428
      4420      4423      4426      4429      4421      4420      4423      4424
      4421      4420      4423      4425      4421      4420      4423      4426
      4422      4420      4423      4424      4422      4420      4423      4425
      4422      4420      4423      4426      4423      4426      4429      4430
      4423      4426      4429      4431      4423      4426      4429      4432
      4424      4423      4426      4427      4424      4423      4426      4428
      4424      4423      4426      4429      4425      4423      4426      4427
      4425      4423      4426      4428      4425      4423      4426      4429
      4426      4429      4432      4433      4426      4429      4432      4434
      4426      4429      4432      4435      4427      4426      4429      4430
      4427      4426      4429      4431      4427      4426      4429      4432
      4428      4426      4429      4430      4428      4426      4429      4431
      4428      4426      4429      4432      4429      4432      4435      4436
      4429      4432      4435      4437      4429      4432      4435      4438
      4430      4429      4432      4433      4430      4429      4432      4434
      4430      4429      4432      4435      4431      4429      4432      4433
      4431      4429      4432      4434      4431      4429      4432      4435
      4432      4435      4438      4439      4432      4435      4438      4440
      4433      4432      4435      4436      4433      4432      4435      4437
      4433      4432      4435      4438      4434      4432      4435      4436
      4434      4432      4435      4437      4434      4432      4435      4438
      4435      4438      4440      4441      4435      4438      4440      4442
      4436      4435      4438      4439      4436      4435      4438      4440
      4437      4435      4438      4439      4437      4435      4438      4440
      4438      4440      4442      4443      4438      4440      4442      4444
      4438      4440      4442      4445      4439      4438      4440      4441
      4439      4438      4440      4442      4440      4442      4445      4446
      4440      4442      4445      4447      4440      4442      4445      4448
      4441      4440      4442      4443      4441      4440      4442      4444
      4441      4440      4442      4445      4442      4445      4448      4449
      4442      4445      4448      4450      4442      4445      4448      4451
      4443      4442      4445      4446      4443      4442      4445      4447
      4443      4442      4445      4448      4444      4442      4445      4446
      4444      4442      4445      4447      4444      4442      4445      4448
      4445      4448      4451      4452      4445      4448      4451      4453
      4445      4448      4451      4454      4446      4445      4448      4449
      4446      4445      4448      4450      4446      4445      4448      4451
      4447      4445      4448      4449      4447      4445      4448      4450
      4447      4445      4448      4451      4448      4451      4454      4455
      4448      4451      4454      4456      4448      4451      4454      4457
      4449      4448      4451      4452      4449      4448      4451      4453
      4449      4448      4451      4454      4450      4448      4451      4452
      4450      4448      4451      4453      4450      4448      4451      4454
      4451      4454      4457      4458      4451      4454      4457      4459
      4451      4454      4457      4460      4452      4451      4454      4455
      4452      4451      4454      4456      4452      4451      4454      4457
      4453      4451      4454      4455      4453      4451      4454      4456
      4453      4451      4454      4457      4454      4457      4460      4461
      4454      4457      4460      4462      4454      4457      4460      4463
      4455      4454      4457      4458      4455      4454      4457      4459
      4455      4454      4457      4460      4456      4454      4457      4458
      4456      4454      4457      4459      4456      4454      4457      4460
      4457      4460      4463      4464      4457      4460      4463      4465
      4457      4460      4463      4466      4458      4457      4460      4461
      4458      4457      4460      4462      4458      4457      4460      4463
      4459      4457      4460      4461      4459      4457      4460      4462
      4459      4457      4460      4463      4461      4460      4463      4464
      4461      4460      4463      4465      4461      4460      4463      4466
      4462      4460      4463      4464      4462      4460      4463      4465
      4462      4460      4463      4466      4467      4470      4473      4474
      4467      4470      4473      4475      4467      4470      4473      4476
      4468      4467      4470      4471      4468      4467      4470      4472
      4468      4467      4470      4473      4469      4467      4470      4471
      4469      4467      4470      4472      4469      4467      4470      4473
      4470      4473      4476      4477      4470      4473      4476      4478
      4470      4473      4476      4479      4471      4470      4473      4474
      4471      4470      4473      4475      4471      4470      4473      4476
      4472      4470      4473      4474      4472      4470      4473      4475
      4472      4470      4473      4476      4473      4476      4479      4480
      4473      4476      4479      4481      4473      4476      4479      4482
      4474      4473      4476      4477      4474      4473      4476      4478
      4474      4473      4476      4479      4475      4473      4476      4477
      4475      4473      4476      4478      4475      4473      4476      4479
      4476      4479      4482      4483      4476      4479      4482      4484
      4476      4479      4482      4485      4477      4476      4479      4480
      4477      4476      4479      4481      4477      4476      4479      4482
      4478      4476      4479      4480      4478      4476      4479      4481
      4478      4476      4479      4482      4479      4482      4485      4486
      4479      4482      4485      4487      4479      4482      4485      4488
      4480      4479      4482      4483      4480      4479      4482      4484
      4480      4479      4482      4485      4481      4479      4482      4483
      4481      4479      4482      4484      4481      4479      4482      4485
      4482      4485      4488      4489      4482      4485      4488      4490
      4482      4485      4488      4491      4483      4482      4485      4486
      4483      4482      4485      4487      4483      4482      4485      4488
      4484      4482      4485      4486      4484      4482      4485      4487
      4484      4482      4485      4488      4485      4488      4491      4492
      4485      4488      4491      4493      4485      4488      4491      4494
      4486      4485      4488      4489      4486      4485      4488      4490
      4486      4485      4488      4491      4487      4485      4488      4489
      4487      4485      4488      4490      4487      4485      4488      4491
      4488      4491      4494      4495      4488      4491      4494      4496
      4488      4491      4494      4497      4489      4488      4491      4492
      4489      4488      4491      4493      4489      4488      4491      4494
      4490      4488      4491      4492      4490      4488      4491      4493
      4490      4488      4491      4494      4491      4494      4497      4498
      4491      4494      4497      4499      4491      4494      4497      4500
      4492      4491      4494      4495      4492      4491      4494      4496
      4492      4491      4494      4497      4493      4491      4494      4495
      4493      4491      4494      4496      4493      4491      4494      4497
      4494      4497      4500      4501      4494      4497      4500      4502
      4494      4497      4500      4503      4495      4494      4497      4498
      4495      4494      4497      4499      4495      4494      4497      4500
      4496      4494      4497      4498      4496      4494      4497      4499
      4496      4494      4497      4500      4497      4500      4503      4504
      4497      4500      4503      4505      4497      4500      4503      4506
      4498      4497      4500      4501      4498      4497      4500      4502
      4498      4497      4500      4503      4499      4497      4500      4501
      4499      4497      4500      4502      4499      4497      4500      4503
      4500      4503      4506      4507      4500      4503      4506      4508
      4500      4503      4506      4509      4501      4500      4503      4504
      4501      4500      4503      4505      4501      4500      4503      4506
      4502      4500      4503      4504      4502      4500      4503      4505
      4502      4500      4503      4506      4504      4503      4506      4507
      4504      4503      4506      4508      4504      4503      4506      4509
      4505      4503      4506      4507      4505      4503      4506      4508
      4505      4503      4506      4509      4510      4511      4526      4527
      4510      4511      4526      4528      4510      4511      4526      4532
      4511      4510      4514      4515      4511      4510      4514      4516
      4511      4510      4514      4517      4511      4510      4518      4519
      4511      4510      4518      4520      4511      4510      4518      4521
      4511      4510      4522      4523      4511      4510      4522      4524
      4511      4510      4522      4525      4511      4526      4532      4529
      4512      4511      4510      4514      4512      4511      4510      4518
      4512      4511      4510      4522      4512      4511      4526      4527
      4512      4511      4526      4528      4512      4511      4526      4532
      4513      4511      4510      4514      4513      4511      4510      4518
      4513      4511      4510      4522      4513      4511      4526      4527
      4513      4511      4526      4528      4513      4511      4526      4532
      4514      4510      4511      4526      4514      4510      4518      4519
      4514      4510      4518      4520      4514      4510      4518      4521
      4514      4510      4522      4523      4514      4510      4522      4524
      4514      4510      4522      4525      4515      4514      4510      4518
      4515      4514      4510      4522      4516      4514      4510      4518
      4516      4514      4510      4522      4517      4514      4510      4518
      4517      4514      4510      4522      4518      4510      4511      4526
      4518      4510      4522      4523      4518      4510      4522      4524
      4518      4510      4522      4525      4519      4518      4510      4522
      4520      4518      4510      4522      4521      4518      4510      4522
      4522      4510      4511      4526      4526      4532      4529      4530
      4526      4532      4529      4531      4526      4532      4529      4533
      4527      4526      4532      4529      4528      4526      4532      4529
      4529      4533      4534      4535      4529      4533      4534      4536
      4529      4533      4534      4537      4530      4529      4533      4534
      4531      4529      4533      4534      4532      4529      4533      4534
      4533      4534      4537      4538      4533      4534      4537      4539
      4533      4534      4537      4545      4534      4537      4539      4540
      4534      4537      4545      4546      4534      4537      4545      4547
      4534      4537      4545      4548      4535      4534      4537      4538
      4535      4534      4537      4539      4535      4534      4537      4545
      4536      4534      4537      4538      4536      4534      4537      4539
      4536      4534      4537      4545      4537      4539      4540      4541
      4537      4539      4540      4542      4537      4545      4548      4549
      4538      4537      4539      4540      4538      4537      4545      4546
      4538      4537      4545      4547      4538      4537      4545      4548
      4539      4537      4545      4546      4539      4537      4545      4547
      4539      4537      4545      4548      4539      4540      4542      4543
      4539      4540      4542      4544      4539      4540      4542      4554
      4540      4539      4537      4545      4540      4542      4554      4555
      4540      4542      4554      4556      4540      4542      4554      4557
      4541      4540      4542      4543      4541      4540      4542      4544
      4541      4540      4542      4554      4542      4554      4557      4558
      4542      4554      4557      4559      4542      4554      4557      4560
      4543      4542      4554      4555      4543      4542      4554      4556
      4543      4542      4554      4557      4544      4542      4554      4555
      4544      4542      4554      4556      4544      4542      4554      4557
      4545      4548      4549      4550      4545      4548      4549      4551
      4546      4545      4548      4549      4547      4545      4548      4549
      4548      4549      4551      4552      4548      4549      4551      4553
      4548      4549      4551      4601      4549      4551      4601      4602
      4549      4551      4601      4603      4549      4551      4601      4604
      4550      4549      4551      4552      4550      4549      4551      4553
      4550      4549      4551      4601      4551      4601      4604      4605
      4551      4601      4604      4606      4551      4601      4604      4607
      4552      4551      4601      4602      4552      4551      4601      4603
      4552      4551      4601      4604      4553      4551      4601      4602
      4553      4551      4601      4603      4553      4551      4601      4604
      4554      4557      4560      4561      4554      4557      4560      4562
      4554      4557      4560      4563      4555      4554      4557      4558
      4555      4554      4557      4559      4555      4554      4557      4560
      4556      4554      4557      4558      4556      4554      4557      4559
      4556      4554      4557      4560      4557      4560      4563      4564
      4557      4560      4563      4565      4557      4560      4563      4566
      4558      4557      4560      4561      4558      4557      4560      4562
      4558      4557      4560      4563      4559      4557      4560      4561
      4559      4557      4560      4562      4559      4557      4560      4563
      4560      4563      4566      4567      4560      4563      4566      4568
      4560      4563      4566      4569      4561      4560      4563      4564
      4561      4560      4563      4565      4561      4560      4563      4566
      4562      4560      4563      4564      4562      4560      4563      4565
      4562      4560      4563      4566      4563      4566      4569      4570
      4563      4566      4569      4571      4563      4566      4569      4572
      4564      4563      4566      4567      4564      4563      4566      4568
      4564      4563      4566      4569      4565      4563      4566      4567
      4565      4563      4566      4568      4565      4563      4566      4569
      4566      4569      4572      4573      4566      4569      4572      4574
      4567      4566      4569      4570      4567      4566      4569      4571
      4567      4566      4569      4572      4568      4566      4569      4570
      4568      4566      4569      4571      4568      4566      4569      4572
      4569      4572      4574      4575      4569      4572      4574      4576
      4570      4569      4572      4573      4570      4569      4572      4574
      4571      4569      4572      4573      4571      4569      4572      4574
      4572      4574      4576      4577      4572      4574      4576      4578
      4572      4574      4576      4579      4573      4572      4574      4575
      4573      4572      4574      4576      4574      4576      4579      4580
      4574      4576      4579      4581      4574      4576      4579      4582
      4575      4574      4576      4577      4575      4574      4576      4578
      4575      4574      4576      4579      4576      4579      4582      4583
      4576      4579      4582      4584      4576      4579      4582      4585
      4577      4576      4579      4580      4577      4576      4579      4581
      4577      4576      4579      4582      4578      4576      4579      4580
      4578      4576      4579      4581      4578      4576      4579      4582
      4579      4582      4585      4586      4579      4582      4585      4587
      4579      4582      4585      4588      4580      4579      4582      4583
      4580      4579      4582      4584      4580      4579      4582      4585
      4581      4579      4582      4583      4581      4579      4582      4584
      4581      4579      4582      4585      4582      4585      4588      4589
      4582      4585      4588      4590      4582      4585      4588      4591
      4583      4582      4585      4586      4583      4582      4585      4587
      4583      4582      4585      4588      4584      4582      4585      4586
      4584      4582      4585      4587      4584      4582      4585      4588
      4585      4588      4591      4592      4585      4588      4591      4593
      4585      4588      4591      4594      4586      4585      4588      4589
      4586      4585      4588      4590      4586      4585      4588      4591
      4587      4585      4588      4589      4587      4585      4588      4590
      4587      4585      4588      4591      4588      4591      4594      4595
      4588      4591      4594      4596      4588      4591      4594      4597
      4589      4588      4591      4592      4589      4588      4591      4593
      4589      4588      4591      4594      4590      4588      4591      4592
      4590      4588      4591      4593      4590      4588      4591      4594
      4591      4594      4597      4598      4591      4594      4597      4599
      4591      4594      4597      4600      4592      4591      4594      4595
      4592      4591      4594      4596      4592      4591      4594      4597
      4593      4591      4594      4595      4593      4591      4594      4596
      4593      4591      4594      4597      4595      4594      4597      4598
      4595      4594      4597      4599      4595      4594      4597      4600
      4596      4594      4597      4598      4596      4594      4597      4599
      4596      4594      4597      4600      4601      4604      4607      4608
      4601      4604      4607      4609      4601      4604      4607      4610
      4602      4601      4604      4605      4602      4601      4604      4606
      4602      4601      4604      4607      4603      4601      4604      4605
      4603      4601      4604      4606      4603      4601      4604      4607
      4604      4607      4610      4611      4604      4607      4610      4612
      4604      4607      4610      4613      4605      4604      4607      4608
      4605      4604      4607      4609      4605      4604      4607      4610
      4606      4604      4607      4608      4606      4604      4607      4609
      4606      4604      4607      4610      4607      4610      4613      4614
      4607      4610      4613      4615      4607      4610      4613      4616
      4608      4607      4610      4611      4608      4607      4610      4612
      4608      4607      4610      4613      4609      4607      4610      4611
      4609      4607      4610      4612      4609      4607      4610      4613
      4610      4613      4616      4617      4610      4613      4616      4618
      4610      4613      4616      4619      4611      4610      4613      4614
      4611      4610      4613      4615      4611      4610      4613      4616
      4612      4610      4613      4614      4612      4610      4613      4615
      4612      4610      4613      4616      4613      4616      4619      4620
      4613      4616      4619      4621      4613      4616      4619      4622
      4614      4613      4616      4617      4614      4613      4616      4618
      4614      4613      4616      4619      4615      4613      4616      4617
      4615      4613      4616      4618      4615      4613      4616      4619
      4616      4619      4622      4623      4616      4619      4622      4624
      4616      4619      4622      4625      4617      4616      4619      4620
      4617      4616      4619      4621      4617      4616      4619      4622
      4618      4616      4619      4620      4618      4616      4619      4621
      4618      4616      4619      4622      4619      4622      4625      4626
      4619      4622      4625      4627      4619      4622      4625      4628
      4620      4619      4622      4623      4620      4619      4622      4624
      4620      4619      4622      4625      4621      4619      4622      4623
      4621      4619      4622      4624      4621      4619      4622      4625
      4622      4625      4628      4629      4622      4625      4628      4630
      4622      4625      4628      4631      4623      4622      4625      4626
      4623      4622      4625      4627      4623      4622      4625      4628
      4624      4622      4625      4626      4624      4622      4625      4627
      4624      4622      4625      4628      4625      4628      4631      4632
      4625      4628      4631      4633      4625      4628      4631      4634
      4626      4625      4628      4629      4626      4625      4628      4630
      4626      4625      4628      4631      4627      4625      4628      4629
      4627      4625      4628      4630      4627      4625      4628      4631
      4628      4631      4634      4635      4628      4631      4634      4636
      4628      4631      4634      4637      4629      4628      4631      4632
      4629      4628      4631      4633      4629      4628      4631      4634
      4630      4628      4631      4632      4630      4628      4631      4633
      4630      4628      4631      4634      4631      4634      4637      4638
      4631      4634      4637      4639      4631      4634      4637      4640
      4632      4631      4634      4635      4632      4631      4634      4636
      4632      4631      4634      4637      4633      4631      4634      4635
      4633      4631      4634      4636      4633      4631      4634      4637
      4634      4637      4640      4641      4634      4637      4640      4642
      4634      4637      4640      4643      4635      4634      4637      4638
      4635      4634      4637      4639      4635      4634      4637      4640
      4636      4634      4637      4638      4636      4634      4637      4639
      4636      4634      4637      4640      4638      4637      4640      4641
      4638      4637      4640      4642      4638      4637      4640      4643
      4639      4637      4640      4641      4639      4637      4640      4642
      4639      4637      4640      4643      4644      4648      4651      4652
      4644      4648      4651      4653      4644      4648      4651      4658
      4645      4644      4648      4649      4645      4644      4648      4650
      4645      4644      4648      4651      4646      4644      4648      4649
      4646      4644      4648      4650      4646      4644      4648      4651
      4647      4644      4648      4649      4647      4644      4648      4650
      4647      4644      4648      4651      4648      4651      4658      4654
      4649      4648      4651      4652      4649      4648      4651      4653
      4649      4648      4651      4658      4650      4648      4651      4652
      4650      4648      4651      4653      4650      4648      4651      4658
      4651      4658      4654      4655      4651      4658      4654      4656
      4651      4658      4654      4657      4652      4651      4658      4654
      4653      4651      4658      4654      4654      4657      4659      4660
      4654      4657      4659      4661      4654      4657      4659      4662
      4655      4654      4657      4659      4656      4654      4657      4659
      4657      4659      4662      4663      4657      4659      4662      4664
      4657      4659      4662      4670      4658      4654      4657      4659
      4659      4662      4664      4665      4659      4662      4670      4671
      4659      4662      4670      4672      4659      4662      4670      4673
      4660      4659      4662      4663      4660      4659      4662      4664
      4660      4659      4662      4670      4661      4659      4662      4663
      4661      4659      4662      4664      4661      4659      4662      4670
      4662      4664      4665      4666      4662      4664      4665      4667
      4662      4670      4673      4674      4663      4662      4664      4665
      4663      4662      4670      4671      4663      4662      4670      4672
      4663      4662      4670      4673      4664      4662      4670      4671
      4664      4662      4670      4672      4664      4662      4670      4673
      4664      4665      4667      4668      4664      4665      4667      4669
      4664      4665      4667      4679      4665      4664      4662      4670
      4665      4667      4679      4680      4665      4667      4679      4681
      4665      4667      4679      4682      4666      4665      4667      4668
      4666      4665      4667      4669      4666      4665      4667      4679
      4667      4679      4682      4683      4667      4679      4682      4684
      4667      4679      4682      4685      4668      4667      4679      4680
      4668      4667      4679      4681      4668      4667      4679      4682
      4669      4667      4679      4680      4669      4667      4679      4681
      4669      4667      4679      4682      4670      4673      4674      4675
      4670      4673      4674      4676      4671      4670      4673      4674
      4672      4670      4673      4674      4673      4674      4676      4677
      4673      4674      4676      4678      4673      4674      4676      4726
      4674      4676      4726      4727      4674      4676      4726      4728
      4674      4676      4726      4729      4675      4674      4676      4677
      4675      4674      4676      4678      4675      4674      4676      4726
      4676      4726      4729      4730      4676      4726      4729      4731
      4676      4726      4729      4732      4677      4676      4726      4727
      4677      4676      4726      4728      4677      4676      4726      4729
      4678      4676      4726      4727      4678      4676      4726      4728
      4678      4676      4726      4729      4679      4682      4685      4686
      4679      4682      4685      4687      4679      4682      4685      4688
      4680      4679      4682      4683      4680      4679      4682      4684
      4680      4679      4682      4685      4681      4679      4682      4683
      4681      4679      4682      4684      4681      4679      4682      4685
      4682      4685      4688      4689      4682      4685      4688      4690
      4682      4685      4688      4691      4683      4682      4685      4686
      4683      4682      4685      4687      4683      4682      4685      4688
      4684      4682      4685      4686      4684      4682      4685      4687
      4684      4682      4685      4688      4685      4688      4691      4692
      4685      4688      4691      4693      4685      4688      4691      4694
      4686      4685      4688      4689      4686      4685      4688      4690
      4686      4685      4688      4691      4687      4685      4688      4689
      4687      4685      4688      4690      4687      4685      4688      4691
      4688      4691      4694      4695      4688      4691      4694      4696
      4688      4691      4694      4697      4689      4688      4691      4692
      4689      4688      4691      4693      4689      4688      4691      4694
      4690      4688      4691      4692      4690      4688      4691      4693
      4690      4688      4691      4694      4691      4694      4697      4698
      4691      4694      4697      4699      4692      4691      4694      4695
      4692      4691      4694      4696      4692      4691      4694      4697
      4693      4691      4694      4695      4693      4691      4694      4696
      4693      4691      4694      4697      4694      4697      4699      4700
      4694      4697      4699      4701      4695      4694      4697      4698
      4695      4694      4697      4699      4696      4694      4697      4698
      4696      4694      4697      4699      4697      4699      4701      4702
      4697      4699      4701      4703      4697      4699      4701      4704
      4698      4697      4699      4700      4698      4697      4699      4701
      4699      4701      4704      4705      4699      4701      4704      4706
      4699      4701      4704      4707      4700      4699      4701      4702
      4700      4699      4701      4703      4700      4699      4701      4704
      4701      4704      4707      4708      4701      4704      4707      4709
      4701      4704      4707      4710      4702      4701      4704      4705
      4702      4701      4704      4706      4702      4701      4704      4707
      4703      4701      4704      4705      4703      4701      4704      4706
      4703      4701      4704      4707      4704      4707      4710      4711
      4704      4707      4710      4712      4704      4707      4710      4713
      4705      4704      4707      4708      4705      4704      4707      4709
      4705      4704      4707      4710      4706      4704      4707      4708
      4706      4704      4707      4709      4706      4704      4707      4710
      4707      4710      4713      4714      4707      4710      4713      4715
      4707      4710      4713      4716      4708      4707      4710      4711
      4708      4707      4710      4712      4708      4707      4710      4713
      4709      4707      4710      4711      4709      4707      4710      4712
      4709      4707      4710      4713      4710      4713      4716      4717
      4710      4713      4716      4718      4710      4713      4716      4719
      4711      4710      4713      4714      4711      4710      4713      4715
      4711      4710      4713      4716      4712      4710      4713      4714
      4712      4710      4713      4715      4712      4710      4713      4716
      4713      4716      4719      4720      4713      4716      4719      4721
      4713      4716      4719      4722      4714      4713      4716      4717
      4714      4713      4716      4718      4714      4713      4716      4719
      4715      4713      4716      4717      4715      4713      4716      4718
      4715      4713      4716      4719      4716      4719      4722      4723
      4716      4719      4722      4724      4716      4719      4722      4725
      4717      4716      4719      4720      4717      4716      4719      4721
      4717      4716      4719      4722      4718      4716      4719      4720
      4718      4716      4719      4721      4718      4716      4719      4722
      4720      4719      4722      4723      4720      4719      4722      4724
      4720      4719      4722      4725      4721      4719      4722      4723
      4721      4719      4722      4724      4721      4719      4722      4725
      4726      4729      4732      4733      4726      4729      4732      4734
      4726      4729      4732      4735      4727      4726      4729      4730
      4727      4726      4729      4731      4727      4726      4729      4732
      4728      4726      4729      4730      4728      4726      4729      4731
      4728      4726      4729      4732      4729      4732      4735      4736
      4729      4732      4735      4737      4729      4732      4735      4738
      4730      4729      4732      4733      4730      4729      4732      4734
      4730      4729      4732      4735      4731      4729      4732      4733
      4731      4729      4732      4734      4731      4729      4732      4735
      4732      4735      4738      4739      4732      4735      4738      4740
      4732      4735      4738      4741      4733      4732      4735      4736
      4733      4732      4735      4737      4733      4732      4735      4738
      4734      4732      4735      4736      4734      4732      4735      4737
      4734      4732      4735      4738      4735      4738      4741      4742
      4735      4738      4741      4743      4735      4738      4741      4744
      4736      4735      4738      4739      4736      4735      4738      4740
      4736      4735      4738      4741      4737      4735      4738      4739
      4737      4735      4738      4740      4737      4735      4738      4741
      4738      4741      4744      4745      4738      4741      4744      4746
      4738      4741      4744      4747      4739      4738      4741      4742
      4739      4738      4741      4743      4739      4738      4741      4744
      4740      4738      4741      4742      4740      4738      4741      4743
      4740      4738      4741      4744      4741      4744      4747      4748
      4741      4744      4747      4749      4741      4744      4747      4750
      4742      4741      4744      4745      4742      4741      4744      4746
      4742      4741      4744      4747      4743      4741      4744      4745
      4743      4741      4744      4746      4743      4741      4744      4747
      4744      4747      4750      4751      4744      4747      4750      4752
      4744      4747      4750      4753      4745      4744      4747      4748
      4745      4744      4747      4749      4745      4744      4747      4750
      4746      4744      4747      4748      4746      4744      4747      4749
      4746      4744      4747      4750      4747      4750      4753      4754
      4747      4750      4753      4755      4747      4750      4753      4756
      4748      4747      4750      4751      4748      4747      4750      4752
      4748      4747      4750      4753      4749      4747      4750      4751
      4749      4747      4750      4752      4749      4747      4750      4753
      4750      4753      4756      4757      4750      4753      4756      4758
      4750      4753      4756      4759      4751      4750      4753      4754
      4751      4750      4753      4755      4751      4750      4753      4756
      4752      4750      4753      4754      4752      4750      4753      4755
      4752      4750      4753      4756      4753      4756      4759      4760
      4753      4756      4759      4761      4753      4756      4759      4762
      4754      4753      4756      4757      4754      4753      4756      4758
      4754      4753      4756      4759      4755      4753      4756      4757
      4755      4753      4756      4758      4755      4753      4756      4759
      4756      4759      4762      4763      4756      4759      4762      4764
      4756      4759      4762      4765      4757      4756      4759      4760
      4757      4756      4759      4761      4757      4756      4759      4762
      4758      4756      4759      4760      4758      4756      4759      4761
      4758      4756      4759      4762      4759      4762      4765      4766
      4759      4762      4765      4767      4759      4762      4765      4768
      4760      4759      4762      4763      4760      4759      4762      4764
      4760      4759      4762      4765      4761      4759      4762      4763
      4761      4759      4762      4764      4761      4759      4762      4765
      4763      4762      4765      4766      4763      4762      4765      4767
      4763      4762      4765      4768      4764      4762      4765      4766
      4764      4762      4765      4767      4764      4762      4765      4768
      4769      4770      4785      4786      4769      4770      4785      4787
      4769      4770      4785      4791      4770      4769      4773      4774
      4770      4769      4773      4775      4770      4769      4773      4776
      4770      4769      4777      4778      4770      4769      4777      4779
      4770      4769      4777      4780      4770      4769      4781      4782
      4770      4769      4781      4783      4770      4769      4781      4784
      4770      4785      4791      4788      4771      4770      4769      4773
      4771      4770      4769      4777      4771      4770      4769      4781
      4771      4770      4785      4786      4771      4770      4785      4787
      4771      4770      4785      4791      4772      4770      4769      4773
      4772      4770      4769      4777      4772      4770      4769      4781
      4772      4770      4785      4786      4772      4770      4785      4787
      4772      4770      4785      4791      4773      4769      4770      4785
      4773      4769      4777      4778      4773      4769      4777      4779
      4773      4769      4777      4780      4773      4769      4781      4782
      4773      4769      4781      4783      4773      4769      4781      4784
      4774      4773      4769      4777      4774      4773      4769      4781
      4775      4773      4769      4777      4775      4773      4769      4781
      4776      4773      4769      4777      4776      4773      4769      4781
      4777      4769      4770      4785      4777      4769      4781      4782
      4777      4769      4781      4783      4777      4769      4781      4784
      4778      4777      4769      4781      4779      4777      4769      4781
      4780      4777      4769      4781      4781      4769      4770      4785
      4785      4791      4788      4789      4785      4791      4788      4790
      4785      4791      4788      4792      4786      4785      4791      4788
      4787      4785      4791      4788      4788      4792      4793      4794
      4788      4792      4793      4795      4788      4792      4793      4796
      4789      4788      4792      4793      4790      4788      4792      4793
      4791      4788      4792      4793      4792      4793      4796      4797
      4792      4793      4796      4798      4792      4793      4796      4804
      4793      4796      4798      4799      4793      4796      4804      4805
      4793      4796      4804      4806      4793      4796      4804      4807
      4794      4793      4796      4797      4794      4793      4796      4798
      4794      4793      4796      4804      4795      4793      4796      4797
      4795      4793      4796      4798      4795      4793      4796      4804
      4796      4798      4799      4800      4796      4798      4799      4801
      4796      4804      4807      4808      4797      4796      4798      4799
      4797      4796      4804      4805      4797      4796      4804      4806
      4797      4796      4804      4807      4798      4796      4804      4805
      4798      4796      4804      4806      4798      4796      4804      4807
      4798      4799      4801      4802      4798      4799      4801      4803
      4798      4799      4801      4813      4799      4798      4796      4804
      4799      4801      4813      4814      4799      4801      4813      4815
      4799      4801      4813      4816      4800      4799      4801      4802
      4800      4799      4801      4803      4800      4799      4801      4813
      4801      4813      4816      4817      4801      4813      4816      4818
      4801      4813      4816      4819      4802      4801      4813      4814
      4802      4801      4813      4815      4802      4801      4813      4816
      4803      4801      4813      4814      4803      4801      4813      4815
      4803      4801      4813      4816      4804      4807      4808      4809
      4804      4807      4808      4810      4805      4804      4807      4808
      4806      4804      4807      4808      4807      4808      4810      4811
      4807      4808      4810      4812      4807      4808      4810      4860
      4808      4810      4860      4861      4808      4810      4860      4862
      4808      4810      4860      4863      4809      4808      4810      4811
      4809      4808      4810      4812      4809      4808      4810      4860
      4810      4860      4863      4864      4810      4860      4863      4865
      4810      4860      4863      4866      4811      4810      4860      4861
      4811      4810      4860      4862      4811      4810      4860      4863
      4812      4810      4860      4861      4812      4810      4860      4862
      4812      4810      4860      4863      4813      4816      4819      4820
      4813      4816      4819      4821      4813      4816      4819      4822
      4814      4813      4816      4817      4814      4813      4816      4818
      4814      4813      4816      4819      4815      4813      4816      4817
      4815      4813      4816      4818      4815      4813      4816      4819
      4816      4819      4822      4823      4816      4819      4822      4824
      4816      4819      4822      4825      4817      4816      4819      4820
      4817      4816      4819      4821      4817      4816      4819      4822
      4818      4816      4819      4820      4818      4816      4819      4821
      4818      4816      4819      4822      4819      4822      4825      4826
      4819      4822      4825      4827      4819      4822      4825      4828
      4820      4819      4822      4823      4820      4819      4822      4824
      4820      4819      4822      4825      4821      4819      4822      4823
      4821      4819      4822      4824      4821      4819      4822      4825
      4822      4825      4828      4829      4822      4825      4828      4830
      4822      4825      4828      4831      4823      4822      4825      4826
      4823      4822      4825      4827      4823      4822      4825      4828
      4824      4822      4825      4826      4824      4822      4825      4827
      4824      4822      4825      4828      4825      4828      4831      4832
      4825      4828      4831      4833      4826      4825      4828      4829
      4826      4825      4828      4830      4826      4825      4828      4831
      4827      4825      4828      4829      4827      4825      4828      4830
      4827      4825      4828      4831      4828      4831      4833      4834
      4828      4831      4833      4835      4829      4828      4831      4832
      4829      4828      4831      4833      4830      4828      4831      4832
      4830      4828      4831      4833      4831      4833      4835      4836
      4831      4833      4835      4837      4831      4833      4835      4838
      4832      4831      4833      4834      4832      4831      4833      4835
      4833      4835      4838      4839      4833      4835      4838      4840
      4833      4835      4838      4841      4834      4833      4835      4836
      4834      4833      4835      4837      4834      4833      4835      4838
      4835      4838      4841      4842      4835      4838      4841      4843
      4835      4838      4841      4844      4836      4835      4838      4839
      4836      4835      4838      4840      4836      4835      4838      4841
      4837      4835      4838      4839      4837      4835      4838      4840
      4837      4835      4838      4841      4838      4841      4844      4845
      4838      4841      4844      4846      4838      4841      4844      4847
      4839      4838      4841      4842      4839      4838      4841      4843
      4839      4838      4841      4844      4840      4838      4841      4842
      4840      4838      4841      4843      4840      4838      4841      4844
      4841      4844      4847      4848      4841      4844      4847      4849
      4841      4844      4847      4850      4842      4841      4844      4845
      4842      4841      4844      4846      4842      4841      4844      4847
      4843      4841      4844      4845      4843      4841      4844      4846
      4843      4841      4844      4847      4844      4847      4850      4851
      4844      4847      4850      4852      4844      4847      4850      4853
      4845      4844      4847      4848      4845      4844      4847      4849
      4845      4844      4847      4850      4846      4844      4847      4848
      4846      4844      4847      4849      4846      4844      4847      4850
      4847      4850      4853      4854      4847      4850      4853      4855
      4847      4850      4853      4856      4848      4847      4850      4851
      4848      4847      4850      4852      4848      4847      4850      4853
      4849      4847      4850      4851      4849      4847      4850      4852
      4849      4847      4850      4853      4850      4853      4856      4857
      4850      4853      4856      4858      4850      4853      4856      4859
      4851      4850      4853      4854      4851      4850      4853      4855
      4851      4850      4853      4856      4852      4850      4853      4854
      4852      4850      4853      4855      4852      4850      4853      4856
      4854      4853      4856      4857      4854      4853      4856      4858
      4854      4853      4856      4859      4855      4853      4856      4857
      4855      4853      4856      4858      4855      4853      4856      4859
      4860      4863      4866      4867      4860      4863      4866      4868
      4860      4863      4866      4869      4861      4860      4863      4864
      4861      4860      4863      4865      4861      4860      4863      4866
      4862      4860      4863      4864      4862      4860      4863      4865
      4862      4860      4863      4866      4863      4866      4869      4870
      4863      4866      4869      4871      4863      4866      4869      4872
      4864      4863      4866      4867      4864      4863      4866      4868
      4864      4863      4866      4869      4865      4863      4866      4867
      4865      4863      4866      4868      4865      4863      4866      4869
      4866      4869      4872      4873      4866      4869      4872      4874
      4866      4869      4872      4875      4867      4866      4869      4870
      4867      4866      4869      4871      4867      4866      4869      4872
      4868      4866      4869      4870      4868      4866      4869      4871
      4868      4866      4869      4872      4869      4872      4875      4876
      4869      4872      4875      4877      4869      4872      4875      4878
      4870      4869      4872      4873      4870      4869      4872      4874
      4870      4869      4872      4875      4871      4869      4872      4873
      4871      4869      4872      4874      4871      4869      4872      4875
      4872      4875      4878      4879      4872      4875      4878      4880
      4872      4875      4878      4881      4873      4872      4875      4876
      4873      4872      4875      4877      4873      4872      4875      4878
      4874      4872      4875      4876      4874      4872      4875      4877
      4874      4872      4875      4878      4875      4878      4881      4882
      4875      4878      4881      4883      4875      4878      4881      4884
      4876      4875      4878      4879      4876      4875      4878      4880
      4876      4875      4878      4881      4877      4875      4878      4879
      4877      4875      4878      4880      4877      4875      4878      4881
      4878      4881      4884      4885      4878      4881      4884      4886
      4878      4881      4884      4887      4879      4878      4881      4882
      4879      4878      4881      4883      4879      4878      4881      4884
      4880      4878      4881      4882      4880      4878      4881      4883
      4880      4878      4881      4884      4881      4884      4887      4888
      4881      4884      4887      4889      4881      4884      4887      4890
      4882      4881      4884      4885      4882      4881      4884      4886
      4882      4881      4884      4887      4883      4881      4884      4885
      4883      4881      4884      4886      4883      4881      4884      4887
      4884      4887      4890      4891      4884      4887      4890      4892
      4884      4887      4890      4893      4885      4884      4887      4888
      4885      4884      4887      4889      4885      4884      4887      4890
      4886      4884      4887      4888      4886      4884      4887      4889
      4886      4884      4887      4890      4887      4890      4893      4894
      4887      4890      4893      4895      4887      4890      4893      4896
      4888      4887      4890      4891      4888      4887      4890      4892
      4888      4887      4890      4893      4889      4887      4890      4891
      4889      4887      4890      4892      4889      4887      4890      4893
      4890      4893      4896      4897      4890      4893      4896      4898
      4890      4893      4896      4899      4891      4890      4893      4894
      4891      4890      4893      4895      4891      4890      4893      4896
      4892      4890      4893      4894      4892      4890      4893      4895
      4892      4890      4893      4896      4893      4896      4899      4900
      4893      4896      4899      4901      4893      4896      4899      4902
      4894      4893      4896      4897      4894      4893      4896      4898
      4894      4893      4896      4899      4895      4893      4896      4897
      4895      4893      4896      4898      4895      4893      4896      4899
      4897      4896      4899      4900      4897      4896      4899      4901
      4897      4896      4899      4902      4898      4896      4899      4900
      4898      4896      4899      4901      4898      4896      4899      4902
      4903      4907      4910      4911      4903      4907      4910      4912
      4903      4907      4910      4917      4904      4903      4907      4908
      4904      4903      4907      4909      4904      4903      4907      4910
      4905      4903      4907      4908      4905      4903      4907      4909
      4905      4903      4907      4910      4906      4903      4907      4908
      4906      4903      4907      4909      4906      4903      4907      4910
      4907      4910      4917      4913      4908      4907      4910      4911
      4908      4907      4910      4912      4908      4907      4910      4917
      4909      4907      4910      4911      4909      4907      4910      4912
      4909      4907      4910      4917      4910      4917      4913      4914
      4910      4917      4913      4915      4910      4917      4913      4916
      4911      4910      4917      4913      4912      4910      4917      4913
      4913      4916      4918      4919      4913      4916      4918      4920
      4913      4916      4918      4921      4914      4913      4916      4918
      4915      4913      4916      4918      4916      4918      4921      4922
      4916      4918      4921      4923      4916      4918      4921      4929
      4917      4913      4916      4918      4918      4921      4923      4924
      4918      4921      4929      4930      4918      4921      4929      4931
      4918      4921      4929      4932      4919      4918      4921      4922
      4919      4918      4921      4923      4919      4918      4921      4929
      4920      4918      4921      4922      4920      4918      4921      4923
      4920      4918      4921      4929      4921      4923      4924      4925
      4921      4923      4924      4926      4921      4929      4932      4933
      4922      4921      4923      4924      4922      4921      4929      4930
      4922      4921      4929      4931      4922      4921      4929      4932
      4923      4921      4929      4930      4923      4921      4929      4931
      4923      4921      4929      4932      4923      4924      4926      4927
      4923      4924      4926      4928      4923      4924      4926      4938
      4924      4923      4921      4929      4924      4926      4938      4939
      4924      4926      4938      4940      4924      4926      4938      4941
      4925      4924      4926      4927      4925      4924      4926      4928
      4925      4924      4926      4938      4926      4938      4941      4942
      4926      4938      4941      4943      4926      4938      4941      4944
      4927      4926      4938      4939      4927      4926      4938      4940
      4927      4926      4938      4941      4928      4926      4938      4939
      4928      4926      4938      4940      4928      4926      4938      4941
      4929      4932      4933      4934      4929      4932      4933      4935
      4930      4929      4932      4933      4931      4929      4932      4933
      4932      4933      4935      4936      4932      4933      4935      4937
      4932      4933      4935      4985      4933      4935      4985      4986
      4933      4935      4985      4987      4933      4935      4985      4988
      4934      4933      4935      4936      4934      4933      4935      4937
      4934      4933      4935      4985      4935      4985      4988      4989
      4935      4985      4988      4990      4935      4985      4988      4991
      4936      4935      4985      4986      4936      4935      4985      4987
      4936      4935      4985      4988      4937      4935      4985      4986
      4937      4935      4985      4987      4937      4935      4985      4988
      4938      4941      4944      4945      4938      4941      4944      4946
      4938      4941      4944      4947      4939      4938      4941      4942
      4939      4938      4941      4943      4939      4938      4941      4944
      4940      4938      4941      4942      4940      4938      4941      4943
      4940      4938      4941      4944      4941      4944      4947      4948
      4941      4944      4947      4949      4941      4944      4947      4950
      4942      4941      4944      4945      4942      4941      4944      4946
      4942      4941      4944      4947      4943      4941      4944      4945
      4943      4941      4944      4946      4943      4941      4944      4947
      4944      4947      4950      4951      4944      4947      4950      4952
      4944      4947      4950      4953      4945      4944      4947      4948
      4945      4944      4947      4949      4945      4944      4947      4950
      4946      4944      4947      4948      4946      4944      4947      4949
      4946      4944      4947      4950      4947      4950      4953      4954
      4947      4950      4953      4955      4947      4950      4953      4956
      4948      4947      4950      4951      4948      4947      4950      4952
      4948      4947      4950      4953      4949      4947      4950      4951
      4949      4947      4950      4952      4949      4947      4950      4953
      4950      4953      4956      4957      4950      4953      4956      4958
      4951      4950      4953      4954      4951      4950      4953      4955
      4951      4950      4953      4956      4952      4950      4953      4954
      4952      4950      4953      4955      4952      4950      4953      4956
      4953      4956      4958      4959      4953      4956      4958      4960
      4954      4953      4956      4957      4954      4953      4956      4958
      4955      4953      4956      4957      4955      4953      4956      4958
      4956      4958      4960      4961      4956      4958      4960      4962
      4956      4958      4960      4963      4957      4956      4958      4959
      4957      4956      4958      4960      4958      4960      4963      4964
      4958      4960      4963      4965      4958      4960      4963      4966
      4959      4958      4960      4961      4959      4958      4960      4962
      4959      4958      4960      4963      4960      4963      4966      4967
      4960      4963      4966      4968      4960      4963      4966      4969
      4961      4960      4963      4964      4961      4960      4963      4965
      4961      4960      4963      4966      4962      4960      4963      4964
      4962      4960      4963      4965      4962      4960      4963      4966
      4963      4966      4969      4970      4963      4966      4969      4971
      4963      4966      4969      4972      4964      4963      4966      4967
      4964      4963      4966      4968      4964      4963      4966      4969
      4965      4963      4966      4967      4965      4963      4966      4968
      4965      4963      4966      4969      4966      4969      4972      4973
      4966      4969      4972      4974      4966      4969      4972      4975
      4967      4966      4969      4970      4967      4966      4969      4971
      4967      4966      4969      4972      4968      4966      4969      4970
      4968      4966      4969      4971      4968      4966      4969      4972
      4969      4972      4975      4976      4969      4972      4975      4977
      4969      4972      4975      4978      4970      4969      4972      4973
      4970      4969      4972      4974      4970      4969      4972      4975
      4971      4969      4972      4973      4971      4969      4972      4974
      4971      4969      4972      4975      4972      4975      4978      4979
      4972      4975      4978      4980      4972      4975      4978      4981
      4973      4972      4975      4976      4973      4972      4975      4977
      4973      4972      4975      4978      4974      4972      4975      4976
      4974      4972      4975      4977      4974      4972      4975      4978
      4975      4978      4981      4982      4975      4978      4981      4983
      4975      4978      4981      4984      4976      4975      4978      4979
      4976      4975      4978      4980      4976      4975      4978      4981
      4977      4975      4978      4979      4977      4975      4978      4980
      4977      4975      4978      4981      4979      4978      4981      4982
      4979      4978      4981      4983      4979      4978      4981      4984
      4980      4978      4981      4982      4980      4978      4981      4983
      4980      4978      4981      4984      4985      4988      4991      4992
      4985      4988      4991      4993      4985      4988      4991      4994
      4986      4985      4988      4989      4986      4985      4988      4990
      4986      4985      4988      4991      4987      4985      4988      4989
      4987      4985      4988      4990      4987      4985      4988      4991
      4988      4991      4994      4995      4988      4991      4994      4996
      4988      4991      4994      4997      4989      4988      4991      4992
      4989      4988      4991      4993      4989      4988      4991      4994
      4990      4988      4991      4992      4990      4988      4991      4993
      4990      4988      4991      4994      4991      4994      4997      4998
      4991      4994      4997      4999      4991      4994      4997      5000
      4992      4991      4994      4995      4992      4991      4994      4996
      4992      4991      4994      4997      4993      4991      4994      4995
      4993      4991      4994      4996      4993      4991      4994      4997
      4994      4997      5000      5001      4994      4997      5000      5002
      4994      4997      5000      5003      4995      4994      4997      4998
      4995      4994      4997      4999      4995      4994      4997      5000
      4996      4994      4997      4998      4996      4994      4997      4999
      4996      4994      4997      5000      4997      5000      5003      5004
      4997      5000      5003      5005      4997      5000      5003      5006
      4998      4997      5000      5001      4998      4997      5000      5002
      4998      4997      5000      5003      4999      4997      5000      5001
      4999      4997      5000      5002      4999      4997      5000      5003
      5000      5003      5006      5007      5000      5003      5006      5008
      5000      5003      5006      5009      5001      5000      5003      5004
      5001      5000      5003      5005      5001      5000      5003      5006
      5002      5000      5003      5004      5002      5000      5003      5005
      5002      5000      5003      5006      5003      5006      5009      5010
      5003      5006      5009      5011      5003      5006      5009      5012
      5004      5003      5006      5007      5004      5003      5006      5008
      5004      5003      5006      5009      5005      5003      5006      5007
      5005      5003      5006      5008      5005      5003      5006      5009
      5006      5009      5012      5013      5006      5009      5012      5014
      5006      5009      5012      5015      5007      5006      5009      5010
      5007      5006      5009      5011      5007      5006      5009      5012
      5008      5006      5009      5010      5008      5006      5009      5011
      5008      5006      5009      5012      5009      5012      5015      5016
      5009      5012      5015      5017      5009      5012      5015      5018
      5010      5009      5012      5013      5010      5009      5012      5014
      5010      5009      5012      5015      5011      5009      5012      5013
      5011      5009      5012      5014      5011      5009      5012      5015
      5012      5015      5018      5019      5012      5015      5018      5020
      5012      5015      5018      5021      5013      5012      5015      5016
      5013      5012      5015      5017      5013      5012      5015      5018
      5014      5012      5015      5016      5014      5012      5015      5017
      5014      5012      5015      5018      5015      5018      5021      5022
      5015      5018      5021      5023      5015      5018      5021      5024
      5016      5015      5018      5019      5016      5015      5018      5020
      5016      5015      5018      5021      5017      5015      5018      5019
      5017      5015      5018      5020      5017      5015      5018      5021
      5018      5021      5024      5025      5018      5021      5024      5026
      5018      5021      5024      5027      5019      5018      5021      5022
      5019      5018      5021      5023      5019      5018      5021      5024
      5020      5018      5021      5022      5020      5018      5021      5023
      5020      5018      5021      5024      5022      5021      5024      5025
      5022      5021      5024      5026      5022      5021      5024      5027
      5023      5021      5024      5025      5023      5021      5024      5026
      5023      5021      5024      5027      5028      5032      5035      5036
      5028      5032      5035      5037      5028      5032      5035      5042
      5029      5028      5032      5033      5029      5028      5032      5034
      5029      5028      5032      5035      5030      5028      5032      5033
      5030      5028      5032      5034      5030      5028      5032      5035
      5031      5028      5032      5033      5031      5028      5032      5034
      5031      5028      5032      5035      5032      5035      5042      5038
      5033      5032      5035      5036      5033      5032      5035      5037
      5033      5032      5035      5042      5034      5032      5035      5036
      5034      5032      5035      5037      5034      5032      5035      5042
      5035      5042      5038      5039      5035      5042      5038      5040
      5035      5042      5038      5041      5036      5035      5042      5038
      5037      5035      5042      5038      5038      5041      5043      5044
      5038      5041      5043      5045      5038      5041      5043      5046
      5039      5038      5041      5043      5040      5038      5041      5043
      5041      5043      5046      5047      5041      5043      5046      5048
      5041      5043      5046      5054      5042      5038      5041      5043
      5043      5046      5048      5049      5043      5046      5054      5055
      5043      5046      5054      5056      5043      5046      5054      5057
      5044      5043      5046      5047      5044      5043      5046      5048
      5044      5043      5046      5054      5045      5043      5046      5047
      5045      5043      5046      5048      5045      5043      5046      5054
      5046      5048      5049      5050      5046      5048      5049      5051
      5046      5054      5057      5058      5047      5046      5048      5049
      5047      5046      5054      5055      5047      5046      5054      5056
      5047      5046      5054      5057      5048      5046      5054      5055
      5048      5046      5054      5056      5048      5046      5054      5057
      5048      5049      5051      5052      5048      5049      5051      5053
      5048      5049      5051      5063      5049      5048      5046      5054
      5049      5051      5063      5064      5049      5051      5063      5065
      5049      5051      5063      5066      5050      5049      5051      5052
      5050      5049      5051      5053      5050      5049      5051      5063
      5051      5063      5066      5067      5051      5063      5066      5068
      5051      5063      5066      5069      5052      5051      5063      5064
      5052      5051      5063      5065      5052      5051      5063      5066
      5053      5051      5063      5064      5053      5051      5063      5065
      5053      5051      5063      5066      5054      5057      5058      5059
      5054      5057      5058      5060      5055      5054      5057      5058
      5056      5054      5057      5058      5057      5058      5060      5061
      5057      5058      5060      5062      5057      5058      5060      5110
      5058      5060      5110      5111      5058      5060      5110      5112
      5058      5060      5110      5113      5059      5058      5060      5061
      5059      5058      5060      5062      5059      5058      5060      5110
      5060      5110      5113      5114      5060      5110      5113      5115
      5060      5110      5113      5116      5061      5060      5110      5111
      5061      5060      5110      5112      5061      5060      5110      5113
      5062      5060      5110      5111      5062      5060      5110      5112
      5062      5060      5110      5113      5063      5066      5069      5070
      5063      5066      5069      5071      5063      5066      5069      5072
      5064      5063      5066      5067      5064      5063      5066      5068
      5064      5063      5066      5069      5065      5063      5066      5067
      5065      5063      5066      5068      5065      5063      5066      5069
      5066      5069      5072      5073      5066      5069      5072      5074
      5066      5069      5072      5075      5067      5066      5069      5070
      5067      5066      5069      5071      5067      5066      5069      5072
      5068      5066      5069      5070      5068      5066      5069      5071
      5068      5066      5069      5072      5069      5072      5075      5076
      5069      5072      5075      5077      5069      5072      5075      5078
      5070      5069      5072      5073      5070      5069      5072      5074
      5070      5069      5072      5075      5071      5069      5072      5073
      5071      5069      5072      5074      5071      5069      5072      5075
      5072      5075      5078      5079      5072      5075      5078      5080
      5072      5075      5078      5081      5073      5072      5075      5076
      5073      5072      5075      5077      5073      5072      5075      5078
      5074      5072      5075      5076      5074      5072      5075      5077
      5074      5072      5075      5078      5075      5078      5081      5082
      5075      5078      5081      5083      5076      5075      5078      5079
      5076      5075      5078      5080      5076      5075      5078      5081
      5077      5075      5078      5079      5077      5075      5078      5080
      5077      5075      5078      5081      5078      5081      5083      5084
      5078      5081      5083      5085      5079      5078      5081      5082
      5079      5078      5081      5083      5080      5078      5081      5082
      5080      5078      5081      5083      5081      5083      5085      5086
      5081      5083      5085      5087      5081      5083      5085      5088
      5082      5081      5083      5084      5082      5081      5083      5085
      5083      5085      5088      5089      5083      5085      5088      5090
      5083      5085      5088      5091      5084      5083      5085      5086
      5084      5083      5085      5087      5084      5083      5085      5088
      5085      5088      5091      5092      5085      5088      5091      5093
      5085      5088      5091      5094      5086      5085      5088      5089
      5086      5085      5088      5090      5086      5085      5088      5091
      5087      5085      5088      5089      5087      5085      5088      5090
      5087      5085      5088      5091      5088      5091      5094      5095
      5088      5091      5094      5096      5088      5091      5094      5097
      5089      5088      5091      5092      5089      5088      5091      5093
      5089      5088      5091      5094      5090      5088      5091      5092
      5090      5088      5091      5093      5090      5088      5091      5094
      5091      5094      5097      5098      5091      5094      5097      5099
      5091      5094      5097      5100      5092      5091      5094      5095
      5092      5091      5094      5096      5092      5091      5094      5097
      5093      5091      5094      5095      5093      5091      5094      5096
      5093      5091      5094      5097      5094      5097      5100      5101
      5094      5097      5100      5102      5094      5097      5100      5103
      5095      5094      5097      5098      5095      5094      5097      5099
      5095      5094      5097      5100      5096      5094      5097      5098
      5096      5094      5097      5099      5096      5094      5097      5100
      5097      5100      5103      5104      5097      5100      5103      5105
      5097      5100      5103      5106      5098      5097      5100      5101
      5098      5097      5100      5102      5098      5097      5100      5103
      5099      5097      5100      5101      5099      5097      5100      5102
      5099      5097      5100      5103      5100      5103      5106      5107
      5100      5103      5106      5108      5100      5103      5106      5109
      5101      5100      5103      5104      5101      5100      5103      5105
      5101      5100      5103      5106      5102      5100      5103      5104
      5102      5100      5103      5105      5102      5100      5103      5106
      5104      5103      5106      5107      5104      5103      5106      5108
      5104      5103      5106      5109      5105      5103      5106      5107
      5105      5103      5106      5108      5105      5103      5106      5109
      5110      5113      5116      5117      5110      5113      5116      5118
      5110      5113      5116      5119      5111      5110      5113      5114
      5111      5110      5113      5115      5111      5110      5113      5116
      5112      5110      5113      5114      5112      5110      5113      5115
      5112      5110      5113      5116      5113      5116      5119      5120
      5113      5116      5119      5121      5113      5116      5119      5122
      5114      5113      5116      5117      5114      5113      5116      5118
      5114      5113      5116      5119      5115      5113      5116      5117
      5115      5113      5116      5118      5115      5113      5116      5119
      5116      5119      5122      5123      5116      5119      5122      5124
      5116      5119      5122      5125      5117      5116      5119      5120
      5117      5116      5119      5121      5117      5116      5119      5122
      5118      5116      5119      5120      5118      5116      5119      5121
      5118      5116      5119      5122      5119      5122      5125      5126
      5119      5122      5125      5127      5119      5122      5125      5128
      5120      5119      5122      5123      5120      5119      5122      5124
      5120      5119      5122      5125      5121      5119      5122      5123
      5121      5119      5122      5124      5121      5119      5122      5125
      5122      5125      5128      5129      5122      5125      5128      5130
      5122      5125      5128      5131      5123      5122      5125      5126
      5123      5122      5125      5127      5123      5122      5125      5128
      5124      5122      5125      5126      5124      5122      5125      5127
      5124      5122      5125      5128      5125      5128      5131      5132
      5125      5128      5131      5133      5125      5128      5131      5134
      5126      5125      5128      5129      5126      5125      5128      5130
      5126      5125      5128      5131      5127      5125      5128      5129
      5127      5125      5128      5130      5127      5125      5128      5131
      5128      5131      5134      5135      5128      5131      5134      5136
      5128      5131      5134      5137      5129      5128      5131      5132
      5129      5128      5131      5133      5129      5128      5131      5134
      5130      5128      5131      5132      5130      5128      5131      5133
      5130      5128      5131      5134      5131      5134      5137      5138
      5131      5134      5137      5139      5131      5134      5137      5140
      5132      5131      5134      5135      5132      5131      5134      5136
      5132      5131      5134      5137      5133      5131      5134      5135
      5133      5131      5134      5136      5133      5131      5134      5137
      5134      5137      5140      5141      5134      5137      5140      5142
      5134      5137      5140      5143      5135      5134      5137      5138
      5135      5134      5137      5139      5135      5134      5137      5140
      5136      5134      5137      5138      5136      5134      5137      5139
      5136      5134      5137      5140      5137      5140      5143      5144
      5137      5140      5143      5145      5137      5140      5143      5146
      5138      5137      5140      5141      5138      5137      5140      5142
      5138      5137      5140      5143      5139      5137      5140      5141
      5139      5137      5140      5142      5139      5137      5140      5143
      5140      5143      5146      5147      5140      5143      5146      5148
      5140      5143      5146      5149      5141      5140      5143      5144
      5141      5140      5143      5145      5141      5140      5143      5146
      5142      5140      5143      5144      5142      5140      5143      5145
      5142      5140      5143      5146      5143      5146      5149      5150
      5143      5146      5149      5151      5143      5146      5149      5152
      5144      5143      5146      5147      5144      5143      5146      5148
      5144      5143      5146      5149      5145      5143      5146      5147
      5145      5143      5146      5148      5145      5143      5146      5149
      5147      5146      5149      5150      5147      5146      5149      5151
      5147      5146      5149      5152      5148      5146      5149      5150
      5148      5146      5149      5151      5148      5146      5149      5152
      5153      5157      5160      5161      5153      5157      5160      5162
      5153      5157      5160      5167      5154      5153      5157      5158
      5154      5153      5157      5159      5154      5153      5157      5160
      5155      5153      5157      5158      5155      5153      5157      5159
      5155      5153      5157      5160      5156      5153      5157      5158
      5156      5153      5157      5159      5156      5153      5157      5160
      5157      5160      5167      5163      5158      5157      5160      5161
      5158      5157      5160      5162      5158      5157      5160      5167
      5159      5157      5160      5161      5159      5157      5160      5162
      5159      5157      5160      5167      5160      5167      5163      5164
      5160      5167      5163      5165      5160      5167      5163      5166
      5161      5160      5167      5163      5162      5160      5167      5163
      5163      5166      5168      5169      5163      5166      5168      5170
      5163      5166      5168      5171      5164      5163      5166      5168
      5165      5163      5166      5168      5166      5168      5171      5172
      5166      5168      5171      5173      5166      5168      5171      5179
      5167      5163      5166      5168      5168      5171      5173      5174
      5168      5171      5179      5180      5168      5171      5179      5181
      5168      5171      5179      5182      5169      5168      5171      5172
      5169      5168      5171      5173      5169      5168      5171      5179
      5170      5168      5171      5172      5170      5168      5171      5173
      5170      5168      5171      5179      5171      5173      5174      5175
      5171      5173      5174      5176      5171      5179      5182      5183
      5172      5171      5173      5174      5172      5171      5179      5180
      5172      5171      5179      5181      5172      5171      5179      5182
      5173      5171      5179      5180      5173      5171      5179      5181
      5173      5171      5179      5182      5173      5174      5176      5177
      5173      5174      5176      5178      5173      5174      5176      5188
      5174      5173      5171      5179      5174      5176      5188      5189
      5174      5176      5188      5190      5174      5176      5188      5191
      5175      5174      5176      5177      5175      5174      5176      5178
      5175      5174      5176      5188      5176      5188      5191      5192
      5176      5188      5191      5193      5176      5188      5191      5194
      5177      5176      5188      5189      5177      5176      5188      5190
      5177      5176      5188      5191      5178      5176      5188      5189
      5178      5176      5188      5190      5178      5176      5188      5191
      5179      5182      5183      5184      5179      5182      5183      5185
      5180      5179      5182      5183      5181      5179      5182      5183
      5182      5183      5185      5186      5182      5183      5185      5187
      5182      5183      5185      5235      5183      5185      5235      5236
      5183      5185      5235      5237      5183      5185      5235      5238
      5184      5183      5185      5186      5184      5183      5185      5187
      5184      5183      5185      5235      5185      5235      5238      5239
      5185      5235      5238      5240      5185      5235      5238      5241
      5186      5185      5235      5236      5186      5185      5235      5237
      5186      5185      5235      5238      5187      5185      5235      5236
      5187      5185      5235      5237      5187      5185      5235      5238
      5188      5191      5194      5195      5188      5191      5194      5196
      5188      5191      5194      5197      5189      5188      5191      5192
      5189      5188      5191      5193      5189      5188      5191      5194
      5190      5188      5191      5192      5190      5188      5191      5193
      5190      5188      5191      5194      5191      5194      5197      5198
      5191      5194      5197      5199      5191      5194      5197      5200
      5192      5191      5194      5195      5192      5191      5194      5196
      5192      5191      5194      5197      5193      5191      5194      5195
      5193      5191      5194      5196      5193      5191      5194      5197
      5194      5197      5200      5201      5194      5197      5200      5202
      5194      5197      5200      5203      5195      5194      5197      5198
      5195      5194      5197      5199      5195      5194      5197      5200
      5196      5194      5197      5198      5196      5194      5197      5199
      5196      5194      5197      5200      5197      5200      5203      5204
      5197      5200      5203      5205      5197      5200      5203      5206
      5198      5197      5200      5201      5198      5197      5200      5202
      5198      5197      5200      5203      5199      5197      5200      5201
      5199      5197      5200      5202      5199      5197      5200      5203
      5200      5203      5206      5207      5200      5203      5206      5208
      5201      5200      5203      5204      5201      5200      5203      5205
      5201      5200      5203      5206      5202      5200      5203      5204
      5202      5200      5203      5205      5202      5200      5203      5206
      5203      5206      5208      5209      5203      5206      5208      5210
      5204      5203      5206      5207      5204      5203      5206      5208
      5205      5203      5206      5207      5205      5203      5206      5208
      5206      5208      5210      5211      5206      5208      5210      5212
      5206      5208      5210      5213      5207      5206      5208      5209
      5207      5206      5208      5210      5208      5210      5213      5214
      5208      5210      5213      5215      5208      5210      5213      5216
      5209      5208      5210      5211      5209      5208      5210      5212
      5209      5208      5210      5213      5210      5213      5216      5217
      5210      5213      5216      5218      5210      5213      5216      5219
      5211      5210      5213      5214      5211      5210      5213      5215
      5211      5210      5213      5216      5212      5210      5213      5214
      5212      5210      5213      5215      5212      5210      5213      5216
      5213      5216      5219      5220      5213      5216      5219      5221
      5213      5216      5219      5222      5214      5213      5216      5217
      5214      5213      5216      5218      5214      5213      5216      5219
      5215      5213      5216      5217      5215      5213      5216      5218
      5215      5213      5216      5219      5216      5219      5222      5223
      5216      5219      5222      5224      5216      5219      5222      5225
      5217      5216      5219      5220      5217      5216      5219      5221
      5217      5216      5219      5222      5218      5216      5219      5220
      5218      5216      5219      5221      5218      5216      5219      5222
      5219      5222      5225      5226      5219      5222      5225      5227
      5219      5222      5225      5228      5220      5219      5222      5223
      5220      5219      5222      5224      5220      5219      5222      5225
      5221      5219      5222      5223      5221      5219      5222      5224
      5221      5219      5222      5225      5222      5225      5228      5229
      5222      5225      5228      5230      5222      5225      5228      5231
      5223      5222      5225      5226      5223      5222      5225      5227
      5223      5222      5225      5228      5224      5222      5225      5226
      5224      5222      5225      5227      5224      5222      5225      5228
      5225      5228      5231      5232      5225      5228      5231      5233
      5225      5228      5231      5234      5226      5225      5228      5229
      5226      5225      5228      5230      5226      5225      5228      5231
      5227      5225      5228      5229      5227      5225      5228      5230
      5227      5225      5228      5231      5229      5228      5231      5232
      5229      5228      5231      5233      5229      5228      5231      5234
      5230      5228      5231      5232      5230      5228      5231      5233
      5230      5228      5231      5234      5235      5238      5241      5242
      5235      5238      5241      5243      5235      5238      5241      5244
      5236      5235      5238      5239      5236      5235      5238      5240
      5236      5235      5238      5241      5237      5235      5238      5239
      5237      5235      5238      5240      5237      5235      5238      5241
      5238      5241      5244      5245      5238      5241      5244      5246
      5238      5241      5244      5247      5239      5238      5241      5242
      5239      5238      5241      5243      5239      5238      5241      5244
      5240      5238      5241      5242      5240      5238      5241      5243
      5240      5238      5241      5244      5241      5244      5247      5248
      5241      5244      5247      5249      5241      5244      5247      5250
      5242      5241      5244      5245      5242      5241      5244      5246
      5242      5241      5244      5247      5243      5241      5244      5245
      5243      5241      5244      5246      5243      5241      5244      5247
      5244      5247      5250      5251      5244      5247      5250      5252
      5244      5247      5250      5253      5245      5244      5247      5248
      5245      5244      5247      5249      5245      5244      5247      5250
      5246      5244      5247      5248      5246      5244      5247      5249
      5246      5244      5247      5250      5247      5250      5253      5254
      5247      5250      5253      5255      5247      5250      5253      5256
      5248      5247      5250      5251      5248      5247      5250      5252
      5248      5247      5250      5253      5249      5247      5250      5251
      5249      5247      5250      5252      5249      5247      5250      5253
      5250      5253      5256      5257      5250      5253      5256      5258
      5250      5253      5256      5259      5251      5250      5253      5254
      5251      5250      5253      5255      5251      5250      5253      5256
      5252      5250      5253      5254      5252      5250      5253      5255
      5252      5250      5253      5256      5253      5256      5259      5260
      5253      5256      5259      5261      5253      5256      5259      5262
      5254      5253      5256      5257      5254      5253      5256      5258
      5254      5253      5256      5259      5255      5253      5256      5257
      5255      5253      5256      5258      5255      5253      5256      5259
      5256      5259      5262      5263      5256      5259      5262      5264
      5256      5259      5262      5265      5257      5256      5259      5260
      5257      5256      5259      5261      5257      5256      5259      5262
      5258      5256      5259      5260      5258      5256      5259      5261
      5258      5256      5259      5262      5259      5262      5265      5266
      5259      5262      5265      5267      5259      5262      5265      5268
      5260      5259      5262      5263      5260      5259      5262      5264
      5260      5259      5262      5265      5261      5259      5262      5263
      5261      5259      5262      5264      5261      5259      5262      5265
      5262      5265      5268      5269      5262      5265      5268      5270
      5262      5265      5268      5271      5263      5262      5265      5266
      5263      5262      5265      5267      5263      5262      5265      5268
      5264      5262      5265      5266      5264      5262      5265      5267
      5264      5262      5265      5268      5265      5268      5271      5272
      5265      5268      5271      5273      5265      5268      5271      5274
      5266      5265      5268      5269      5266      5265      5268      5270
      5266      5265      5268      5271      5267      5265      5268      5269
      5267      5265      5268      5270      5267      5265      5268      5271
      5268      5271      5274      5275      5268      5271      5274      5276
      5268      5271      5274      5277      5269      5268      5271      5272
      5269      5268      5271      5273      5269      5268      5271      5274
      5270      5268      5271      5272      5270      5268      5271      5273
      5270      5268      5271      5274      5272      5271      5274      5275
      5272      5271      5274      5276      5272      5271      5274      5277
      5273      5271      5274      5275      5273      5271      5274      5276
      5273      5271      5274      5277      5278      5291      5294      5295
      5278      5291      5294      5296      5278      5291      5294      5301
      5279      5278      5283      5284      5279      5278      5283      5285
      5279      5278      5283      5286      5279      5278      5287      5288
      5279      5278      5287      5289      5279      5278      5287      5290
      5279      5278      5291      5292      5279      5278      5291      5293
      5279      5278      5291      5294      5280      5279      5278      5283
      5280      5279      5278      5287      5280      5279      5278      5291
      5281      5279      5278      5283      5281      5279      5278      5287
      5281      5279      5278      5291      5282      5279      5278      5283
      5282      5279      5278      5287      5282      5279      5278      5291
      5283      5278      5287      5288      5283      5278      5287      5289
      5283      5278      5287      5290      5283      5278      5291      5292
      5283      5278      5291      5293      5283      5278      5291      5294
      5284      5283      5278      5287      5284      5283      5278      5291
      5285      5283      5278      5287      5285      5283      5278      5291
      5286      5283      5278      5287      5286      5283      5278      5291
      5287      5278      5291      5292      5287      5278      5291      5293
      5287      5278      5291      5294      5288      5287      5278      5291
      5289      5287      5278      5291      5290      5287      5278      5291
      5291      5294      5301      5297      5292      5291      5294      5295
      5292      5291      5294      5296      5292      5291      5294      5301
      5293      5291      5294      5295      5293      5291      5294      5296
      5293      5291      5294      5301      5294      5301      5297      5298
      5294      5301      5297      5299      5294      5301      5297      5300
      5295      5294      5301      5297      5296      5294      5301      5297
      5297      5300      5302      5303      5297      5300      5302      5304
      5297      5300      5302      5307      5298      5297      5300      5302
      5299      5297      5300      5302      5300      5302      5307      5305
      5300      5302      5307      5308      5300      5302      5307      5309
      5301      5297      5300      5302      5302      5307      5305      5306
      5302      5307      5305      5357      5302      5307      5309      5310
      5302      5307      5309      5311      5302      5307      5309      5313
      5303      5302      5307      5305      5303      5302      5307      5308
      5303      5302      5307      5309      5304      5302      5307      5305
      5304      5302      5307      5308      5304      5302      5307      5309
      5305      5307      5309      5310      5305      5307      5309      5311
      5305      5307      5309      5313      5305      5357      5359      5360
      5305      5357      5359      5361      5305      5357      5359      5362
      5306      5305      5307      5308      5306      5305      5307      5309
      5306      5305      5357      5358      5306      5305      5357      5359
      5307      5305      5357      5358      5307      5305      5357      5359
      5307      5309      5311      5312      5307      5309      5313      5314
      5307      5309      5313      5315      5308      5307      5305      5357
      5308      5307      5309      5310      5308      5307      5309      5311
      5308      5307      5309      5313      5309      5307      5305      5357
      5309      5313      5315      5316      5309      5313      5315      5317
      5310      5309      5311      5312      5310      5309      5313      5314
      5310      5309      5313      5315      5311      5309      5313      5314
      5311      5309      5313      5315      5312      5311      5309      5313
      5313      5315      5317      5318      5313      5315      5317      5319
      5313      5315      5317      5320      5314      5313      5315      5316
      5314      5313      5315      5317      5315      5317      5320      5321
      5315      5317      5320      5322      5315      5317      5320      5323
      5316      5315      5317      5318      5316      5315      5317      5319
      5316      5315      5317      5320      5317      5320      5323      5324
      5317      5320      5323      5325      5317      5320      5323      5326
      5318      5317      5320      5321      5318      5317      5320      5322
      5318      5317      5320      5323      5319      5317      5320      5321
      5319      5317      5320      5322      5319      5317      5320      5323
      5320      5323      5326      5327      5320      5323      5326      5328
      5320      5323      5326      5329      5321      5320      5323      5324
      5321      5320      5323      5325      5321      5320      5323      5326
      5322      5320      5323      5324      5322      5320      5323      5325
      5322      5320      5323      5326      5323      5326      5329      5330
      5323      5326      5329      5331      5323      5326      5329      5332
      5324      5323      5326      5327      5324      5323      5326      5328
      5324      5323      5326      5329      5325      5323      5326      5327
      5325      5323      5326      5328      5325      5323      5326      5329
      5326      5329      5332      5333      5326      5329      5332      5334
      5326      5329      5332      5335      5327      5326      5329      5330
      5327      5326      5329      5331      5327      5326      5329      5332
      5328      5326      5329      5330      5328      5326      5329      5331
      5328      5326      5329      5332      5329      5332      5335      5336
      5329      5332      5335      5337      5329      5332      5335      5338
      5330      5329      5332      5333      5330      5329      5332      5334
      5330      5329      5332      5335      5331      5329      5332      5333
      5331      5329      5332      5334      5331      5329      5332      5335
      5332      5335      5338      5339      5332      5335      5338      5340
      5332      5335      5338      5341      5333      5332      5335      5336
      5333      5332      5335      5337      5333      5332      5335      5338
      5334      5332      5335      5336      5334      5332      5335      5337
      5334      5332      5335      5338      5335      5338      5341      5342
      5335      5338      5341      5343      5335      5338      5341      5344
      5336      5335      5338      5339      5336      5335      5338      5340
      5336      5335      5338      5341      5337      5335      5338      5339
      5337      5335      5338      5340      5337      5335      5338      5341
      5338      5341      5344      5345      5338      5341      5344      5346
      5338      5341      5344      5347      5339      5338      5341      5342
      5339      5338      5341      5343      5339      5338      5341      5344
      5340      5338      5341      5342      5340      5338      5341      5343
      5340      5338      5341      5344      5341      5344      5347      5348
      5341      5344      5347      5349      5341      5344      5347      5350
      5342      5341      5344      5345      5342      5341      5344      5346
      5342      5341      5344      5347      5343      5341      5344      5345
      5343      5341      5344      5346      5343      5341      5344      5347
      5344      5347      5350      5351      5344      5347      5350      5352
      5344      5347      5350      5353      5345      5344      5347      5348
      5345      5344      5347      5349      5345      5344      5347      5350
      5346      5344      5347      5348      5346      5344      5347      5349
      5346      5344      5347      5350      5347      5350      5353      5354
      5347      5350      5353      5355      5347      5350      5353      5356
      5348      5347      5350      5351      5348      5347      5350      5352
      5348      5347      5350      5353      5349      5347      5350      5351
      5349      5347      5350      5352      5349      5347      5350      5353
      5351      5350      5353      5354      5351      5350      5353      5355
      5351      5350      5353      5356      5352      5350      5353      5354
      5352      5350      5353      5355      5352      5350      5353      5356
      5357      5359      5362      5363      5357      5359      5362      5364
      5357      5359      5362      5365      5358      5357      5359      5360
      5358      5357      5359      5361      5358      5357      5359      5362
      5359      5362      5365      5366      5359      5362      5365      5367
      5359      5362      5365      5368      5360      5359      5362      5363
      5360      5359      5362      5364      5360      5359      5362      5365
      5361      5359      5362      5363      5361      5359      5362      5364
      5361      5359      5362      5365      5362      5365      5368      5369
      5362      5365      5368      5370      5362      5365      5368      5371
      5363      5362      5365      5366      5363      5362      5365      5367
      5363      5362      5365      5368      5364      5362      5365      5366
      5364      5362      5365      5367      5364      5362      5365      5368
      5365      5368      5371      5372      5365      5368      5371      5373
      5365      5368      5371      5374      5366      5365      5368      5369
      5366      5365      5368      5370      5366      5365      5368      5371
      5367      5365      5368      5369      5367      5365      5368      5370
      5367      5365      5368      5371      5368      5371      5374      5375
      5368      5371      5374      5376      5368      5371      5374      5377
      5369      5368      5371      5372      5369      5368      5371      5373
      5369      5368      5371      5374      5370      5368      5371      5372
      5370      5368      5371      5373      5370      5368      5371      5374
      5371      5374      5377      5378      5371      5374      5377      5379
      5371      5374      5377      5380      5372      5371      5374      5375
      5372      5371      5374      5376      5372      5371      5374      5377
      5373      5371      5374      5375      5373      5371      5374      5376
      5373      5371      5374      5377      5374      5377      5380      5381
      5374      5377      5380      5382      5374      5377      5380      5383
      5375      5374      5377      5378      5375      5374      5377      5379
      5375      5374      5377      5380      5376      5374      5377      5378
      5376      5374      5377      5379      5376      5374      5377      5380
      5377      5380      5383      5384      5377      5380      5383      5385
      5377      5380      5383      5386      5378      5377      5380      5381
      5378      5377      5380      5382      5378      5377      5380      5383
      5379      5377      5380      5381      5379      5377      5380      5382
      5379      5377      5380      5383      5380      5383      5386      5387
      5380      5383      5386      5388      5380      5383      5386      5389
      5381      5380      5383      5384      5381      5380      5383      5385
      5381      5380      5383      5386      5382      5380      5383      5384
      5382      5380      5383      5385      5382      5380      5383      5386
      5383      5386      5389      5390      5383      5386      5389      5391
      5383      5386      5389      5392      5384      5383      5386      5387
      5384      5383      5386      5388      5384      5383      5386      5389
      5385      5383      5386      5387      5385      5383      5386      5388
      5385      5383      5386      5389      5386      5389      5392      5393
      5386      5389      5392      5394      5386      5389      5392      5395
      5387      5386      5389      5390      5387      5386      5389      5391
      5387      5386      5389      5392      5388      5386      5389      5390
      5388      5386      5389      5391      5388      5386      5389      5392
      5389      5392      5395      5396      5389      5392      5395      5397
      5389      5392      5395      5398      5390      5389      5392      5393
      5390      5389      5392      5394      5390      5389      5392      5395
      5391      5389      5392      5393      5391      5389      5392      5394
      5391      5389      5392      5395      5392      5395      5398      5399
      5392      5395      5398      5400      5392      5395      5398      5401
      5393      5392      5395      5396      5393      5392      5395      5397
      5393      5392      5395      5398      5394      5392      5395      5396
      5394      5392      5395      5397      5394      5392      5395      5398
      5395      5398      5401      5402      5395      5398      5401      5403
      5395      5398      5401      5404      5396      5395      5398      5399
      5396      5395      5398      5400      5396      5395      5398      5401
      5397      5395      5398      5399      5397      5395      5398      5400
      5397      5395      5398      5401      5399      5398      5401      5402
      5399      5398      5401      5403      5399      5398      5401      5404
      5400      5398      5401      5402      5400      5398      5401      5403
      5400      5398      5401      5404      5405      5418      5421      5422
      5405      5418      5421      5423      5405      5418      5421      5428
      5406      5405      5410      5411      5406      5405      5410      5412
      5406      5405      5410      5413      5406      5405      5414      5415
      5406      5405      5414      5416      5406      5405      5414      5417
      5406      5405      5418      5419      5406      5405      5418      5420
      5406      5405      5418      5421      5407      5406      5405      5410
      5407      5406      5405      5414      5407      5406      5405      5418
      5408      5406      5405      5410      5408      5406      5405      5414
      5408      5406      5405      5418      5409      5406      5405      5410
      5409      5406      5405      5414      5409      5406      5405      5418
      5410      5405      5414      5415      5410      5405      5414      5416
      5410      5405      5414      5417      5410      5405      5418      5419
      5410      5405      5418      5420      5410      5405      5418      5421
      5411      5410      5405      5414      5411      5410      5405      5418
      5412      5410      5405      5414      5412      5410      5405      5418
      5413      5410      5405      5414      5413      5410      5405      5418
      5414      5405      5418      5419      5414      5405      5418      5420
      5414      5405      5418      5421      5415      5414      5405      5418
      5416      5414      5405      5418      5417      5414      5405      5418
      5418      5421      5428      5424      5419      5418      5421      5422
      5419      5418      5421      5423      5419      5418      5421      5428
      5420      5418      5421      5422      5420      5418      5421      5423
      5420      5418      5421      5428      5421      5428      5424      5425
      5421      5428      5424      5426      5421      5428      5424      5427
      5422      5421      5428      5424      5423      5421      5428      5424
      5424      5427      5429      5430      5424      5427      5429      5431
      5424      5427      5429      5434      5425      5424      5427      5429
      5426      5424      5427      5429      5427      5429      5434      5432
      5427      5429      5434      5435      5427      5429      5434      5436
      5428      5424      5427      5429      5429      5434      5432      5433
      5429      5434      5432      5484      5429      5434      5436      5437
      5429      5434      5436      5438      5429      5434      5436      5440
      5430      5429      5434      5432      5430      5429      5434      5435
      5430      5429      5434      5436      5431      5429      5434      5432
      5431      5429      5434      5435      5431      5429      5434      5436
      5432      5434      5436      5437      5432      5434      5436      5438
      5432      5434      5436      5440      5432      5484      5486      5487
      5432      5484      5486      5488      5432      5484      5486      5489
      5433      5432      5434      5435      5433      5432      5434      5436
      5433      5432      5484      5485      5433      5432      5484      5486
      5434      5432      5484      5485      5434      5432      5484      5486
      5434      5436      5438      5439      5434      5436      5440      5441
      5434      5436      5440      5442      5435      5434      5432      5484
      5435      5434      5436      5437      5435      5434      5436      5438
      5435      5434      5436      5440      5436      5434      5432      5484
      5436      5440      5442      5443      5436      5440      5442      5444
      5437      5436      5438      5439      5437      5436      5440      5441
      5437      5436      5440      5442      5438      5436      5440      5441
      5438      5436      5440      5442      5439      5438      5436      5440
      5440      5442      5444      5445      5440      5442      5444      5446
      5440      5442      5444      5447      5441      5440      5442      5443
      5441      5440      5442      5444      5442      5444      5447      5448
      5442      5444      5447      5449      5442      5444      5447      5450
      5443      5442      5444      5445      5443      5442      5444      5446
      5443      5442      5444      5447      5444      5447      5450      5451
      5444      5447      5450      5452      5444      5447      5450      5453
      5445      5444      5447      5448      5445      5444      5447      5449
      5445      5444      5447      5450      5446      5444      5447      5448
      5446      5444      5447      5449      5446      5444      5447      5450
      5447      5450      5453      5454      5447      5450      5453      5455
      5447      5450      5453      5456      5448      5447      5450      5451
      5448      5447      5450      5452      5448      5447      5450      5453
      5449      5447      5450      5451      5449      5447      5450      5452
      5449      5447      5450      5453      5450      5453      5456      5457
      5450      5453      5456      5458      5450      5453      5456      5459
      5451      5450      5453      5454      5451      5450      5453      5455
      5451      5450      5453      5456      5452      5450      5453      5454
      5452      5450      5453      5455      5452      5450      5453      5456
      5453      5456      5459      5460      5453      5456      5459      5461
      5453      5456      5459      5462      5454      5453      5456      5457
      5454      5453      5456      5458      5454      5453      5456      5459
      5455      5453      5456      5457      5455      5453      5456      5458
      5455      5453      5456      5459      5456      5459      5462      5463
      5456      5459      5462      5464      5456      5459      5462      5465
      5457      5456      5459      5460      5457      5456      5459      5461
      5457      5456      5459      5462      5458      5456      5459      5460
      5458      5456      5459      5461      5458      5456      5459      5462
      5459      5462      5465      5466      5459      5462      5465      5467
      5459      5462      5465      5468      5460      5459      5462      5463
      5460      5459      5462      5464      5460      5459      5462      5465
      5461      5459      5462      5463      5461      5459      5462      5464
      5461      5459      5462      5465      5462      5465      5468      5469
      5462      5465      5468      5470      5462      5465      5468      5471
      5463      5462      5465      5466      5463      5462      5465      5467
      5463      5462      5465      5468      5464      5462      5465      5466
      5464      5462      5465      5467      5464      5462      5465      5468
      5465      5468      5471      5472      5465      5468      5471      5473
      5465      5468      5471      5474      5466      5465      5468      5469
      5466      5465      5468      5470      5466      5465      5468      5471
      5467      5465      5468      5469      5467      5465      5468      5470
      5467      5465      5468      5471      5468      5471      5474      5475
      5468      5471      5474      5476      5468      5471      5474      5477
      5469      5468      5471      5472      5469      5468      5471      5473
      5469      5468      5471      5474      5470      5468      5471      5472
      5470      5468      5471      5473      5470      5468      5471      5474
      5471      5474      5477      5478      5471      5474      5477      5479
      5471      5474      5477      5480      5472      5471      5474      5475
      5472      5471      5474      5476      5472      5471      5474      5477
      5473      5471      5474      5475      5473      5471      5474      5476
      5473      5471      5474      5477      5474      5477      5480      5481
      5474      5477      5480      5482      5474      5477      5480      5483
      5475      5474      5477      5478      5475      5474      5477      5479
      5475      5474      5477      5480      5476      5474      5477      5478
      5476      5474      5477      5479      5476      5474      5477      5480
      5478      5477      5480      5481      5478      5477      5480      5482
      5478      5477      5480      5483      5479      5477      5480      5481
      5479      5477      5480      5482      5479      5477      5480      5483
      5484      5486      5489      5490      5484      5486      5489      5491
      5484      5486      5489      5492      5485      5484      5486      5487
      5485      5484      5486      5488      5485      5484      5486      5489
      5486      5489      5492      5493      5486      5489      5492      5494
      5486      5489      5492      5495      5487      5486      5489      5490
      5487      5486      5489      5491      5487      5486      5489      5492
      5488      5486      5489      5490      5488      5486      5489      5491
      5488      5486      5489      5492      5489      5492      5495      5496
      5489      5492      5495      5497      5489      5492      5495      5498
      5490      5489      5492      5493      5490      5489      5492      5494
      5490      5489      5492      5495      5491      5489      5492      5493
      5491      5489      5492      5494      5491      5489      5492      5495
      5492      5495      5498      5499      5492      5495      5498      5500
      5492      5495      5498      5501      5493      5492      5495      5496
      5493      5492      5495      5497      5493      5492      5495      5498
      5494      5492      5495      5496      5494      5492      5495      5497
      5494      5492      5495      5498      5495      5498      5501      5502
      5495      5498      5501      5503      5495      5498      5501      5504
      5496      5495      5498      5499      5496      5495      5498      5500
      5496      5495      5498      5501      5497      5495      5498      5499
      5497      5495      5498      5500      5497      5495      5498      5501
      5498      5501      5504      5505      5498      5501      5504      5506
      5498      5501      5504      5507      5499      5498      5501      5502
      5499      5498      5501      5503      5499      5498      5501      5504
      5500      5498      5501      5502      5500      5498      5501      5503
      5500      5498      5501      5504      5501      5504      5507      5508
      5501      5504      5507      5509      5501      5504      5507      5510
      5502      5501      5504      5505      5502      5501      5504      5506
      5502      5501      5504      5507      5503      5501      5504      5505
      5503      5501      5504      5506      5503      5501      5504      5507
      5504      5507      5510      5511      5504      5507      5510      5512
      5504      5507      5510      5513      5505      5504      5507      5508
      5505      5504      5507      5509      5505      5504      5507      5510
      5506      5504      5507      5508      5506      5504      5507      5509
      5506      5504      5507      5510      5507      5510      5513      5514
      5507      5510      5513      5515      5507      5510      5513      5516
      5508      5507      5510      5511      5508      5507      5510      5512
      5508      5507      5510      5513      5509      5507      5510      5511
      5509      5507      5510      5512      5509      5507      5510      5513
      5510      5513      5516      5517      5510      5513      5516      5518
      5510      5513      5516      5519      5511      5510      5513      5514
      5511      5510      5513      5515      5511      5510      5513      5516
      5512      5510      5513      5514      5512      5510      5513      5515
      5512      5510      5513      5516      5513      5516      5519      5520
      5513      5516      5519      5521      5513      5516      5519      5522
      5514      5513      5516      5517      5514      5513      5516      5518
      5514      5513      5516      5519      5515      5513      5516      5517
      5515      5513      5516      5518      5515      5513      5516      5519
      5516      5519      5522      5523      5516      5519      5522      5524
      5516      5519      5522      5525      5517      5516      5519      5520
      5517      5516      5519      5521      5517      5516      5519      5522
      5518      5516      5519      5520      5518      5516      5519      5521
      5518      5516      5519      5522      5519      5522      5525      5526
      5519      5522      5525      5527      5519      5522      5525      5528
      5520      5519      5522      5523      5520      5519      5522      5524
      5520      5519      5522      5525      5521      5519      5522      5523
      5521      5519      5522      5524      5521      5519      5522      5525
      5522      5525      5528      5529      5522      5525      5528      5530
      5522      5525      5528      5531      5523      5522      5525      5526
      5523      5522      5525      5527      5523      5522      5525      5528
      5524      5522      5525      5526      5524      5522      5525      5527
      5524      5522      5525      5528      5526      5525      5528      5529
      5526      5525      5528      5530      5526      5525      5528      5531
      5527      5525      5528      5529      5527      5525      5528      5530
      5527      5525      5528      5531      5532      5536      5539      5540
      5532      5536      5539      5541      5532      5536      5539      5546
      5533      5532      5536      5537      5533      5532      5536      5538
      5533      5532      5536      5539      5534      5532      5536      5537
      5534      5532      5536      5538      5534      5532      5536      5539
      5535      5532      5536      5537      5535      5532      5536      5538
      5535      5532      5536      5539      5536      5539      5546      5542
      5537      5536      5539      5540      5537      5536      5539      5541
      5537      5536      5539      5546      5538      5536      5539      5540
      5538      5536      5539      5541      5538      5536      5539      5546
      5539      5546      5542      5543      5539      5546      5542      5544
      5539      5546      5542      5545      5540      5539      5546      5542
      5541      5539      5546      5542      5542      5545      5547      5548
      5542      5545      5547      5549      5542      5545      5547      5550
      5543      5542      5545      5547      5544      5542      5545      5547
      5545      5547      5550      5551      5545      5547      5550      5552
      5545      5547      5550      5558      5546      5542      5545      5547
      5547      5550      5552      5553      5547      5550      5558      5559
      5547      5550      5558      5560      5547      5550      5558      5561
      5548      5547      5550      5551      5548      5547      5550      5552
      5548      5547      5550      5558      5549      5547      5550      5551
      5549      5547      5550      5552      5549      5547      5550      5558
      5550      5552      5553      5554      5550      5552      5553      5555
      5550      5558      5561      5562      5551      5550      5552      5553
      5551      5550      5558      5559      5551      5550      5558      5560
      5551      5550      5558      5561      5552      5550      5558      5559
      5552      5550      5558      5560      5552      5550      5558      5561
      5552      5553      5555      5556      5552      5553      5555      5557
      5552      5553      5555      5567      5553      5552      5550      5558
      5553      5555      5567      5568      5553      5555      5567      5569
      5553      5555      5567      5570      5554      5553      5555      5556
      5554      5553      5555      5557      5554      5553      5555      5567
      5555      5567      5570      5571      5555      5567      5570      5572
      5555      5567      5570      5573      5556      5555      5567      5568
      5556      5555      5567      5569      5556      5555      5567      5570
      5557      5555      5567      5568      5557      5555      5567      5569
      5557      5555      5567      5570      5558      5561      5562      5563
      5558      5561      5562      5564      5559      5558      5561      5562
      5560      5558      5561      5562      5561      5562      5564      5565
      5561      5562      5564      5566      5561      5562      5564      5614
      5562      5564      5614      5615      5562      5564      5614      5616
      5562      5564      5614      5617      5563      5562      5564      5565
      5563      5562      5564      5566      5563      5562      5564      5614
      5564      5614      5617      5618      5564      5614      5617      5619
      5564      5614      5617      5620      5565      5564      5614      5615
      5565      5564      5614      5616      5565      5564      5614      5617
      5566      5564      5614      5615      5566      5564      5614      5616
      5566      5564      5614      5617      5567      5570      5573      5574
      5567      5570      5573      5575      5567      5570      5573      5576
      5568      5567      5570      5571      5568      5567      5570      5572
      5568      5567      5570      5573      5569      5567      5570      5571
      5569      5567      5570      5572      5569      5567      5570      5573
      5570      5573      5576      5577      5570      5573      5576      5578
      5570      5573      5576      5579      5571      5570      5573      5574
      5571      5570      5573      5575      5571      5570      5573      5576
      5572      5570      5573      5574      5572      5570      5573      5575
      5572      5570      5573      5576      5573      5576      5579      5580
      5573      5576      5579      5581      5573      5576      5579      5582
      5574      5573      5576      5577      5574      5573      5576      5578
      5574      5573      5576      5579      5575      5573      5576      5577
      5575      5573      5576      5578      5575      5573      5576      5579
      5576      5579      5582      5583      5576      5579      5582      5584
      5576      5579      5582      5585      5577      5576      5579      5580
      5577      5576      5579      5581      5577      5576      5579      5582
      5578      5576      5579      5580      5578      5576      5579      5581
      5578      5576      5579      5582      5579      5582      5585      5586
      5579      5582      5585      5587      5580      5579      5582      5583
      5580      5579      5582      5584      5580      5579      5582      5585
      5581      5579      5582      5583      5581      5579      5582      5584
      5581      5579      5582      5585      5582      5585      5587      5588
      5582      5585      5587      5589      5583      5582      5585      5586
      5583      5582      5585      5587      5584      5582      5585      5586
      5584      5582      5585      5587      5585      5587      5589      5590
      5585      5587      5589      5591      5585      5587      5589      5592
      5586      5585      5587      5588      5586      5585      5587      5589
      5587      5589      5592      5593      5587      5589      5592      5594
      5587      5589      5592      5595      5588      5587      5589      5590
      5588      5587      5589      5591      5588      5587      5589      5592
      5589      5592      5595      5596      5589      5592      5595      5597
      5589      5592      5595      5598      5590      5589      5592      5593
      5590      5589      5592      5594      5590      5589      5592      5595
      5591      5589      5592      5593      5591      5589      5592      5594
      5591      5589      5592      5595      5592      5595      5598      5599
      5592      5595      5598      5600      5592      5595      5598      5601
      5593      5592      5595      5596      5593      5592      5595      5597
      5593      5592      5595      5598      5594      5592      5595      5596
      5594      5592      5595      5597      5594      5592      5595      5598
      5595      5598      5601      5602      5595      5598      5601      5603
      5595      5598      5601      5604      5596      5595      5598      5599
      5596      5595      5598      5600      5596      5595      5598      5601
      5597      5595      5598      5599      5597      5595      5598      5600
      5597      5595      5598      5601      5598      5601      5604      5605
      5598      5601      5604      5606      5598      5601      5604      5607
      5599      5598      5601      5602      5599      5598      5601      5603
      5599      5598      5601      5604      5600      5598      5601      5602
      5600      5598      5601      5603      5600      5598      5601      5604
      5601      5604      5607      5608      5601      5604      5607      5609
      5601      5604      5607      5610      5602      5601      5604      5605
      5602      5601      5604      5606      5602      5601      5604      5607
      5603      5601      5604      5605      5603      5601      5604      5606
      5603      5601      5604      5607      5604      5607      5610      5611
      5604      5607      5610      5612      5604      5607      5610      5613
      5605      5604      5607      5608      5605      5604      5607      5609
      5605      5604      5607      5610      5606      5604      5607      5608
      5606      5604      5607      5609      5606      5604      5607      5610
      5608      5607      5610      5611      5608      5607      5610      5612
      5608      5607      5610      5613      5609      5607      5610      5611
      5609      5607      5610      5612      5609      5607      5610      5613
      5614      5617      5620      5621      5614      5617      5620      5622
      5614      5617      5620      5623      5615      5614      5617      5618
      5615      5614      5617      5619      5615      5614      5617      5620
      5616      5614      5617      5618      5616      5614      5617      5619
      5616      5614      5617      5620      5617      5620      5623      5624
      5617      5620      5623      5625      5617      5620      5623      5626
      5618      5617      5620      5621      5618      5617      5620      5622
      5618      5617      5620      5623      5619      5617      5620      5621
      5619      5617      5620      5622      5619      5617      5620      5623
      5620      5623      5626      5627      5620      5623      5626      5628
      5620      5623      5626      5629      5621      5620      5623      5624
      5621      5620      5623      5625      5621      5620      5623      5626
      5622      5620      5623      5624      5622      5620      5623      5625
      5622      5620      5623      5626      5623      5626      5629      5630
      5623      5626      5629      5631      5623      5626      5629      5632
      5624      5623      5626      5627      5624      5623      5626      5628
      5624      5623      5626      5629      5625      5623      5626      5627
      5625      5623      5626      5628      5625      5623      5626      5629
      5626      5629      5632      5633      5626      5629      5632      5634
      5626      5629      5632      5635      5627      5626      5629      5630
      5627      5626      5629      5631      5627      5626      5629      5632
      5628      5626      5629      5630      5628      5626      5629      5631
      5628      5626      5629      5632      5629      5632      5635      5636
      5629      5632      5635      5637      5629      5632      5635      5638
      5630      5629      5632      5633      5630      5629      5632      5634
      5630      5629      5632      5635      5631      5629      5632      5633
      5631      5629      5632      5634      5631      5629      5632      5635
      5632      5635      5638      5639      5632      5635      5638      5640
      5632      5635      5638      5641      5633      5632      5635      5636
      5633      5632      5635      5637      5633      5632      5635      5638
      5634      5632      5635      5636      5634      5632      5635      5637
      5634      5632      5635      5638      5635      5638      5641      5642
      5635      5638      5641      5643      5635      5638      5641      5644
      5636      5635      5638      5639      5636      5635      5638      5640
      5636      5635      5638      5641      5637      5635      5638      5639
      5637      5635      5638      5640      5637      5635      5638      5641
      5638      5641      5644      5645      5638      5641      5644      5646
      5638      5641      5644      5647      5639      5638      5641      5642
      5639      5638      5641      5643      5639      5638      5641      5644
      5640      5638      5641      5642      5640      5638      5641      5643
      5640      5638      5641      5644      5641      5644      5647      5648
      5641      5644      5647      5649      5641      5644      5647      5650
      5642      5641      5644      5645      5642      5641      5644      5646
      5642      5641      5644      5647      5643      5641      5644      5645
      5643      5641      5644      5646      5643      5641      5644      5647
      5644      5647      5650      5651      5644      5647      5650      5652
      5644      5647      5650      5653      5645      5644      5647      5648
      5645      5644      5647      5649      5645      5644      5647      5650
      5646      5644      5647      5648      5646      5644      5647      5649
      5646      5644      5647      5650      5647      5650      5653      5654
      5647      5650      5653      5655      5647      5650      5653      5656
      5648      5647      5650      5651      5648      5647      5650      5652
      5648      5647      5650      5653      5649      5647      5650      5651
      5649      5647      5650      5652      5649      5647      5650      5653
      5651      5650      5653      5654      5651      5650      5653      5655
      5651      5650      5653      5656      5652      5650      5653      5654
      5652      5650      5653      5655      5652      5650      5653      5656
      5657      5661      5664      5665      5657      5661      5664      5666
      5657      5661      5664      5671      5658      5657      5661      5662
      5658      5657      5661      5663      5658      5657      5661      5664
      5659      5657      5661      5662      5659      5657      5661      5663
      5659      5657      5661      5664      5660      5657      5661      5662
      5660      5657      5661      5663      5660      5657      5661      5664
      5661      5664      5671      5667      5662      5661      5664      5665
      5662      5661      5664      5666      5662      5661      5664      5671
      5663      5661      5664      5665      5663      5661      5664      5666
      5663      5661      5664      5671      5664      5671      5667      5668
      5664      5671      5667      5669      5664      5671      5667      5670
      5665      5664      5671      5667      5666      5664      5671      5667
      5667      5670      5672      5673      5667      5670      5672      5674
      5667      5670      5672      5675      5668      5667      5670      5672
      5669      5667      5670      5672      5670      5672      5675      5676
      5670      5672      5675      5677      5670      5672      5675      5683
      5671      5667      5670      5672      5672      5675      5677      5678
      5672      5675      5683      5684      5672      5675      5683      5685
      5672      5675      5683      5686      5673      5672      5675      5676
      5673      5672      5675      5677      5673      5672      5675      5683
      5674      5672      5675      5676      5674      5672      5675      5677
      5674      5672      5675      5683      5675      5677      5678      5679
      5675      5677      5678      5680      5675      5683      5686      5687
      5676      5675      5677      5678      5676      5675      5683      5684
      5676      5675      5683      5685      5676      5675      5683      5686
      5677      5675      5683      5684      5677      5675      5683      5685
      5677      5675      5683      5686      5677      5678      5680      5681
      5677      5678      5680      5682      5677      5678      5680      5692
      5678      5677      5675      5683      5678      5680      5692      5693
      5678      5680      5692      5694      5678      5680      5692      5695
      5679      5678      5680      5681      5679      5678      5680      5682
      5679      5678      5680      5692      5680      5692      5695      5696
      5680      5692      5695      5697      5680      5692      5695      5698
      5681      5680      5692      5693      5681      5680      5692      5694
      5681      5680      5692      5695      5682      5680      5692      5693
      5682      5680      5692      5694      5682      5680      5692      5695
      5683      5686      5687      5688      5683      5686      5687      5689
      5684      5683      5686      5687      5685      5683      5686      5687
      5686      5687      5689      5690      5686      5687      5689      5691
      5686      5687      5689      5739      5687      5689      5739      5740
      5687      5689      5739      5741      5687      5689      5739      5742
      5688      5687      5689      5690      5688      5687      5689      5691
      5688      5687      5689      5739      5689      5739      5742      5743
      5689      5739      5742      5744      5689      5739      5742      5745
      5690      5689      5739      5740      5690      5689      5739      5741
      5690      5689      5739      5742      5691      5689      5739      5740
      5691      5689      5739      5741      5691      5689      5739      5742
      5692      5695      5698      5699      5692      5695      5698      5700
      5692      5695      5698      5701      5693      5692      5695      5696
      5693      5692      5695      5697      5693      5692      5695      5698
      5694      5692      5695      5696      5694      5692      5695      5697
      5694      5692      5695      5698      5695      5698      5701      5702
      5695      5698      5701      5703      5695      5698      5701      5704
      5696      5695      5698      5699      5696      5695      5698      5700
      5696      5695      5698      5701      5697      5695      5698      5699
      5697      5695      5698      5700      5697      5695      5698      5701
      5698      5701      5704      5705      5698      5701      5704      5706
      5698      5701      5704      5707      5699      5698      5701      5702
      5699      5698      5701      5703      5699      5698      5701      5704
      5700      5698      5701      5702      5700      5698      5701      5703
      5700      5698      5701      5704      5701      5704      5707      5708
      5701      5704      5707      5709      5701      5704      5707      5710
      5702      5701      5704      5705      5702      5701      5704      5706
      5702      5701      5704      5707      5703      5701      5704      5705
      5703      5701      5704      5706      5703      5701      5704      5707
      5704      5707      5710      5711      5704      5707      5710      5712
      5705      5704      5707      5708      5705      5704      5707      5709
      5705      5704      5707      5710      5706      5704      5707      5708
      5706      5704      5707      5709      5706      5704      5707      5710
      5707      5710      5712      5713      5707      5710      5712      5714
      5708      5707      5710      5711      5708      5707      5710      5712
      5709      5707      5710      5711      5709      5707      5710      5712
      5710      5712      5714      5715      5710      5712      5714      5716
      5710      5712      5714      5717      5711      5710      5712      5713
      5711      5710      5712      5714      5712      5714      5717      5718
      5712      5714      5717      5719      5712      5714      5717      5720
      5713      5712      5714      5715      5713      5712      5714      5716
      5713      5712      5714      5717      5714      5717      5720      5721
      5714      5717      5720      5722      5714      5717      5720      5723
      5715      5714      5717      5718      5715      5714      5717      5719
      5715      5714      5717      5720      5716      5714      5717      5718
      5716      5714      5717      5719      5716      5714      5717      5720
      5717      5720      5723      5724      5717      5720      5723      5725
      5717      5720      5723      5726      5718      5717      5720      5721
      5718      5717      5720      5722      5718      5717      5720      5723
      5719      5717      5720      5721      5719      5717      5720      5722
      5719      5717      5720      5723      5720      5723      5726      5727
      5720      5723      5726      5728      5720      5723      5726      5729
      5721      5720      5723      5724      5721      5720      5723      5725
      5721      5720      5723      5726      5722      5720      5723      5724
      5722      5720      5723      5725      5722      5720      5723      5726
      5723      5726      5729      5730      5723      5726      5729      5731
      5723      5726      5729      5732      5724      5723      5726      5727
      5724      5723      5726      5728      5724      5723      5726      5729
      5725      5723      5726      5727      5725      5723      5726      5728
      5725      5723      5726      5729      5726      5729      5732      5733
      5726      5729      5732      5734      5726      5729      5732      5735
      5727      5726      5729      5730      5727      5726      5729      5731
      5727      5726      5729      5732      5728      5726      5729      5730
      5728      5726      5729      5731      5728      5726      5729      5732
      5729      5732      5735      5736      5729      5732      5735      5737
      5729      5732      5735      5738      5730      5729      5732      5733
      5730      5729      5732      5734      5730      5729      5732      5735
      5731      5729      5732      5733      5731      5729      5732      5734
      5731      5729      5732      5735      5733      5732      5735      5736
      5733      5732      5735      5737      5733      5732      5735      5738
      5734      5732      5735      5736      5734      5732      5735      5737
      5734      5732      5735      5738      5739      5742      5745      5746
      5739      5742      5745      5747      5739      5742      5745      5748
      5740      5739      5742      5743      5740      5739      5742      5744
      5740      5739      5742      5745      5741      5739      5742      5743
      5741      5739      5742      5744      5741      5739      5742      5745
      5742      5745      5748      5749      5742      5745      5748      5750
      5742      5745      5748      5751      5743      5742      5745      5746
      5743      5742      5745      5747      5743      5742      5745      5748
      5744      5742      5745      5746      5744      5742      5745      5747
      5744      5742      5745      5748      5745      5748      5751      5752
      5745      5748      5751      5753      5745      5748      5751      5754
      5746      5745      5748      5749      5746      5745      5748      5750
      5746      5745      5748      5751      5747      5745      5748      5749
      5747      5745      5748      5750      5747      5745      5748      5751
      5748      5751      5754      5755      5748      5751      5754      5756
      5748      5751      5754      5757      5749      5748      5751      5752
      5749      5748      5751      5753      5749      5748      5751      5754
      5750      5748      5751      5752      5750      5748      5751      5753
      5750      5748      5751      5754      5751      5754      5757      5758
      5751      5754      5757      5759      5751      5754      5757      5760
      5752      5751      5754      5755      5752      5751      5754      5756
      5752      5751      5754      5757      5753      5751      5754      5755
      5753      5751      5754      5756      5753      5751      5754      5757
      5754      5757      5760      5761      5754      5757      5760      5762
      5754      5757      5760      5763      5755      5754      5757      5758
      5755      5754      5757      5759      5755      5754      5757      5760
      5756      5754      5757      5758      5756      5754      5757      5759
      5756      5754      5757      5760      5757      5760      5763      5764
      5757      5760      5763      5765      5757      5760      5763      5766
      5758      5757      5760      5761      5758      5757      5760      5762
      5758      5757      5760      5763      5759      5757      5760      5761
      5759      5757      5760      5762      5759      5757      5760      5763
      5760      5763      5766      5767      5760      5763      5766      5768
      5760      5763      5766      5769      5761      5760      5763      5764
      5761      5760      5763      5765      5761      5760      5763      5766
      5762      5760      5763      5764      5762      5760      5763      5765
      5762      5760      5763      5766      5763      5766      5769      5770
      5763      5766      5769      5771      5763      5766      5769      5772
      5764      5763      5766      5767      5764      5763      5766      5768
      5764      5763      5766      5769      5765      5763      5766      5767
      5765      5763      5766      5768      5765      5763      5766      5769
      5766      5769      5772      5773      5766      5769      5772      5774
      5766      5769      5772      5775      5767      5766      5769      5770
      5767      5766      5769      5771      5767      5766      5769      5772
      5768      5766      5769      5770      5768      5766      5769      5771
      5768      5766      5769      5772      5769      5772      5775      5776
      5769      5772      5775      5777      5769      5772      5775      5778
      5770      5769      5772      5773      5770      5769      5772      5774
      5770      5769      5772      5775      5771      5769      5772      5773
      5771      5769      5772      5774      5771      5769      5772      5775
      5772      5775      5778      5779      5772      5775      5778      5780
      5772      5775      5778      5781      5773      5772      5775      5776
      5773      5772      5775      5777      5773      5772      5775      5778
      5774      5772      5775      5776      5774      5772      5775      5777
      5774      5772      5775      5778      5776      5775      5778      5779
      5776      5775      5778      5780      5776      5775      5778      5781
      5777      5775      5778      5779      5777      5775      5778      5780
      5777      5775      5778      5781      5782      5795      5798      5799
      5782      5795      5798      5800      5782      5795      5798      5805
      5783      5782      5787      5788      5783      5782      5787      5789
      5783      5782      5787      5790      5783      5782      5791      5792
      5783      5782      5791      5793      5783      5782      5791      5794
      5783      5782      5795      5796      5783      5782      5795      5797
      5783      5782      5795      5798      5784      5783      5782      5787
      5784      5783      5782      5791      5784      5783      5782      5795
      5785      5783      5782      5787      5785      5783      5782      5791
      5785      5783      5782      5795      5786      5783      5782      5787
      5786      5783      5782      5791      5786      5783      5782      5795
      5787      5782      5791      5792      5787      5782      5791      5793
      5787      5782      5791      5794      5787      5782      5795      5796
      5787      5782      5795      5797      5787      5782      5795      5798
      5788      5787      5782      5791      5788      5787      5782      5795
      5789      5787      5782      5791      5789      5787      5782      5795
      5790      5787      5782      5791      5790      5787      5782      5795
      5791      5782      5795      5796      5791      5782      5795      5797
      5791      5782      5795      5798      5792      5791      5782      5795
      5793      5791      5782      5795      5794      5791      5782      5795
      5795      5798      5805      5801      5796      5795      5798      5799
      5796      5795      5798      5800      5796      5795      5798      5805
      5797      5795      5798      5799      5797      5795      5798      5800
      5797      5795      5798      5805      5798      5805      5801      5802
      5798      5805      5801      5803      5798      5805      5801      5804
      5799      5798      5805      5801      5800      5798      5805      5801
      5801      5804      5806      5807      5801      5804      5806      5808
      5801      5804      5806      5811      5802      5801      5804      5806
      5803      5801      5804      5806      5804      5806      5811      5809
      5804      5806      5811      5812      5804      5806      5811      5813
      5805      5801      5804      5806      5806      5811      5809      5810
      5806      5811      5809      5861      5806      5811      5813      5814
      5806      5811      5813      5815      5806      5811      5813      5817
      5807      5806      5811      5809      5807      5806      5811      5812
      5807      5806      5811      5813      5808      5806      5811      5809
      5808      5806      5811      5812      5808      5806      5811      5813
      5809      5811      5813      5814      5809      5811      5813      5815
      5809      5811      5813      5817      5809      5861      5863      5864
      5809      5861      5863      5865      5809      5861      5863      5866
      5810      5809      5811      5812      5810      5809      5811      5813
      5810      5809      5861      5862      5810      5809      5861      5863
      5811      5809      5861      5862      5811      5809      5861      5863
      5811      5813      5815      5816      5811      5813      5817      5818
      5811      5813      5817      5819      5812      5811      5809      5861
      5812      5811      5813      5814      5812      5811      5813      5815
      5812      5811      5813      5817      5813      5811      5809      5861
      5813      5817      5819      5820      5813      5817      5819      5821
      5814      5813      5815      5816      5814      5813      5817      5818
      5814      5813      5817      5819      5815      5813      5817      5818
      5815      5813      5817      5819      5816      5815      5813      5817
      5817      5819      5821      5822      5817      5819      5821      5823
      5817      5819      5821      5824      5818      5817      5819      5820
      5818      5817      5819      5821      5819      5821      5824      5825
      5819      5821      5824      5826      5819      5821      5824      5827
      5820      5819      5821      5822      5820      5819      5821      5823
      5820      5819      5821      5824      5821      5824      5827      5828
      5821      5824      5827      5829      5821      5824      5827      5830
      5822      5821      5824      5825      5822      5821      5824      5826
      5822      5821      5824      5827      5823      5821      5824      5825
      5823      5821      5824      5826      5823      5821      5824      5827
      5824      5827      5830      5831      5824      5827      5830      5832
      5824      5827      5830      5833      5825      5824      5827      5828
      5825      5824      5827      5829      5825      5824      5827      5830
      5826      5824      5827      5828      5826      5824      5827      5829
      5826      5824      5827      5830      5827      5830      5833      5834
      5827      5830      5833      5835      5827      5830      5833      5836
      5828      5827      5830      5831      5828      5827      5830      5832
      5828      5827      5830      5833      5829      5827      5830      5831
      5829      5827      5830      5832      5829      5827      5830      5833
      5830      5833      5836      5837      5830      5833      5836      5838
      5830      5833      5836      5839      5831      5830      5833      5834
      5831      5830      5833      5835      5831      5830      5833      5836
      5832      5830      5833      5834      5832      5830      5833      5835
      5832      5830      5833      5836      5833      5836      5839      5840
      5833      5836      5839      5841      5833      5836      5839      5842
      5834      5833      5836      5837      5834      5833      5836      5838
      5834      5833      5836      5839      5835      5833      5836      5837
      5835      5833      5836      5838      5835      5833      5836      5839
      5836      5839      5842      5843      5836      5839      5842      5844
      5836      5839      5842      5845      5837      5836      5839      5840
      5837      5836      5839      5841      5837      5836      5839      5842
      5838      5836      5839      5840      5838      5836      5839      5841
      5838      5836      5839      5842      5839      5842      5845      5846
      5839      5842      5845      5847      5839      5842      5845      5848
      5840      5839      5842      5843      5840      5839      5842      5844
      5840      5839      5842      5845      5841      5839      5842      5843
      5841      5839      5842      5844      5841      5839      5842      5845
      5842      5845      5848      5849      5842      5845      5848      5850
      5842      5845      5848      5851      5843      5842      5845      5846
      5843      5842      5845      5847      5843      5842      5845      5848
      5844      5842      5845      5846      5844      5842      5845      5847
      5844      5842      5845      5848      5845      5848      5851      5852
      5845      5848      5851      5853      5845      5848      5851      5854
      5846      5845      5848      5849      5846      5845      5848      5850
      5846      5845      5848      5851      5847      5845      5848      5849
      5847      5845      5848      5850      5847      5845      5848      5851
      5848      5851      5854      5855      5848      5851      5854      5856
      5848      5851      5854      5857      5849      5848      5851      5852
      5849      5848      5851      5853      5849      5848      5851      5854
      5850      5848      5851      5852      5850      5848      5851      5853
      5850      5848      5851      5854      5851      5854      5857      5858
      5851      5854      5857      5859      5851      5854      5857      5860
      5852      5851      5854      5855      5852      5851      5854      5856
      5852      5851      5854      5857      5853      5851      5854      5855
      5853      5851      5854      5856      5853      5851      5854      5857
      5855      5854      5857      5858      5855      5854      5857      5859
      5855      5854      5857      5860      5856      5854      5857      5858
      5856      5854      5857      5859      5856      5854      5857      5860
      5861      5863      5866      5867      5861      5863      5866      5868
      5861      5863      5866      5869      5862      5861      5863      5864
      5862      5861      5863      5865      5862      5861      5863      5866
      5863      5866      5869      5870      5863      5866      5869      5871
      5863      5866      5869      5872      5864      5863      5866      5867
      5864      5863      5866      5868      5864      5863      5866      5869
      5865      5863      5866      5867      5865      5863      5866      5868
      5865      5863      5866      5869      5866      5869      5872      5873
      5866      5869      5872      5874      5866      5869      5872      5875
      5867      5866      5869      5870      5867      5866      5869      5871
      5867      5866      5869      5872      5868      5866      5869      5870
      5868      5866      5869      5871      5868      5866      5869      5872
      5869      5872      5875      5876      5869      5872      5875      5877
      5869      5872      5875      5878      5870      5869      5872      5873
      5870      5869      5872      5874      5870      5869      5872      5875
      5871      5869      5872      5873      5871      5869      5872      5874
      5871      5869      5872      5875      5872      5875      5878      5879
      5872      5875      5878      5880      5872      5875      5878      5881
      5873      5872      5875      5876      5873      5872      5875      5877
      5873      5872      5875      5878      5874      5872      5875      5876
      5874      5872      5875      5877      5874      5872      5875      5878
      5875      5878      5881      5882      5875      5878      5881      5883
      5875      5878      5881      5884      5876      5875      5878      5879
      5876      5875      5878      5880      5876      5875      5878      5881
      5877      5875      5878      5879      5877      5875      5878      5880
      5877      5875      5878      5881      5878      5881      5884      5885
      5878      5881      5884      5886      5878      5881      5884      5887
      5879      5878      5881      5882      5879      5878      5881      5883
      5879      5878      5881      5884      5880      5878      5881      5882
      5880      5878      5881      5883      5880      5878      5881      5884
      5881      5884      5887      5888      5881      5884      5887      5889
      5881      5884      5887      5890      5882      5881      5884      5885
      5882      5881      5884      5886      5882      5881      5884      5887
      5883      5881      5884      5885      5883      5881      5884      5886
      5883      5881      5884      5887      5884      5887      5890      5891
      5884      5887      5890      5892      5884      5887      5890      5893
      5885      5884      5887      5888      5885      5884      5887      5889
      5885      5884      5887      5890      5886      5884      5887      5888
      5886      5884      5887      5889      5886      5884      5887      5890
      5887      5890      5893      5894      5887      5890      5893      5895
      5887      5890      5893      5896      5888      5887      5890      5891
      5888      5887      5890      5892      5888      5887      5890      5893
      5889      5887      5890      5891      5889      5887      5890      5892
      5889      5887      5890      5893      5890      5893      5896      5897
      5890      5893      5896      5898      5890      5893      5896      5899
      5891      5890      5893      5894      5891      5890      5893      5895
      5891      5890      5893      5896      5892      5890      5893      5894
      5892      5890      5893      5895      5892      5890      5893      5896
      5893      5896      5899      5900      5893      5896      5899      5901
      5893      5896      5899      5902      5894      5893      5896      5897
      5894      5893      5896      5898      5894      5893      5896      5899
      5895      5893      5896      5897      5895      5893      5896      5898
      5895      5893      5896      5899      5896      5899      5902      5903
      5896      5899      5902      5904      5896      5899      5902      5905
      5897      5896      5899      5900      5897      5896      5899      5901
      5897      5896      5899      5902      5898      5896      5899      5900
      5898      5896      5899      5901      5898      5896      5899      5902
      5899      5902      5905      5906      5899      5902      5905      5907
      5899      5902      5905      5908      5900      5899      5902      5903
      5900      5899      5902      5904      5900      5899      5902      5905
      5901      5899      5902      5903      5901      5899      5902      5904
      5901      5899      5902      5905      5903      5902      5905      5906
      5903      5902      5905      5907      5903      5902      5905      5908
      5904      5902      5905      5906      5904      5902      5905      5907
      5904      5902      5905      5908      5909      5913      5915      5916
      5909      5913      5915      5917      5909      5913      5918      5919
      5909      5913      5918      5920      5909      5913      5918      5924
      5910      5909      5913      5914      5910      5909      5913      5915
      5910      5909      5913      5918      5911      5909      5913      5914
      5911      5909      5913      5915      5911      5909      5913      5918
      5912      5909      5913      5914      5912      5909      5913      5915
      5912      5909      5913      5918      5913      5918      5924      5921
      5914      5913      5915      5916      5914      5913      5915      5917
      5914      5913      5918      5919      5914      5913      5918      5920
      5914      5913      5918      5924      5915      5913      5918      5919
      5915      5913      5918      5920      5915      5913      5918      5924
      5916      5915      5913      5918      5917      5915      5913      5918
      5918      5924      5921      5922      5918      5924      5921      5923
      5918      5924      5921      5925      5919      5918      5924      5921
      5920      5918      5924      5921      5921      5925      5926      5927
      5921      5925      5926      5928      5921      5925      5926      5929
      5922      5921      5925      5926      5923      5921      5925      5926
      5924      5921      5925      5926      5925      5926      5929      5930
      5925      5926      5929      5931      5925      5926      5929      5937
      5926      5929      5931      5932      5926      5929      5937      5938
      5926      5929      5937      5939      5926      5929      5937      5940
      5927      5926      5929      5930      5927      5926      5929      5931
      5927      5926      5929      5937      5928      5926      5929      5930
      5928      5926      5929      5931      5928      5926      5929      5937
      5929      5931      5932      5933      5929      5931      5932      5934
      5929      5937      5940      5941      5930      5929      5931      5932
      5930      5929      5937      5938      5930      5929      5937      5939
      5930      5929      5937      5940      5931      5929      5937      5938
      5931      5929      5937      5939      5931      5929      5937      5940
      5931      5932      5934      5935      5931      5932      5934      5936
      5931      5932      5934      5946      5932      5931      5929      5937
      5932      5934      5946      5947      5932      5934      5946      5948
      5932      5934      5946      5949      5933      5932      5934      5935
      5933      5932      5934      5936      5933      5932      5934      5946
      5934      5946      5949      5950      5934      5946      5949      5951
      5934      5946      5949      5952      5935      5934      5946      5947
      5935      5934      5946      5948      5935      5934      5946      5949
      5936      5934      5946      5947      5936      5934      5946      5948
      5936      5934      5946      5949      5937      5940      5941      5942
      5937      5940      5941      5943      5938      5937      5940      5941
      5939      5937      5940      5941      5940      5941      5943      5944
      5940      5941      5943      5945      5940      5941      5943      5993
      5941      5943      5993      5994      5941      5943      5993      5995
      5941      5943      5993      5996      5942      5941      5943      5944
      5942      5941      5943      5945      5942      5941      5943      5993
      5943      5993      5996      5997      5943      5993      5996      5998
      5943      5993      5996      5999      5944      5943      5993      5994
      5944      5943      5993      5995      5944      5943      5993      5996
      5945      5943      5993      5994      5945      5943      5993      5995
      5945      5943      5993      5996      5946      5949      5952      5953
      5946      5949      5952      5954      5946      5949      5952      5955
      5947      5946      5949      5950      5947      5946      5949      5951
      5947      5946      5949      5952      5948      5946      5949      5950
      5948      5946      5949      5951      5948      5946      5949      5952
      5949      5952      5955      5956      5949      5952      5955      5957
      5949      5952      5955      5958      5950      5949      5952      5953
      5950      5949      5952      5954      5950      5949      5952      5955
      5951      5949      5952      5953      5951      5949      5952      5954
      5951      5949      5952      5955      5952      5955      5958      5959
      5952      5955      5958      5960      5952      5955      5958      5961
      5953      5952      5955      5956      5953      5952      5955      5957
      5953      5952      5955      5958      5954      5952      5955      5956
      5954      5952      5955      5957      5954      5952      5955      5958
      5955      5958      5961      5962      5955      5958      5961      5963
      5955      5958      5961      5964      5956      5955      5958      5959
      5956      5955      5958      5960      5956      5955      5958      5961
      5957      5955      5958      5959      5957      5955      5958      5960
      5957      5955      5958      5961      5958      5961      5964      5965
      5958      5961      5964      5966      5959      5958      5961      5962
      5959      5958      5961      5963      5959      5958      5961      5964
      5960      5958      5961      5962      5960      5958      5961      5963
      5960      5958      5961      5964      5961      5964      5966      5967
      5961      5964      5966      5968      5962      5961      5964      5965
      5962      5961      5964      5966      5963      5961      5964      5965
      5963      5961      5964      5966      5964      5966      5968      5969
      5964      5966      5968      5970      5964      5966      5968      5971
      5965      5964      5966      5967      5965      5964      5966      5968
      5966      5968      5971      5972      5966      5968      5971      5973
      5966      5968      5971      5974      5967      5966      5968      5969
      5967      5966      5968      5970      5967      5966      5968      5971
      5968      5971      5974      5975      5968      5971      5974      5976
      5968      5971      5974      5977      5969      5968      5971      5972
      5969      5968      5971      5973      5969      5968      5971      5974
      5970      5968      5971      5972      5970      5968      5971      5973
      5970      5968      5971      5974      5971      5974      5977      5978
      5971      5974      5977      5979      5971      5974      5977      5980
      5972      5971      5974      5975      5972      5971      5974      5976
      5972      5971      5974      5977      5973      5971      5974      5975
      5973      5971      5974      5976      5973      5971      5974      5977
      5974      5977      5980      5981      5974      5977      5980      5982
      5974      5977      5980      5983      5975      5974      5977      5978
      5975      5974      5977      5979      5975      5974      5977      5980
      5976      5974      5977      5978      5976      5974      5977      5979
      5976      5974      5977      5980      5977      5980      5983      5984
      5977      5980      5983      5985      5977      5980      5983      5986
      5978      5977      5980      5981      5978      5977      5980      5982
      5978      5977      5980      5983      5979      5977      5980      5981
      5979      5977      5980      5982      5979      5977      5980      5983
      5980      5983      5986      5987      5980      5983      5986      5988
      5980      5983      5986      5989      5981      5980      5983      5984
      5981      5980      5983      5985      5981      5980      5983      5986
      5982      5980      5983      5984      5982      5980      5983      5985
      5982      5980      5983      5986      5983      5986      5989      5990
      5983      5986      5989      5991      5983      5986      5989      5992
      5984      5983      5986      5987      5984      5983      5986      5988
      5984      5983      5986      5989      5985      5983      5986      5987
      5985      5983      5986      5988      5985      5983      5986      5989
      5987      5986      5989      5990      5987      5986      5989      5991
      5987      5986      5989      5992      5988      5986      5989      5990
      5988      5986      5989      5991      5988      5986      5989      5992
      5993      5996      5999      6000      5993      5996      5999      6001
      5993      5996      5999      6002      5994      5993      5996      5997
      5994      5993      5996      5998      5994      5993      5996      5999
      5995      5993      5996      5997      5995      5993      5996      5998
      5995      5993      5996      5999      5996      5999      6002      6003
      5996      5999      6002      6004      5996      5999      6002      6005
      5997      5996      5999      6000      5997      5996      5999      6001
      5997      5996      5999      6002      5998      5996      5999      6000
      5998      5996      5999      6001      5998      5996      5999      6002
      5999      6002      6005      6006      5999      6002      6005      6007
      5999      6002      6005      6008      6000      5999      6002      6003
      6000      5999      6002      6004      6000      5999      6002      6005
      6001      5999      6002      6003      6001      5999      6002      6004
      6001      5999      6002      6005      6002      6005      6008      6009
      6002      6005      6008      6010      6002      6005      6008      6011
      6003      6002      6005      6006      6003      6002      6005      6007
      6003      6002      6005      6008      6004      6002      6005      6006
      6004      6002      6005      6007      6004      6002      6005      6008
      6005      6008      6011      6012      6005      6008      6011      6013
      6005      6008      6011      6014      6006      6005      6008      6009
      6006      6005      6008      6010      6006      6005      6008      6011
      6007      6005      6008      6009      6007      6005      6008      6010
      6007      6005      6008      6011      6008      6011      6014      6015
      6008      6011      6014      6016      6008      6011      6014      6017
      6009      6008      6011      6012      6009      6008      6011      6013
      6009      6008      6011      6014      6010      6008      6011      6012
      6010      6008      6011      6013      6010      6008      6011      6014
      6011      6014      6017      6018      6011      6014      6017      6019
      6011      6014      6017      6020      6012      6011      6014      6015
      6012      6011      6014      6016      6012      6011      6014      6017
      6013      6011      6014      6015      6013      6011      6014      6016
      6013      6011      6014      6017      6014      6017      6020      6021
      6014      6017      6020      6022      6014      6017      6020      6023
      6015      6014      6017      6018      6015      6014      6017      6019
      6015      6014      6017      6020      6016      6014      6017      6018
      6016      6014      6017      6019      6016      6014      6017      6020
      6017      6020      6023      6024      6017      6020      6023      6025
      6017      6020      6023      6026      6018      6017      6020      6021
      6018      6017      6020      6022      6018      6017      6020      6023
      6019      6017      6020      6021      6019      6017      6020      6022
      6019      6017      6020      6023      6020      6023      6026      6027
      6020      6023      6026      6028      6020      6023      6026      6029
      6021      6020      6023      6024      6021      6020      6023      6025
      6021      6020      6023      6026      6022      6020      6023      6024
      6022      6020      6023      6025      6022      6020      6023      6026
      6023      6026      6029      6030      6023      6026      6029      6031
      6023      6026      6029      6032      6024      6023      6026      6027
      6024      6023      6026      6028      6024      6023      6026      6029
      6025      6023      6026      6027      6025      6023      6026      6028
      6025      6023      6026      6029      6026      6029      6032      6033
      6026      6029      6032      6034      6026      6029      6032      6035
      6027      6026      6029      6030      6027      6026      6029      6031
      6027      6026      6029      6032      6028      6026      6029      6030
      6028      6026      6029      6031      6028      6026      6029      6032
      6030      6029      6032      6033      6030      6029      6032      6034
      6030      6029      6032      6035      6031      6029      6032      6033
      6031      6029      6032      6034      6031      6029      6032      6035
      6036      6040      6043      6044      6036      6040      6043      6045
      6036      6040      6043      6050      6037      6036      6040      6041
      6037      6036      6040      6042      6037      6036      6040      6043
      6038      6036      6040      6041      6038      6036      6040      6042
      6038      6036      6040      6043      6039      6036      6040      6041
      6039      6036      6040      6042      6039      6036      6040      6043
      6040      6043      6050      6046      6041      6040      6043      6044
      6041      6040      6043      6045      6041      6040      6043      6050
      6042      6040      6043      6044      6042      6040      6043      6045
      6042      6040      6043      6050      6043      6050      6046      6047
      6043      6050      6046      6048      6043      6050      6046      6049
      6044      6043      6050      6046      6045      6043      6050      6046
      6046      6049      6051      6052      6046      6049      6051      6053
      6046      6049      6051      6054      6047      6046      6049      6051
      6048      6046      6049      6051      6049      6051      6054      6055
      6049      6051      6054      6056      6049      6051      6054      6062
      6050      6046      6049      6051      6051      6054      6056      6057
      6051      6054      6062      6063      6051      6054      6062      6064
      6051      6054      6062      6065      6052      6051      6054      6055
      6052      6051      6054      6056      6052      6051      6054      6062
      6053      6051      6054      6055      6053      6051      6054      6056
      6053      6051      6054      6062      6054      6056      6057      6058
      6054      6056      6057      6059      6054      6062      6065      6066
      6055      6054      6056      6057      6055      6054      6062      6063
      6055      6054      6062      6064      6055      6054      6062      6065
      6056      6054      6062      6063      6056      6054      6062      6064
      6056      6054      6062      6065      6056      6057      6059      6060
      6056      6057      6059      6061      6056      6057      6059      6071
      6057      6056      6054      6062      6057      6059      6071      6072
      6057      6059      6071      6073      6057      6059      6071      6074
      6058      6057      6059      6060      6058      6057      6059      6061
      6058      6057      6059      6071      6059      6071      6074      6075
      6059      6071      6074      6076      6059      6071      6074      6077
      6060      6059      6071      6072      6060      6059      6071      6073
      6060      6059      6071      6074      6061      6059      6071      6072
      6061      6059      6071      6073      6061      6059      6071      6074
      6062      6065      6066      6067      6062      6065      6066      6068
      6063      6062      6065      6066      6064      6062      6065      6066
      6065      6066      6068      6069      6065      6066      6068      6070
      6065      6066      6068      6118      6066      6068      6118      6119
      6066      6068      6118      6120      6066      6068      6118      6121
      6067      6066      6068      6069      6067      6066      6068      6070
      6067      6066      6068      6118      6068      6118      6121      6122
      6068      6118      6121      6123      6068      6118      6121      6124
      6069      6068      6118      6119      6069      6068      6118      6120
      6069      6068      6118      6121      6070      6068      6118      6119
      6070      6068      6118      6120      6070      6068      6118      6121
      6071      6074      6077      6078      6071      6074      6077      6079
      6071      6074      6077      6080      6072      6071      6074      6075
      6072      6071      6074      6076      6072      6071      6074      6077
      6073      6071      6074      6075      6073      6071      6074      6076
      6073      6071      6074      6077      6074      6077      6080      6081
      6074      6077      6080      6082      6074      6077      6080      6083
      6075      6074      6077      6078      6075      6074      6077      6079
      6075      6074      6077      6080      6076      6074      6077      6078
      6076      6074      6077      6079      6076      6074      6077      6080
      6077      6080      6083      6084      6077      6080      6083      6085
      6077      6080      6083      6086      6078      6077      6080      6081
      6078      6077      6080      6082      6078      6077      6080      6083
      6079      6077      6080      6081      6079      6077      6080      6082
      6079      6077      6080      6083      6080      6083      6086      6087
      6080      6083      6086      6088      6080      6083      6086      6089
      6081      6080      6083      6084      6081      6080      6083      6085
      6081      6080      6083      6086      6082      6080      6083      6084
      6082      6080      6083      6085      6082      6080      6083      6086
      6083      6086      6089      6090      6083      6086      6089      6091
      6084      6083      6086      6087      6084      6083      6086      6088
      6084      6083      6086      6089      6085      6083      6086      6087
      6085      6083      6086      6088      6085      6083      6086      6089
      6086      6089      6091      6092      6086      6089      6091      6093
      6087      6086      6089      6090      6087      6086      6089      6091
      6088      6086      6089      6090      6088      6086      6089      6091
      6089      6091      6093      6094      6089      6091      6093      6095
      6089      6091      6093      6096      6090      6089      6091      6092
      6090      6089      6091      6093      6091      6093      6096      6097
      6091      6093      6096      6098      6091      6093      6096      6099
      6092      6091      6093      6094      6092      6091      6093      6095
      6092      6091      6093      6096      6093      6096      6099      6100
      6093      6096      6099      6101      6093      6096      6099      6102
      6094      6093      6096      6097      6094      6093      6096      6098
      6094      6093      6096      6099      6095      6093      6096      6097
      6095      6093      6096      6098      6095      6093      6096      6099
      6096      6099      6102      6103      6096      6099      6102      6104
      6096      6099      6102      6105      6097      6096      6099      6100
      6097      6096      6099      6101      6097      6096      6099      6102
      6098      6096      6099      6100      6098      6096      6099      6101
      6098      6096      6099      6102      6099      6102      6105      6106
      6099      6102      6105      6107      6099      6102      6105      6108
      6100      6099      6102      6103      6100      6099      6102      6104
      6100      6099      6102      6105      6101      6099      6102      6103
      6101      6099      6102      6104      6101      6099      6102      6105
      6102      6105      6108      6109      6102      6105      6108      6110
      6102      6105      6108      6111      6103      6102      6105      6106
      6103      6102      6105      6107      6103      6102      6105      6108
      6104      6102      6105      6106      6104      6102      6105      6107
      6104      6102      6105      6108      6105      6108      6111      6112
      6105      6108      6111      6113      6105      6108      6111      6114
      6106      6105      6108      6109      6106      6105      6108      6110
      6106      6105      6108      6111      6107      6105      6108      6109
      6107      6105      6108      6110      6107      6105      6108      6111
      6108      6111      6114      6115      6108      6111      6114      6116
      6108      6111      6114      6117      6109      6108      6111      6112
      6109      6108      6111      6113      6109      6108      6111      6114
      6110      6108      6111      6112      6110      6108      6111      6113
      6110      6108      6111      6114      6112      6111      6114      6115
      6112      6111      6114      6116      6112      6111      6114      6117
      6113      6111      6114      6115      6113      6111      6114      6116
      6113      6111      6114      6117      6118      6121      6124      6125
      6118      6121      6124      6126      6118      6121      6124      6127
      6119      6118      6121      6122      6119      6118      6121      6123
      6119      6118      6121      6124      6120      6118      6121      6122
      6120      6118      6121      6123      6120      6118      6121      6124
      6121      6124      6127      6128      6121      6124      6127      6129
      6121      6124      6127      6130      6122      6121      6124      6125
      6122      6121      6124      6126      6122      6121      6124      6127
      6123      6121      6124      6125      6123      6121      6124      6126
      6123      6121      6124      6127      6124      6127      6130      6131
      6124      6127      6130      6132      6124      6127      6130      6133
      6125      6124      6127      6128      6125      6124      6127      6129
      6125      6124      6127      6130      6126      6124      6127      6128
      6126      6124      6127      6129      6126      6124      6127      6130
      6127      6130      6133      6134      6127      6130      6133      6135
      6127      6130      6133      6136      6128      6127      6130      6131
      6128      6127      6130      6132      6128      6127      6130      6133
      6129      6127      6130      6131      6129      6127      6130      6132
      6129      6127      6130      6133      6130      6133      6136      6137
      6130      6133      6136      6138      6130      6133      6136      6139
      6131      6130      6133      6134      6131      6130      6133      6135
      6131      6130      6133      6136      6132      6130      6133      6134
      6132      6130      6133      6135      6132      6130      6133      6136
      6133      6136      6139      6140      6133      6136      6139      6141
      6133      6136      6139      6142      6134      6133      6136      6137
      6134      6133      6136      6138      6134      6133      6136      6139
      6135      6133      6136      6137      6135      6133      6136      6138
      6135      6133      6136      6139      6136      6139      6142      6143
      6136      6139      6142      6144      6136      6139      6142      6145
      6137      6136      6139      6140      6137      6136      6139      6141
      6137      6136      6139      6142      6138      6136      6139      6140
      6138      6136      6139      6141      6138      6136      6139      6142
      6139      6142      6145      6146      6139      6142      6145      6147
      6139      6142      6145      6148      6140      6139      6142      6143
      6140      6139      6142      6144      6140      6139      6142      6145
      6141      6139      6142      6143      6141      6139      6142      6144
      6141      6139      6142      6145      6142      6145      6148      6149
      6142      6145      6148      6150      6142      6145      6148      6151
      6143      6142      6145      6146      6143      6142      6145      6147
      6143      6142      6145      6148      6144      6142      6145      6146
      6144      6142      6145      6147      6144      6142      6145      6148
      6145      6148      6151      6152      6145      6148      6151      6153
      6145      6148      6151      6154      6146      6145      6148      6149
      6146      6145      6148      6150      6146      6145      6148      6151
      6147      6145      6148      6149      6147      6145      6148      6150
      6147      6145      6148      6151      6148      6151      6154      6155
      6148      6151      6154      6156      6148      6151      6154      6157
      6149      6148      6151      6152      6149      6148      6151      6153
      6149      6148      6151      6154      6150      6148      6151      6152
      6150      6148      6151      6153      6150      6148      6151      6154
      6151      6154      6157      6158      6151      6154      6157      6159
      6151      6154      6157      6160      6152      6151      6154      6155
      6152      6151      6154      6156      6152      6151      6154      6157
      6153      6151      6154      6155      6153      6151      6154      6156
      6153      6151      6154      6157      6155      6154      6157      6158
      6155      6154      6157      6159      6155      6154      6157      6160
      6156      6154      6157      6158      6156      6154      6157      6159
      6156      6154      6157      6160      6161      6162      6177      6178
      6161      6162      6177      6179      6161      6162      6177      6183
      6162      6161      6165      6166      6162      6161      6165      6167
      6162      6161      6165      6168      6162      6161      6169      6170
      6162      6161      6169      6171      6162      6161      6169      6172
      6162      6161      6173      6174      6162      6161      6173      6175
      6162      6161      6173      6176      6162      6177      6183      6180
      6163      6162      6161      6165      6163      6162      6161      6169
      6163      6162      6161      6173      6163      6162      6177      6178
      6163      6162      6177      6179      6163      6162      6177      6183
      6164      6162      6161      6165      6164      6162      6161      6169
      6164      6162      6161      6173      6164      6162      6177      6178
      6164      6162      6177      6179      6164      6162      6177      6183
      6165      6161      6162      6177      6165      6161      6169      6170
      6165      6161      6169      6171      6165      6161      6169      6172
      6165      6161      6173      6174      6165      6161      6173      6175
      6165      6161      6173      6176      6166      6165      6161      6169
      6166      6165      6161      6173      6167      6165      6161      6169
      6167      6165      6161      6173      6168      6165      6161      6169
      6168      6165      6161      6173      6169      6161      6162      6177
      6169      6161      6173      6174      6169      6161      6173      6175
      6169      6161      6173      6176      6170      6169      6161      6173
      6171      6169      6161      6173      6172      6169      6161      6173
      6173      6161      6162      6177      6177      6183      6180      6181
      6177      6183      6180      6182      6177      6183      6180      6184
      6178      6177      6183      6180      6179      6177      6183      6180
      6180      6184      6185      6186      6180      6184      6185      6187
      6180      6184      6185      6188      6181      6180      6184      6185
      6182      6180      6184      6185      6183      6180      6184      6185
      6184      6185      6188      6189      6184      6185      6188      6190
      6184      6185      6188      6196      6185      6188      6190      6191
      6185      6188      6196      6197      6185      6188      6196      6198
      6185      6188      6196      6199      6186      6185      6188      6189
      6186      6185      6188      6190      6186      6185      6188      6196
      6187      6185      6188      6189      6187      6185      6188      6190
      6187      6185      6188      6196      6188      6190      6191      6192
      6188      6190      6191      6193      6188      6196      6199      6200
      6189      6188      6190      6191      6189      6188      6196      6197
      6189      6188      6196      6198      6189      6188      6196      6199
      6190      6188      6196      6197      6190      6188      6196      6198
      6190      6188      6196      6199      6190      6191      6193      6194
      6190      6191      6193      6195      6190      6191      6193      6205
      6191      6190      6188      6196      6191      6193      6205      6206
      6191      6193      6205      6207      6191      6193      6205      6208
      6192      6191      6193      6194      6192      6191      6193      6195
      6192      6191      6193      6205      6193      6205      6208      6209
      6193      6205      6208      6210      6193      6205      6208      6211
      6194      6193      6205      6206      6194      6193      6205      6207
      6194      6193      6205      6208      6195      6193      6205      6206
      6195      6193      6205      6207      6195      6193      6205      6208
      6196      6199      6200      6201      6196      6199      6200      6202
      6197      6196      6199      6200      6198      6196      6199      6200
      6199      6200      6202      6203      6199      6200      6202      6204
      6199      6200      6202      6252      6200      6202      6252      6253
      6200      6202      6252      6254      6200      6202      6252      6255
      6201      6200      6202      6203      6201      6200      6202      6204
      6201      6200      6202      6252      6202      6252      6255      6256
      6202      6252      6255      6257      6202      6252      6255      6258
      6203      6202      6252      6253      6203      6202      6252      6254
      6203      6202      6252      6255      6204      6202      6252      6253
      6204      6202      6252      6254      6204      6202      6252      6255
      6205      6208      6211      6212      6205      6208      6211      6213
      6205      6208      6211      6214      6206      6205      6208      6209
      6206      6205      6208      6210      6206      6205      6208      6211
      6207      6205      6208      6209      6207      6205      6208      6210
      6207      6205      6208      6211      6208      6211      6214      6215
      6208      6211      6214      6216      6208      6211      6214      6217
      6209      6208      6211      6212      6209      6208      6211      6213
      6209      6208      6211      6214      6210      6208      6211      6212
      6210      6208      6211      6213      6210      6208      6211      6214
      6211      6214      6217      6218      6211      6214      6217      6219
      6211      6214      6217      6220      6212      6211      6214      6215
      6212      6211      6214      6216      6212      6211      6214      6217
      6213      6211      6214      6215      6213      6211      6214      6216
      6213      6211      6214      6217      6214      6217      6220      6221
      6214      6217      6220      6222      6214      6217      6220      6223
      6215      6214      6217      6218      6215      6214      6217      6219
      6215      6214      6217      6220      6216      6214      6217      6218
      6216      6214      6217      6219      6216      6214      6217      6220
      6217      6220      6223      6224      6217      6220      6223      6225
      6218      6217      6220      6221      6218      6217      6220      6222
      6218      6217      6220      6223      6219      6217      6220      6221
      6219      6217      6220      6222      6219      6217      6220      6223
      6220      6223      6225      6226      6220      6223      6225      6227
      6221      6220      6223      6224      6221      6220      6223      6225
      6222      6220      6223      6224      6222      6220      6223      6225
      6223      6225      6227      6228      6223      6225      6227      6229
      6223      6225      6227      6230      6224      6223      6225      6226
      6224      6223      6225      6227      6225      6227      6230      6231
      6225      6227      6230      6232      6225      6227      6230      6233
      6226      6225      6227      6228      6226      6225      6227      6229
      6226      6225      6227      6230      6227      6230      6233      6234
      6227      6230      6233      6235      6227      6230      6233      6236
      6228      6227      6230      6231      6228      6227      6230      6232
      6228      6227      6230      6233      6229      6227      6230      6231
      6229      6227      6230      6232      6229      6227      6230      6233
      6230      6233      6236      6237      6230      6233      6236      6238
      6230      6233      6236      6239      6231      6230      6233      6234
      6231      6230      6233      6235      6231      6230      6233      6236
      6232      6230      6233      6234      6232      6230      6233      6235
      6232      6230      6233      6236      6233      6236      6239      6240
      6233      6236      6239      6241      6233      6236      6239      6242
      6234      6233      6236      6237      6234      6233      6236      6238
      6234      6233      6236      6239      6235      6233      6236      6237
      6235      6233      6236      6238      6235      6233      6236      6239
      6236      6239      6242      6243      6236      6239      6242      6244
      6236      6239      6242      6245      6237      6236      6239      6240
      6237      6236      6239      6241      6237      6236      6239      6242
      6238      6236      6239      6240      6238      6236      6239      6241
      6238      6236      6239      6242      6239      6242      6245      6246
      6239      6242      6245      6247      6239      6242      6245      6248
      6240      6239      6242      6243      6240      6239      6242      6244
      6240      6239      6242      6245      6241      6239      6242      6243
      6241      6239      6242      6244      6241      6239      6242      6245
      6242      6245      6248      6249      6242      6245      6248      6250
      6242      6245      6248      6251      6243      6242      6245      6246
      6243      6242      6245      6247      6243      6242      6245      6248
      6244      6242      6245      6246      6244      6242      6245      6247
      6244      6242      6245      6248      6246      6245      6248      6249
      6246      6245      6248      6250      6246      6245      6248      6251
      6247      6245      6248      6249      6247      6245      6248      6250
      6247      6245      6248      6251      6252      6255      6258      6259
      6252      6255      6258      6260      6252      6255      6258      6261
      6253      6252      6255      6256      6253      6252      6255      6257
      6253      6252      6255      6258      6254      6252      6255      6256
      6254      6252      6255      6257      6254      6252      6255      6258
      6255      6258      6261      6262      6255      6258      6261      6263
      6255      6258      6261      6264      6256      6255      6258      6259
      6256      6255      6258      6260      6256      6255      6258      6261
      6257      6255      6258      6259      6257      6255      6258      6260
      6257      6255      6258      6261      6258      6261      6264      6265
      6258      6261      6264      6266      6258      6261      6264      6267
      6259      6258      6261      6262      6259      6258      6261      6263
      6259      6258      6261      6264      6260      6258      6261      6262
      6260      6258      6261      6263      6260      6258      6261      6264
      6261      6264      6267      6268      6261      6264      6267      6269
      6261      6264      6267      6270      6262      6261      6264      6265
      6262      6261      6264      6266      6262      6261      6264      6267
      6263      6261      6264      6265      6263      6261      6264      6266
      6263      6261      6264      6267      6264      6267      6270      6271
      6264      6267      6270      6272      6264      6267      6270      6273
      6265      6264      6267      6268      6265      6264      6267      6269
      6265      6264      6267      6270      6266      6264      6267      6268
      6266      6264      6267      6269      6266      6264      6267      6270
      6267      6270      6273      6274      6267      6270      6273      6275
      6267      6270      6273      6276      6268      6267      6270      6271
      6268      6267      6270      6272      6268      6267      6270      6273
      6269      6267      6270      6271      6269      6267      6270      6272
      6269      6267      6270      6273      6270      6273      6276      6277
      6270      6273      6276      6278      6270      6273      6276      6279
      6271      6270      6273      6274      6271      6270      6273      6275
      6271      6270      6273      6276      6272      6270      6273      6274
      6272      6270      6273      6275      6272      6270      6273      6276
      6273      6276      6279      6280      6273      6276      6279      6281
      6273      6276      6279      6282      6274      6273      6276      6277
      6274      6273      6276      6278      6274      6273      6276      6279
      6275      6273      6276      6277      6275      6273      6276      6278
      6275      6273      6276      6279      6276      6279      6282      6283
      6276      6279      6282      6284      6276      6279      6282      6285
      6277      6276      6279      6280      6277      6276      6279      6281
      6277      6276      6279      6282      6278      6276      6279      6280
      6278      6276      6279      6281      6278      6276      6279      6282
      6279      6282      6285      6286      6279      6282      6285      6287
      6279      6282      6285      6288      6280      6279      6282      6283
      6280      6279      6282      6284      6280      6279      6282      6285
      6281      6279      6282      6283      6281      6279      6282      6284
      6281      6279      6282      6285      6282      6285      6288      6289
      6282      6285      6288      6290      6282      6285      6288      6291
      6283      6282      6285      6286      6283      6282      6285      6287
      6283      6282      6285      6288      6284      6282      6285      6286
      6284      6282      6285      6287      6284      6282      6285      6288
      6285      6288      6291      6292      6285      6288      6291      6293
      6285      6288      6291      6294      6286      6285      6288      6289
      6286      6285      6288      6290      6286      6285      6288      6291
      6287      6285      6288      6289      6287      6285      6288      6290
      6287      6285      6288      6291      6289      6288      6291      6292
      6289      6288      6291      6293      6289      6288      6291      6294
      6290      6288      6291      6292      6290      6288      6291      6293
      6290      6288      6291      6294      6295      6299      6302      6303
      6295      6299      6302      6304      6295      6299      6302      6309
      6296      6295      6299      6300      6296      6295      6299      6301
      6296      6295      6299      6302      6297      6295      6299      6300
      6297      6295      6299      6301      6297      6295      6299      6302
      6298      6295      6299      6300      6298      6295      6299      6301
      6298      6295      6299      6302      6299      6302      6309      6305
      6300      6299      6302      6303      6300      6299      6302      6304
      6300      6299      6302      6309      6301      6299      6302      6303
      6301      6299      6302      6304      6301      6299      6302      6309
      6302      6309      6305      6306      6302      6309      6305      6307
      6302      6309      6305      6308      6303      6302      6309      6305
      6304      6302      6309      6305      6305      6308      6310      6311
      6305      6308      6310      6312      6305      6308      6310      6313
      6306      6305      6308      6310      6307      6305      6308      6310
      6308      6310      6313      6314      6308      6310      6313      6315
      6308      6310      6313      6321      6309      6305      6308      6310
      6310      6313      6315      6316      6310      6313      6321      6322
      6310      6313      6321      6323      6310      6313      6321      6324
      6311      6310      6313      6314      6311      6310      6313      6315
      6311      6310      6313      6321      6312      6310      6313      6314
      6312      6310      6313      6315      6312      6310      6313      6321
      6313      6315      6316      6317      6313      6315      6316      6318
      6313      6321      6324      6325      6314      6313      6315      6316
      6314      6313      6321      6322      6314      6313      6321      6323
      6314      6313      6321      6324      6315      6313      6321      6322
      6315      6313      6321      6323      6315      6313      6321      6324
      6315      6316      6318      6319      6315      6316      6318      6320
      6315      6316      6318      6330      6316      6315      6313      6321
      6316      6318      6330      6331      6316      6318      6330      6332
      6316      6318      6330      6333      6317      6316      6318      6319
      6317      6316      6318      6320      6317      6316      6318      6330
      6318      6330      6333      6334      6318      6330      6333      6335
      6318      6330      6333      6336      6319      6318      6330      6331
      6319      6318      6330      6332      6319      6318      6330      6333
      6320      6318      6330      6331      6320      6318      6330      6332
      6320      6318      6330      6333      6321      6324      6325      6326
      6321      6324      6325      6327      6322      6321      6324      6325
      6323      6321      6324      6325      6324      6325      6327      6328
      6324      6325      6327      6329      6324      6325      6327      6377
      6325      6327      6377      6378      6325      6327      6377      6379
      6325      6327      6377      6380      6326      6325      6327      6328
      6326      6325      6327      6329      6326      6325      6327      6377
      6327      6377      6380      6381      6327      6377      6380      6382
      6327      6377      6380      6383      6328      6327      6377      6378
      6328      6327      6377      6379      6328      6327      6377      6380
      6329      6327      6377      6378      6329      6327      6377      6379
      6329      6327      6377      6380      6330      6333      6336      6337
      6330      6333      6336      6338      6330      6333      6336      6339
      6331      6330      6333      6334      6331      6330      6333      6335
      6331      6330      6333      6336      6332      6330      6333      6334
      6332      6330      6333      6335      6332      6330      6333      6336
      6333      6336      6339      6340      6333      6336      6339      6341
      6333      6336      6339      6342      6334      6333      6336      6337
      6334      6333      6336      6338      6334      6333      6336      6339
      6335      6333      6336      6337      6335      6333      6336      6338
      6335      6333      6336      6339      6336      6339      6342      6343
      6336      6339      6342      6344      6336      6339      6342      6345
      6337      6336      6339      6340      6337      6336      6339      6341
      6337      6336      6339      6342      6338      6336      6339      6340
      6338      6336      6339      6341      6338      6336      6339      6342
      6339      6342      6345      6346      6339      6342      6345      6347
      6339      6342      6345      6348      6340      6339      6342      6343
      6340      6339      6342      6344      6340      6339      6342      6345
      6341      6339      6342      6343      6341      6339      6342      6344
      6341      6339      6342      6345      6342      6345      6348      6349
      6342      6345      6348      6350      6343      6342      6345      6346
      6343      6342      6345      6347      6343      6342      6345      6348
      6344      6342      6345      6346      6344      6342      6345      6347
      6344      6342      6345      6348      6345      6348      6350      6351
      6345      6348      6350      6352      6346      6345      6348      6349
      6346      6345      6348      6350      6347      6345      6348      6349
      6347      6345      6348      6350      6348      6350      6352      6353
      6348      6350      6352      6354      6348      6350      6352      6355
      6349      6348      6350      6351      6349      6348      6350      6352
      6350      6352      6355      6356      6350      6352      6355      6357
      6350      6352      6355      6358      6351      6350      6352      6353
      6351      6350      6352      6354      6351      6350      6352      6355
      6352      6355      6358      6359      6352      6355      6358      6360
      6352      6355      6358      6361      6353      6352      6355      6356
      6353      6352      6355      6357      6353      6352      6355      6358
      6354      6352      6355      6356      6354      6352      6355      6357
      6354      6352      6355      6358      6355      6358      6361      6362
      6355      6358      6361      6363      6355      6358      6361      6364
      6356      6355      6358      6359      6356      6355      6358      6360
      6356      6355      6358      6361      6357      6355      6358      6359
      6357      6355      6358      6360      6357      6355      6358      6361
      6358      6361      6364      6365      6358      6361      6364      6366
      6358      6361      6364      6367      6359      6358      6361      6362
      6359      6358      6361      6363      6359      6358      6361      6364
      6360      6358      6361      6362      6360      6358      6361      6363
      6360      6358      6361      6364      6361      6364      6367      6368
      6361      6364      6367      6369      6361      6364      6367      6370
      6362      6361      6364      6365      6362      6361      6364      6366
      6362      6361      6364      6367      6363      6361      6364      6365
      6363      6361      6364      6366      6363      6361      6364      6367
      6364      6367      6370      6371      6364      6367      6370      6372
      6364      6367      6370      6373      6365      6364      6367      6368
      6365      6364      6367      6369      6365      6364      6367      6370
      6366      6364      6367      6368      6366      6364      6367      6369
      6366      6364      6367      6370      6367      6370      6373      6374
      6367      6370      6373      6375      6367      6370      6373      6376
      6368      6367      6370      6371      6368      6367      6370      6372
      6368      6367      6370      6373      6369      6367      6370      6371
      6369      6367      6370      6372      6369      6367      6370      6373
      6371      6370      6373      6374      6371      6370      6373      6375
      6371      6370      6373      6376      6372      6370      6373      6374
      6372      6370      6373      6375      6372      6370      6373      6376
      6377      6380      6383      6384      6377      6380      6383      6385
      6377      6380      6383      6386      6378      6377      6380      6381
      6378      6377      6380      6382      6378      6377      6380      6383
      6379      6377      6380      6381      6379      6377      6380      6382
      6379      6377      6380      6383      6380      6383      6386      6387
      6380      6383      6386      6388      6380      6383      6386      6389
      6381      6380      6383      6384      6381      6380      6383      6385
      6381      6380      6383      6386      6382      6380      6383      6384
      6382      6380      6383      6385      6382      6380      6383      6386
      6383      6386      6389      6390      6383      6386      6389      6391
      6383      6386      6389      6392      6384      6383      6386      6387
      6384      6383      6386      6388      6384      6383      6386      6389
      6385      6383      6386      6387      6385      6383      6386      6388
      6385      6383      6386      6389      6386      6389      6392      6393
      6386      6389      6392      6394      6386      6389      6392      6395
      6387      6386      6389      6390      6387      6386      6389      6391
      6387      6386      6389      6392      6388      6386      6389      6390
      6388      6386      6389      6391      6388      6386      6389      6392
      6389      6392      6395      6396      6389      6392      6395      6397
      6389      6392      6395      6398      6390      6389      6392      6393
      6390      6389      6392      6394      6390      6389      6392      6395
      6391      6389      6392      6393      6391      6389      6392      6394
      6391      6389      6392      6395      6392      6395      6398      6399
      6392      6395      6398      6400      6392      6395      6398      6401
      6393      6392      6395      6396      6393      6392      6395      6397
      6393      6392      6395      6398      6394      6392      6395      6396
      6394      6392      6395      6397      6394      6392      6395      6398
      6395      6398      6401      6402      6395      6398      6401      6403
      6395      6398      6401      6404      6396      6395      6398      6399
      6396      6395      6398      6400      6396      6395      6398      6401
      6397      6395      6398      6399      6397      6395      6398      6400
      6397      6395      6398      6401      6398      6401      6404      6405
      6398      6401      6404      6406      6398      6401      6404      6407
      6399      6398      6401      6402      6399      6398      6401      6403
      6399      6398      6401      6404      6400      6398      6401      6402
      6400      6398      6401      6403      6400      6398      6401      6404
      6401      6404      6407      6408      6401      6404      6407      6409
      6401      6404      6407      6410      6402      6401      6404      6405
      6402      6401      6404      6406      6402      6401      6404      6407
      6403      6401      6404      6405      6403      6401      6404      6406
      6403      6401      6404      6407      6404      6407      6410      6411
      6404      6407      6410      6412      6404      6407      6410      6413
      6405      6404      6407      6408      6405      6404      6407      6409
      6405      6404      6407      6410      6406      6404      6407      6408
      6406      6404      6407      6409      6406      6404      6407      6410
      6407      6410      6413      6414      6407      6410      6413      6415
      6407      6410      6413      6416      6408      6407      6410      6411
      6408      6407      6410      6412      6408      6407      6410      6413
      6409      6407      6410      6411      6409      6407      6410      6412
      6409      6407      6410      6413      6410      6413      6416      6417
      6410      6413      6416      6418      6410      6413      6416      6419
      6411      6410      6413      6414      6411      6410      6413      6415
      6411      6410      6413      6416      6412      6410      6413      6414
      6412      6410      6413      6415      6412      6410      6413      6416
      6414      6413      6416      6417      6414      6413      6416      6418
      6414      6413      6416      6419      6415      6413      6416      6417
      6415      6413      6416      6418      6415      6413      6416      6419
      6420      6421      6436      6437      6420      6421      6436      6438
      6420      6421      6436      6442      6421      6420      6424      6425
      6421      6420      6424      6426      6421      6420      6424      6427
      6421      6420      6428      6429      6421      6420      6428      6430
      6421      6420      6428      6431      6421      6420      6432      6433
      6421      6420      6432      6434      6421      6420      6432      6435
      6421      6436      6442      6439      6422      6421      6420      6424
      6422      6421      6420      6428      6422      6421      6420      6432
      6422      6421      6436      6437      6422      6421      6436      6438
      6422      6421      6436      6442      6423      6421      6420      6424
      6423      6421      6420      6428      6423      6421      6420      6432
      6423      6421      6436      6437      6423      6421      6436      6438
      6423      6421      6436      6442      6424      6420      6421      6436
      6424      6420      6428      6429      6424      6420      6428      6430
      6424      6420      6428      6431      6424      6420      6432      6433
      6424      6420      6432      6434      6424      6420      6432      6435
      6425      6424      6420      6428      6425      6424      6420      6432
      6426      6424      6420      6428      6426      6424      6420      6432
      6427      6424      6420      6428      6427      6424      6420      6432
      6428      6420      6421      6436      6428      6420      6432      6433
      6428      6420      6432      6434      6428      6420      6432      6435
      6429      6428      6420      6432      6430      6428      6420      6432
      6431      6428      6420      6432      6432      6420      6421      6436
      6436      6442      6439      6440      6436      6442      6439      6441
      6436      6442      6439      6443      6437      6436      6442      6439
      6438      6436      6442      6439      6439      6443      6444      6445
      6439      6443      6444      6446      6439      6443      6444      6447
      6440      6439      6443      6444      6441      6439      6443      6444
      6442      6439      6443      6444      6443      6444      6447      6448
      6443      6444      6447      6449      6443      6444      6447      6455
      6444      6447      6449      6450      6444      6447      6455      6456
      6444      6447      6455      6457      6444      6447      6455      6458
      6445      6444      6447      6448      6445      6444      6447      6449
      6445      6444      6447      6455      6446      6444      6447      6448
      6446      6444      6447      6449      6446      6444      6447      6455
      6447      6449      6450      6451      6447      6449      6450      6452
      6447      6455      6458      6459      6448      6447      6449      6450
      6448      6447      6455      6456      6448      6447      6455      6457
      6448      6447      6455      6458      6449      6447      6455      6456
      6449      6447      6455      6457      6449      6447      6455      6458
      6449      6450      6452      6453      6449      6450      6452      6454
      6449      6450      6452      6464      6450      6449      6447      6455
      6450      6452      6464      6465      6450      6452      6464      6466
      6450      6452      6464      6467      6451      6450      6452      6453
      6451      6450      6452      6454      6451      6450      6452      6464
      6452      6464      6467      6468      6452      6464      6467      6469
      6452      6464      6467      6470      6453      6452      6464      6465
      6453      6452      6464      6466      6453      6452      6464      6467
      6454      6452      6464      6465      6454      6452      6464      6466
      6454      6452      6464      6467      6455      6458      6459      6460
      6455      6458      6459      6461      6456      6455      6458      6459
      6457      6455      6458      6459      6458      6459      6461      6462
      6458      6459      6461      6463      6458      6459      6461      6511
      6459      6461      6511      6512      6459      6461      6511      6513
      6459      6461      6511      6514      6460      6459      6461      6462
      6460      6459      6461      6463      6460      6459      6461      6511
      6461      6511      6514      6515      6461      6511      6514      6516
      6461      6511      6514      6517      6462      6461      6511      6512
      6462      6461      6511      6513      6462      6461      6511      6514
      6463      6461      6511      6512      6463      6461      6511      6513
      6463      6461      6511      6514      6464      6467      6470      6471
      6464      6467      6470      6472      6464      6467      6470      6473
      6465      6464      6467      6468      6465      6464      6467      6469
      6465      6464      6467      6470      6466      6464      6467      6468
      6466      6464      6467      6469      6466      6464      6467      6470
      6467      6470      6473      6474      6467      6470      6473      6475
      6467      6470      6473      6476      6468      6467      6470      6471
      6468      6467      6470      6472      6468      6467      6470      6473
      6469      6467      6470      6471      6469      6467      6470      6472
      6469      6467      6470      6473      6470      6473      6476      6477
      6470      6473      6476      6478      6470      6473      6476      6479
      6471      6470      6473      6474      6471      6470      6473      6475
      6471      6470      6473      6476      6472      6470      6473      6474
      6472      6470      6473      6475      6472      6470      6473      6476
      6473      6476      6479      6480      6473      6476      6479      6481
      6473      6476      6479      6482      6474      6473      6476      6477
      6474      6473      6476      6478      6474      6473      6476      6479
      6475      6473      6476      6477      6475      6473      6476      6478
      6475      6473      6476      6479      6476      6479      6482      6483
      6476      6479      6482      6484      6477      6476      6479      6480
      6477      6476      6479      6481      6477      6476      6479      6482
      6478      6476      6479      6480      6478      6476      6479      6481
      6478      6476      6479      6482      6479      6482      6484      6485
      6479      6482      6484      6486      6480      6479      6482      6483
      6480      6479      6482      6484      6481      6479      6482      6483
      6481      6479      6482      6484      6482      6484      6486      6487
      6482      6484      6486      6488      6482      6484      6486      6489
      6483      6482      6484      6485      6483      6482      6484      6486
      6484      6486      6489      6490      6484      6486      6489      6491
      6484      6486      6489      6492      6485      6484      6486      6487
      6485      6484      6486      6488      6485      6484      6486      6489
      6486      6489      6492      6493      6486      6489      6492      6494
      6486      6489      6492      6495      6487      6486      6489      6490
      6487      6486      6489      6491      6487      6486      6489      6492
      6488      6486      6489      6490      6488      6486      6489      6491
      6488      6486      6489      6492      6489      6492      6495      6496
      6489      6492      6495      6497      6489      6492      6495      6498
      6490      6489      6492      6493      6490      6489      6492      6494
      6490      6489      6492      6495      6491      6489      6492      6493
      6491      6489      6492      6494      6491      6489      6492      6495
      6492      6495      6498      6499      6492      6495      6498      6500
      6492      6495      6498      6501      6493      6492      6495      6496
      6493      6492      6495      6497      6493      6492      6495      6498
      6494      6492      6495      6496      6494      6492      6495      6497
      6494      6492      6495      6498      6495      6498      6501      6502
      6495      6498      6501      6503      6495      6498      6501      6504
      6496      6495      6498      6499      6496      6495      6498      6500
      6496      6495      6498      6501      6497      6495      6498      6499
      6497      6495      6498      6500      6497      6495      6498      6501
      6498      6501      6504      6505      6498      6501      6504      6506
      6498      6501      6504      6507      6499      6498      6501      6502
      6499      6498      6501      6503      6499      6498      6501      6504
      6500      6498      6501      6502      6500      6498      6501      6503
      6500      6498      6501      6504      6501      6504      6507      6508
      6501      6504      6507      6509      6501      6504      6507      6510
      6502      6501      6504      6505      6502      6501      6504      6506
      6502      6501      6504      6507      6503      6501      6504      6505
      6503      6501      6504      6506      6503      6501      6504      6507
      6505      6504      6507      6508      6505      6504      6507      6509
      6505      6504      6507      6510      6506      6504      6507      6508
      6506      6504      6507      6509      6506      6504      6507      6510
      6511      6514      6517      6518      6511      6514      6517      6519
      6511      6514      6517      6520      6512      6511      6514      6515
      6512      6511      6514      6516      6512      6511      6514      6517
      6513      6511      6514      6515      6513      6511      6514      6516
      6513      6511      6514      6517      6514      6517      6520      6521
      6514      6517      6520      6522      6514      6517      6520      6523
      6515      6514      6517      6518      6515      6514      6517      6519
      6515      6514      6517      6520      6516      6514      6517      6518
      6516      6514      6517      6519      6516      6514      6517      6520
      6517      6520      6523      6524      6517      6520      6523      6525
      6517      6520      6523      6526      6518      6517      6520      6521
      6518      6517      6520      6522      6518      6517      6520      6523
      6519      6517      6520      6521      6519      6517      6520      6522
      6519      6517      6520      6523      6520      6523      6526      6527
      6520      6523      6526      6528      6520      6523      6526      6529
      6521      6520      6523      6524      6521      6520      6523      6525
      6521      6520      6523      6526      6522      6520      6523      6524
      6522      6520      6523      6525      6522      6520      6523      6526
      6523      6526      6529      6530      6523      6526      6529      6531
      6523      6526      6529      6532      6524      6523      6526      6527
      6524      6523      6526      6528      6524      6523      6526      6529
      6525      6523      6526      6527      6525      6523      6526      6528
      6525      6523      6526      6529      6526      6529      6532      6533
      6526      6529      6532      6534      6526      6529      6532      6535
      6527      6526      6529      6530      6527      6526      6529      6531
      6527      6526      6529      6532      6528      6526      6529      6530
      6528      6526      6529      6531      6528      6526      6529      6532
      6529      6532      6535      6536      6529      6532      6535      6537
      6529      6532      6535      6538      6530      6529      6532      6533
      6530      6529      6532      6534      6530      6529      6532      6535
      6531      6529      6532      6533      6531      6529      6532      6534
      6531      6529      6532      6535      6532      6535      6538      6539
      6532      6535      6538      6540      6532      6535      6538      6541
      6533      6532      6535      6536      6533      6532      6535      6537
      6533      6532      6535      6538      6534      6532      6535      6536
      6534      6532      6535      6537      6534      6532      6535      6538
      6535      6538      6541      6542      6535      6538      6541      6543
      6535      6538      6541      6544      6536      6535      6538      6539
      6536      6535      6538      6540      6536      6535      6538      6541
      6537      6535      6538      6539      6537      6535      6538      6540
      6537      6535      6538      6541      6538      6541      6544      6545
      6538      6541      6544      6546      6538      6541      6544      6547
      6539      6538      6541      6542      6539      6538      6541      6543
      6539      6538      6541      6544      6540      6538      6541      6542
      6540      6538      6541      6543      6540      6538      6541      6544
      6541      6544      6547      6548      6541      6544      6547      6549
      6541      6544      6547      6550      6542      6541      6544      6545
      6542      6541      6544      6546      6542      6541      6544      6547
      6543      6541      6544      6545      6543      6541      6544      6546
      6543      6541      6544      6547      6544      6547      6550      6551
      6544      6547      6550      6552      6544      6547      6550      6553
      6545      6544      6547      6548      6545      6544      6547      6549
      6545      6544      6547      6550      6546      6544      6547      6548
      6546      6544      6547      6549      6546      6544      6547      6550
      6548      6547      6550      6551      6548      6547      6550      6552
      6548      6547      6550      6553      6549      6547      6550      6551
      6549      6547      6550      6552      6549      6547      6550      6553
      6554      6555      6570      6571      6554      6555      6570      6572
      6554      6555      6570      6576      6555      6554      6558      6559
      6555      6554      6558      6560      6555      6554      6558      6561
      6555      6554      6562      6563      6555      6554      6562      6564
      6555      6554      6562      6565      6555      6554      6566      6567
      6555      6554      6566      6568      6555      6554      6566      6569
      6555      6570      6576      6573      6556      6555      6554      6558
      6556      6555      6554      6562      6556      6555      6554      6566
      6556      6555      6570      6571      6556      6555      6570      6572
      6556      6555      6570      6576      6557      6555      6554      6558
      6557      6555      6554      6562      6557      6555      6554      6566
      6557      6555      6570      6571      6557      6555      6570      6572
      6557      6555      6570      6576      6558      6554      6555      6570
      6558      6554      6562      6563      6558      6554      6562      6564
      6558      6554      6562      6565      6558      6554      6566      6567
      6558      6554      6566      6568      6558      6554      6566      6569
      6559      6558      6554      6562      6559      6558      6554      6566
      6560      6558      6554      6562      6560      6558      6554      6566
      6561      6558      6554      6562      6561      6558      6554      6566
      6562      6554      6555      6570      6562      6554      6566      6567
      6562      6554      6566      6568      6562      6554      6566      6569
      6563      6562      6554      6566      6564      6562      6554      6566
      6565      6562      6554      6566      6566      6554      6555      6570
      6570      6576      6573      6574      6570      6576      6573      6575
      6570      6576      6573      6577      6571      6570      6576      6573
      6572      6570      6576      6573      6573      6577      6578      6579
      6573      6577      6578      6580      6573      6577      6578      6581
      6574      6573      6577      6578      6575      6573      6577      6578
      6576      6573      6577      6578      6577      6578      6581      6582
      6577      6578      6581      6583      6577      6578      6581      6589
      6578      6581      6583      6584      6578      6581      6589      6590
      6578      6581      6589      6591      6578      6581      6589      6592
      6579      6578      6581      6582      6579      6578      6581      6583
      6579      6578      6581      6589      6580      6578      6581      6582
      6580      6578      6581      6583      6580      6578      6581      6589
      6581      6583      6584      6585      6581      6583      6584      6586
      6581      6589      6592      6593      6582      6581      6583      6584
      6582      6581      6589      6590      6582      6581      6589      6591
      6582      6581      6589      6592      6583      6581      6589      6590
      6583      6581      6589      6591      6583      6581      6589      6592
      6583      6584      6586      6587      6583      6584      6586      6588
      6583      6584      6586      6598      6584      6583      6581      6589
      6584      6586      6598      6599      6584      6586      6598      6600
      6584      6586      6598      6601      6585      6584      6586      6587
      6585      6584      6586      6588      6585      6584      6586      6598
      6586      6598      6601      6602      6586      6598      6601      6603
      6586      6598      6601      6604      6587      6586      6598      6599
      6587      6586      6598      6600      6587      6586      6598      6601
      6588      6586      6598      6599      6588      6586      6598      6600
      6588      6586      6598      6601      6589      6592      6593      6594
      6589      6592      6593      6595      6590      6589      6592      6593
      6591      6589      6592      6593      6592      6593      6595      6596
      6592      6593      6595      6597      6592      6593      6595      6645
      6593      6595      6645      6646      6593      6595      6645      6647
      6593      6595      6645      6648      6594      6593      6595      6596
      6594      6593      6595      6597      6594      6593      6595      6645
      6595      6645      6648      6649      6595      6645      6648      6650
      6595      6645      6648      6651      6596      6595      6645      6646
      6596      6595      6645      6647      6596      6595      6645      6648
      6597      6595      6645      6646      6597      6595      6645      6647
      6597      6595      6645      6648      6598      6601      6604      6605
      6598      6601      6604      6606      6598      6601      6604      6607
      6599      6598      6601      6602      6599      6598      6601      6603
      6599      6598      6601      6604      6600      6598      6601      6602
      6600      6598      6601      6603      6600      6598      6601      6604
      6601      6604      6607      6608      6601      6604      6607      6609
      6601      6604      6607      6610      6602      6601      6604      6605
      6602      6601      6604      6606      6602      6601      6604      6607
      6603      6601      6604      6605      6603      6601      6604      6606
      6603      6601      6604      6607      6604      6607      6610      6611
      6604      6607      6610      6612      6604      6607      6610      6613
      6605      6604      6607      6608      6605      6604      6607      6609
      6605      6604      6607      6610      6606      6604      6607      6608
      6606      6604      6607      6609      6606      6604      6607      6610
      6607      6610      6613      6614      6607      6610      6613      6615
      6607      6610      6613      6616      6608      6607      6610      6611
      6608      6607      6610      6612      6608      6607      6610      6613
      6609      6607      6610      6611      6609      6607      6610      6612
      6609      6607      6610      6613      6610      6613      6616      6617
      6610      6613      6616      6618      6611      6610      6613      6614
      6611      6610      6613      6615      6611      6610      6613      6616
      6612      6610      6613      6614      6612      6610      6613      6615
      6612      6610      6613      6616      6613      6616      6618      6619
      6613      6616      6618      6620      6614      6613      6616      6617
      6614      6613      6616      6618      6615      6613      6616      6617
      6615      6613      6616      6618      6616      6618      6620      6621
      6616      6618      6620      6622      6616      6618      6620      6623
      6617      6616      6618      6619      6617      6616      6618      6620
      6618      6620      6623      6624      6618      6620      6623      6625
      6618      6620      6623      6626      6619      6618      6620      6621
      6619      6618      6620      6622      6619      6618      6620      6623
      6620      6623      6626      6627      6620      6623      6626      6628
      6620      6623      6626      6629      6621      6620      6623      6624
      6621      6620      6623      6625      6621      6620      6623      6626
      6622      6620      6623      6624      6622      6620      6623      6625
      6622      6620      6623      6626      6623      6626      6629      6630
      6623      6626      6629      6631      6623      6626      6629      6632
      6624      6623      6626      6627      6624      6623      6626      6628
      6624      6623      6626      6629      6625      6623      6626      6627
      6625      6623      6626      6628      6625      6623      6626      6629
      6626      6629      6632      6633      6626      6629      6632      6634
      6626      6629      6632      6635      6627      6626      6629      6630
      6627      6626      6629      6631      6627      6626      6629      6632
      6628      6626      6629      6630      6628      6626      6629      6631
      6628      6626      6629      6632      6629      6632      6635      6636
      6629      6632      6635      6637      6629      6632      6635      6638
      6630      6629      6632      6633      6630      6629      6632      6634
      6630      6629      6632      6635      6631      6629      6632      6633
      6631      6629      6632      6634      6631      6629      6632      6635
      6632      6635      6638      6639      6632      6635      6638      6640
      6632      6635      6638      6641      6633      6632      6635      6636
      6633      6632      6635      6637      6633      6632      6635      6638
      6634      6632      6635      6636      6634      6632      6635      6637
      6634      6632      6635      6638      6635      6638      6641      6642
      6635      6638      6641      6643      6635      6638      6641      6644
      6636      6635      6638      6639      6636      6635      6638      6640
      6636      6635      6638      6641      6637      6635      6638      6639
      6637      6635      6638      6640      6637      6635      6638      6641
      6639      6638      6641      6642      6639      6638      6641      6643
      6639      6638      6641      6644      6640      6638      6641      6642
      6640      6638      6641      6643      6640      6638      6641      6644
      6645      6648      6651      6652      6645      6648      6651      6653
      6645      6648      6651      6654      6646      6645      6648      6649
      6646      6645      6648      6650      6646      6645      6648      6651
      6647      6645      6648      6649      6647      6645      6648      6650
      6647      6645      6648      6651      6648      6651      6654      6655
      6648      6651      6654      6656      6648      6651      6654      6657
      6649      6648      6651      6652      6649      6648      6651      6653
      6649      6648      6651      6654      6650      6648      6651      6652
      6650      6648      6651      6653      6650      6648      6651      6654
      6651      6654      6657      6658      6651      6654      6657      6659
      6651      6654      6657      6660      6652      6651      6654      6655
      6652      6651      6654      6656      6652      6651      6654      6657
      6653      6651      6654      6655      6653      6651      6654      6656
      6653      6651      6654      6657      6654      6657      6660      6661
      6654      6657      6660      6662      6654      6657      6660      6663
      6655      6654      6657      6658      6655      6654      6657      6659
      6655      6654      6657      6660      6656      6654      6657      6658
      6656      6654      6657      6659      6656      6654      6657      6660
      6657      6660      6663      6664      6657      6660      6663      6665
      6657      6660      6663      6666      6658      6657      6660      6661
      6658      6657      6660      6662      6658      6657      6660      6663
      6659      6657      6660      6661      6659      6657      6660      6662
      6659      6657      6660      6663      6660      6663      6666      6667
      6660      6663      6666      6668      6660      6663      6666      6669
      6661      6660      6663      6664      6661      6660      6663      6665
      6661      6660      6663      6666      6662      6660      6663      6664
      6662      6660      6663      6665      6662      6660      6663      6666
      6663      6666      6669      6670      6663      6666      6669      6671
      6663      6666      6669      6672      6664      6663      6666      6667
      6664      6663      6666      6668      6664      6663      6666      6669
      6665      6663      6666      6667      6665      6663      6666      6668
      6665      6663      6666      6669      6666      6669      6672      6673
      6666      6669      6672      6674      6666      6669      6672      6675
      6667      6666      6669      6670      6667      6666      6669      6671
      6667      6666      6669      6672      6668      6666      6669      6670
      6668      6666      6669      6671      6668      6666      6669      6672
      6669      6672      6675      6676      6669      6672      6675      6677
      6669      6672      6675      6678      6670      6669      6672      6673
      6670      6669      6672      6674      6670      6669      6672      6675
      6671      6669      6672      6673      6671      6669      6672      6674
      6671      6669      6672      6675      6672      6675      6678      6679
      6672      6675      6678      6680      6672      6675      6678      6681
      6673      6672      6675      6676      6673      6672      6675      6677
      6673      6672      6675      6678      6674      6672      6675      6676
      6674      6672      6675      6677      6674      6672      6675      6678
      6675      6678      6681      6682      6675      6678      6681      6683
      6675      6678      6681      6684      6676      6675      6678      6679
      6676      6675      6678      6680      6676      6675      6678      6681
      6677      6675      6678      6679      6677      6675      6678      6680
      6677      6675      6678      6681      6678      6681      6684      6685
      6678      6681      6684      6686      6678      6681      6684      6687
      6679      6678      6681      6682      6679      6678      6681      6683
      6679      6678      6681      6684      6680      6678      6681      6682
      6680      6678      6681      6683      6680      6678      6681      6684
      6682      6681      6684      6685      6682      6681      6684      6686
      6682      6681      6684      6687      6683      6681      6684      6685
      6683      6681      6684      6686      6683      6681      6684      6687
      6688      6701      6704      6705      6688      6701      6704      6706
      6688      6701      6704      6711      6689      6688      6693      6694
      6689      6688      6693      6695      6689      6688      6693      6696
      6689      6688      6697      6698      6689      6688      6697      6699
      6689      6688      6697      6700      6689      6688      6701      6702
      6689      6688      6701      6703      6689      6688      6701      6704
      6690      6689      6688      6693      6690      6689      6688      6697
      6690      6689      6688      6701      6691      6689      6688      6693
      6691      6689      6688      6697      6691      6689      6688      6701
      6692      6689      6688      6693      6692      6689      6688      6697
      6692      6689      6688      6701      6693      6688      6697      6698
      6693      6688      6697      6699      6693      6688      6697      6700
      6693      6688      6701      6702      6693      6688      6701      6703
      6693      6688      6701      6704      6694      6693      6688      6697
      6694      6693      6688      6701      6695      6693      6688      6697
      6695      6693      6688      6701      6696      6693      6688      6697
      6696      6693      6688      6701      6697      6688      6701      6702
      6697      6688      6701      6703      6697      6688      6701      6704
      6698      6697      6688      6701      6699      6697      6688      6701
      6700      6697      6688      6701      6701      6704      6711      6707
      6702      6701      6704      6705      6702      6701      6704      6706
      6702      6701      6704      6711      6703      6701      6704      6705
      6703      6701      6704      6706      6703      6701      6704      6711
      6704      6711      6707      6708      6704      6711      6707      6709
      6704      6711      6707      6710      6705      6704      6711      6707
      6706      6704      6711      6707      6707      6710      6712      6713
      6707      6710      6712      6714      6707      6710      6712      6717
      6708      6707      6710      6712      6709      6707      6710      6712
      6710      6712      6717      6715      6710      6712      6717      6718
      6710      6712      6717      6719      6711      6707      6710      6712
      6712      6717      6715      6716      6712      6717      6715      6767
      6712      6717      6719      6720      6712      6717      6719      6721
      6712      6717      6719      6723      6713      6712      6717      6715
      6713      6712      6717      6718      6713      6712      6717      6719
      6714      6712      6717      6715      6714      6712      6717      6718
      6714      6712      6717      6719      6715      6717      6719      6720
      6715      6717      6719      6721      6715      6717      6719      6723
      6715      6767      6769      6770      6715      6767      6769      6771
      6715      6767      6769      6772      6716      6715      6717      6718
      6716      6715      6717      6719      6716      6715      6767      6768
      6716      6715      6767      6769      6717      6715      6767      6768
      6717      6715      6767      6769      6717      6719      6721      6722
      6717      6719      6723      6724      6717      6719      6723      6725
      6718      6717      6715      6767      6718      6717      6719      6720
      6718      6717      6719      6721      6718      6717      6719      6723
      6719      6717      6715      6767      6719      6723      6725      6726
      6719      6723      6725      6727      6720      6719      6721      6722
      6720      6719      6723      6724      6720      6719      6723      6725
      6721      6719      6723      6724      6721      6719      6723      6725
      6722      6721      6719      6723      6723      6725      6727      6728
      6723      6725      6727      6729      6723      6725      6727      6730
      6724      6723      6725      6726      6724      6723      6725      6727
      6725      6727      6730      6731      6725      6727      6730      6732
      6725      6727      6730      6733      6726      6725      6727      6728
      6726      6725      6727      6729      6726      6725      6727      6730
      6727      6730      6733      6734      6727      6730      6733      6735
      6727      6730      6733      6736      6728      6727      6730      6731
      6728      6727      6730      6732      6728      6727      6730      6733
      6729      6727      6730      6731      6729      6727      6730      6732
      6729      6727      6730      6733      6730      6733      6736      6737
      6730      6733      6736      6738      6730      6733      6736      6739
      6731      6730      6733      6734      6731      6730      6733      6735
      6731      6730      6733      6736      6732      6730      6733      6734
      6732      6730      6733      6735      6732      6730      6733      6736
      6733      6736      6739      6740      6733      6736      6739      6741
      6733      6736      6739      6742      6734      6733      6736      6737
      6734      6733      6736      6738      6734      6733      6736      6739
      6735      6733      6736      6737      6735      6733      6736      6738
      6735      6733      6736      6739      6736      6739      6742      6743
      6736      6739      6742      6744      6736      6739      6742      6745
      6737      6736      6739      6740      6737      6736      6739      6741
      6737      6736      6739      6742      6738      6736      6739      6740
      6738      6736      6739      6741      6738      6736      6739      6742
      6739      6742      6745      6746      6739      6742      6745      6747
      6739      6742      6745      6748      6740      6739      6742      6743
      6740      6739      6742      6744      6740      6739      6742      6745
      6741      6739      6742      6743      6741      6739      6742      6744
      6741      6739      6742      6745      6742      6745      6748      6749
      6742      6745      6748      6750      6742      6745      6748      6751
      6743      6742      6745      6746      6743      6742      6745      6747
      6743      6742      6745      6748      6744      6742      6745      6746
      6744      6742      6745      6747      6744      6742      6745      6748
      6745      6748      6751      6752      6745      6748      6751      6753
      6745      6748      6751      6754      6746      6745      6748      6749
      6746      6745      6748      6750      6746      6745      6748      6751
      6747      6745      6748      6749      6747      6745      6748      6750
      6747      6745      6748      6751      6748      6751      6754      6755
      6748      6751      6754      6756      6748      6751      6754      6757
      6749      6748      6751      6752      6749      6748      6751      6753
      6749      6748      6751      6754      6750      6748      6751      6752
      6750      6748      6751      6753      6750      6748      6751      6754
      6751      6754      6757      6758      6751      6754      6757      6759
      6751      6754      6757      6760      6752      6751      6754      6755
      6752      6751      6754      6756      6752      6751      6754      6757
      6753      6751      6754      6755      6753      6751      6754      6756
      6753      6751      6754      6757      6754      6757      6760      6761
      6754      6757      6760      6762      6754      6757      6760      6763
      6755      6754      6757      6758      6755      6754      6757      6759
      6755      6754      6757      6760      6756      6754      6757      6758
      6756      6754      6757      6759      6756      6754      6757      6760
      6757      6760      6763      6764      6757      6760      6763      6765
      6757      6760      6763      6766      6758      6757      6760      6761
      6758      6757      6760      6762      6758      6757      6760      6763
      6759      6757      6760      6761      6759      6757      6760      6762
      6759      6757      6760      6763      6761      6760      6763      6764
      6761      6760      6763      6765      6761      6760      6763      6766
      6762      6760      6763      6764      6762      6760      6763      6765
      6762      6760      6763      6766      6767      6769      6772      6773
      6767      6769      6772      6774      6767      6769      6772      6775
      6768      6767      6769      6770      6768      6767      6769      6771
      6768      6767      6769      6772      6769      6772      6775      6776
      6769      6772      6775      6777      6769      6772      6775      6778
      6770      6769      6772      6773      6770      6769      6772      6774
      6770      6769      6772      6775      6771      6769      6772      6773
      6771      6769      6772      6774      6771      6769      6772      6775
      6772      6775      6778      6779      6772      6775      6778      6780
      6772      6775      6778      6781      6773      6772      6775      6776
      6773      6772      6775      6777      6773      6772      6775      6778
      6774      6772      6775      6776      6774      6772      6775      6777
      6774      6772      6775      6778      6775      6778      6781      6782
      6775      6778      6781      6783      6775      6778      6781      6784
      6776      6775      6778      6779      6776      6775      6778      6780
      6776      6775      6778      6781      6777      6775      6778      6779
      6777      6775      6778      6780      6777      6775      6778      6781
      6778      6781      6784      6785      6778      6781      6784      6786
      6778      6781      6784      6787      6779      6778      6781      6782
      6779      6778      6781      6783      6779      6778      6781      6784
      6780      6778      6781      6782      6780      6778      6781      6783
      6780      6778      6781      6784      6781      6784      6787      6788
      6781      6784      6787      6789      6781      6784      6787      6790
      6782      6781      6784      6785      6782      6781      6784      6786
      6782      6781      6784      6787      6783      6781      6784      6785
      6783      6781      6784      6786      6783      6781      6784      6787
      6784      6787      6790      6791      6784      6787      6790      6792
      6784      6787      6790      6793      6785      6784      6787      6788
      6785      6784      6787      6789      6785      6784      6787      6790
      6786      6784      6787      6788      6786      6784      6787      6789
      6786      6784      6787      6790      6787      6790      6793      6794
      6787      6790      6793      6795      6787      6790      6793      6796
      6788      6787      6790      6791      6788      6787      6790      6792
      6788      6787      6790      6793      6789      6787      6790      6791
      6789      6787      6790      6792      6789      6787      6790      6793
      6790      6793      6796      6797      6790      6793      6796      6798
      6790      6793      6796      6799      6791      6790      6793      6794
      6791      6790      6793      6795      6791      6790      6793      6796
      6792      6790      6793      6794      6792      6790      6793      6795
      6792      6790      6793      6796      6793      6796      6799      6800
      6793      6796      6799      6801      6793      6796      6799      6802
      6794      6793      6796      6797      6794      6793      6796      6798
      6794      6793      6796      6799      6795      6793      6796      6797
      6795      6793      6796      6798      6795      6793      6796      6799
      6796      6799      6802      6803      6796      6799      6802      6804
      6796      6799      6802      6805      6797      6796      6799      6800
      6797      6796      6799      6801      6797      6796      6799      6802
      6798      6796      6799      6800      6798      6796      6799      6801
      6798      6796      6799      6802      6799      6802      6805      6806
      6799      6802      6805      6807      6799      6802      6805      6808
      6800      6799      6802      6803      6800      6799      6802      6804
      6800      6799      6802      6805      6801      6799      6802      6803
      6801      6799      6802      6804      6801      6799      6802      6805
      6802      6805      6808      6809      6802      6805      6808      6810
      6802      6805      6808      6811      6803      6802      6805      6806
      6803      6802      6805      6807      6803      6802      6805      6808
      6804      6802      6805      6806      6804      6802      6805      6807
      6804      6802      6805      6808      6805      6808      6811      6812
      6805      6808      6811      6813      6805      6808      6811      6814
      6806      6805      6808      6809      6806      6805      6808      6810
      6806      6805      6808      6811      6807      6805      6808      6809
      6807      6805      6808      6810      6807      6805      6808      6811
      6809      6808      6811      6812      6809      6808      6811      6813
      6809      6808      6811      6814      6810      6808      6811      6812
      6810      6808      6811      6813      6810      6808      6811      6814
      6815      6819      6822      6823      6815      6819      6822      6853
      6815      6861      6858      6853      6815      6861      6858      6859
      6815      6861      6858      6860      6816      6815      6817      6818
      6816      6815      6819      6820      6816      6815      6819      6821
      6816      6815      6819      6822      6816      6815      6861      6858
      6816      6815      6861      6862      6816      6815      6861      6863
      6817      6815      6819      6820      6817      6815      6819      6821
      6817      6815      6819      6822      6817      6815      6861      6858
      6817      6815      6861      6862      6817      6815      6861      6863
      6818      6817      6815      6819      6818      6817      6815      6861
      6819      6815      6861      6858      6819      6815      6861      6862
      6819      6815      6861      6863      6819      6822      6823      6824
      6819      6822      6823      6825      6819      6822      6853      6851
      6819      6822      6853      6854      6819      6822      6853      6858
      6820      6819      6815      6861      6820      6819      6822      6823
      6820      6819      6822      6853      6821      6819      6815      6861
      6821      6819      6822      6823      6821      6819      6822      6853
      6822      6819      6815      6861      6822      6823      6825      6826
      6822      6823      6825      6827      6822      6823      6825      6828
      6822      6853      6851      6828      6822      6853      6851      6848
      6822      6853      6851      6852      6822      6853      6854      6855
      6822      6853      6854      6856      6822      6853      6854      6857
      6822      6853      6858      6859      6822      6853      6858      6860
      6822      6853      6858      6861      6823      6822      6853      6851
      6823      6822      6853      6854      6823      6822      6853      6858
      6823      6825      6828      6829      6823      6825      6828      6830
      6823      6825      6828      6851      6824      6823      6822      6853
      6824      6823      6825      6826      6824      6823      6825      6827
      6824      6823      6825      6828      6825      6823      6822      6853
      6825      6828      6830      6831      6825      6828      6830      6832
      6825      6828      6830      6840      6825      6828      6851      6848
      6825      6828      6851      6852      6825      6828      6851      6853
      6826      6825      6828      6829      6826      6825      6828      6830
      6826      6825      6828      6851      6827      6825      6828      6829
      6827      6825      6828      6830      6827      6825      6828      6851
      6828      6830      6832      6833      6828      6830      6832      6834
      6828      6830      6832      6835      6828      6830      6840      6838
      6828      6830      6840      6841      6828      6830      6840      6845
      6828      6851      6848      6845      6828      6851      6848      6849
      6828      6851      6848      6850      6828      6851      6853      6854
      6828      6851      6853      6858      6829      6828      6830      6831
      6829      6828      6830      6832      6829      6828      6830      6840
      6829      6828      6851      6848      6829      6828      6851      6852
      6829      6828      6851      6853      6830      6828      6851      6848
      6830      6828      6851      6852      6830      6828      6851      6853
      6830      6832      6835      6836      6830      6832      6835      6837
      6830      6832      6835      6838      6830      6840      6838      6835
      6830      6840      6838      6839      6830      6840      6838      6864
      6830      6840      6841      6842      6830      6840      6841      6843
      6830      6840      6841      6844      6830      6840      6845      6846
      6830      6840      6845      6847      6830      6840      6845      6848
      6831      6830      6828      6851      6831      6830      6832      6833
      6831      6830      6832      6834      6831      6830      6832      6835
      6831      6830      6840      6838      6831      6830      6840      6841
      6831      6830      6840      6845      6832      6830      6828      6851
      6832      6830      6840      6838      6832      6830      6840      6841
      6832      6830      6840      6845      6832      6835      6838      6839
      6832      6835      6838      6840      6832      6835      6838      6864
      6833      6832      6830      6840      6833      6832      6835      6836
      6833      6832      6835      6837      6833      6832      6835      6838
      6834      6832      6830      6840      6834      6832      6835      6836
      6834      6832      6835      6837      6834      6832      6835      6838
      6835      6832      6830      6840      6835      6838      6840      6841
      6835      6838      6840      6845      6835      6838      6864      6865
      6835      6838      6864      6866      6835      6838      6864      6870
      6836      6835      6838      6839      6836      6835      6838      6840
      6836      6835      6838      6864      6837      6835      6838      6839
      6837      6835      6838      6840      6837      6835      6838      6864
      6838      6840      6841      6842      6838      6840      6841      6843
      6838      6840      6841      6844      6838      6840      6845      6846
      6838      6840      6845      6847      6838      6840      6845      6848
      6838      6864      6866      6867      6838      6864      6866      6868
      6838      6864      6866      6869      6838      6864      6870      6871
      6838      6864      6870      6872      6838      6864      6870      6873
      6839      6838      6840      6841      6839      6838      6840      6845
      6839      6838      6864      6865      6839      6838      6864      6866
      6839      6838      6864      6870      6840      6830      6828      6851
      6840      6838      6864      6865      6840      6838      6864      6866
      6840      6838      6864      6870      6840      6845      6848      6849
      6840      6845      6848      6850      6840      6845      6848      6851
      6841      6840      6838      6864      6841      6840      6845      6846
      6841      6840      6845      6847      6841      6840      6845      6848
      6842      6841      6840      6845      6843      6841      6840      6845
      6844      6841      6840      6845      6845      6840      6838      6864
      6845      6848      6851      6852      6845      6848      6851      6853
      6846      6845      6848      6849      6846      6845      6848      6850
      6846      6845      6848      6851      6847      6845      6848      6849
      6847      6845      6848      6850      6847      6845      6848      6851
      6848      6851      6853      6854      6848      6851      6853      6858
      6849      6848      6851      6852      6849      6848      6851      6853
      6850      6848      6851      6852      6850      6848      6851      6853
      6851      6853      6854      6855      6851      6853      6854      6856
      6851      6853      6854      6857      6851      6853      6858      6859
      6851      6853      6858      6860      6851      6853      6858      6861
      6852      6851      6853      6854      6852      6851      6853      6858
      6853      6858      6861      6862      6853      6858      6861      6863
      6854      6853      6858      6859      6854      6853      6858      6860
      6854      6853      6858      6861      6855      6854      6853      6858
      6856      6854      6853      6858      6857      6854      6853      6858
      6859      6858      6861      6862      6859      6858      6861      6863
      6860      6858      6861      6862      6860      6858      6861      6863
      6864      6870      6873      6874      6864      6870      6873      6875
      6864      6870      6873      6876      6865      6864      6866      6867
      6865      6864      6866      6868      6865      6864      6866      6869
      6865      6864      6870      6871      6865      6864      6870      6872
      6865      6864      6870      6873      6866      6864      6870      6871
      6866      6864      6870      6872      6866      6864      6870      6873
      6867      6866      6864      6870      6868      6866      6864      6870
      6869      6866      6864      6870      6870      6873      6876      6877
      6870      6873      6876      6878      6870      6873      6876      6879
      6871      6870      6873      6874      6871      6870      6873      6875
      6871      6870      6873      6876      6872      6870      6873      6874
      6872      6870      6873      6875      6872      6870      6873      6876
      6873      6876      6879      6880      6873      6876      6879      6881
      6873      6876      6879      6885      6874      6873      6876      6877
      6874      6873      6876      6878      6874      6873      6876      6879
      6875      6873      6876      6877      6875      6873      6876      6878
      6875      6873      6876      6879      6876      6879      6881      6882
      6876      6879      6881      6883      6876      6879      6881      6884
      6876      6879      6885      6886      6876      6879      6885      6887
      6876      6879      6885      6888      6877      6876      6879      6880
      6877      6876      6879      6881      6877      6876      6879      6885
      6878      6876      6879      6880      6878      6876      6879      6881
      6878      6876      6879      6885      6880      6879      6881      6882
      6880      6879      6881      6883      6880      6879      6881      6884
      6880      6879      6885      6886      6880      6879      6885      6887
      6880      6879      6885      6888      6881      6879      6885      6886
      6881      6879      6885      6887      6881      6879      6885      6888
      6882      6881      6879      6885      6883      6881      6879      6885
      6884      6881      6879      6885      6889      6893      6896      6897
      6889      6893      6896      6927      6889      6935      6932      6927
      6889      6935      6932      6933      6889      6935      6932      6934
      6890      6889      6891      6892      6890      6889      6893      6894
      6890      6889      6893      6895      6890      6889      6893      6896
      6890      6889      6935      6932      6890      6889      6935      6936
      6890      6889      6935      6937      6891      6889      6893      6894
      6891      6889      6893      6895      6891      6889      6893      6896
      6891      6889      6935      6932      6891      6889      6935      6936
      6891      6889      6935      6937      6892      6891      6889      6893
      6892      6891      6889      6935      6893      6889      6935      6932
      6893      6889      6935      6936      6893      6889      6935      6937
      6893      6896      6897      6898      6893      6896      6897      6899
      6893      6896      6927      6925      6893      6896      6927      6928
      6893      6896      6927      6932      6894      6893      6889      6935
      6894      6893      6896      6897      6894      6893      6896      6927
      6895      6893      6889      6935      6895      6893      6896      6897
      6895      6893      6896      6927      6896      6893      6889      6935
      6896      6897      6899      6900      6896      6897      6899      6901
      6896      6897      6899      6902      6896      6927      6925      6902
      6896      6927      6925      6922      6896      6927      6925      6926
      6896      6927      6928      6929      6896      6927      6928      6930
      6896      6927      6928      6931      6896      6927      6932      6933
      6896      6927      6932      6934      6896      6927      6932      6935
      6897      6896      6927      6925      6897      6896      6927      6928
      6897      6896      6927      6932      6897      6899      6902      6903
      6897      6899      6902      6904      6897      6899      6902      6925
      6898      6897      6896      6927      6898      6897      6899      6900
      6898      6897      6899      6901      6898      6897      6899      6902
      6899      6897      6896      6927      6899      6902      6904      6905
      6899      6902      6904      6906      6899      6902      6904      6914
      6899      6902      6925      6922      6899      6902      6925      6926
      6899      6902      6925      6927      6900      6899      6902      6903
      6900      6899      6902      6904      6900      6899      6902      6925
      6901      6899      6902      6903      6901      6899      6902      6904
      6901      6899      6902      6925      6902      6904      6906      6907
      6902      6904      6906      6908      6902      6904      6906      6909
      6902      6904      6914      6912      6902      6904      6914      6915
      6902      6904      6914      6919      6902      6925      6922      6919
      6902      6925      6922      6923      6902      6925      6922      6924
      6902      6925      6927      6928      6902      6925      6927      6932
      6903      6902      6904      6905      6903      6902      6904      6906
      6903      6902      6904      6914      6903      6902      6925      6922
      6903      6902      6925      6926      6903      6902      6925      6927
      6904      6902      6925      6922      6904      6902      6925      6926
      6904      6902      6925      6927      6904      6906      6909      6910
      6904      6906      6909      6911      6904      6906      6909      6912
      6904      6914      6912      6909      6904      6914      6912      6913
      6904      6914      6912      6938      6904      6914      6915      6916
      6904      6914      6915      6917      6904      6914      6915      6918
      6904      6914      6919      6920      6904      6914      6919      6921
      6904      6914      6919      6922      6905      6904      6902      6925
      6905      6904      6906      6907      6905      6904      6906      6908
      6905      6904      6906      6909      6905      6904      6914      6912
      6905      6904      6914      6915      6905      6904      6914      6919
      6906      6904      6902      6925      6906      6904      6914      6912
      6906      6904      6914      6915      6906      6904      6914      6919
      6906      6909      6912      6913      6906      6909      6912      6914
      6906      6909      6912      6938      6907      6906      6904      6914
      6907      6906      6909      6910      6907      6906      6909      6911
      6907      6906      6909      6912      6908      6906      6904      6914
      6908      6906      6909      6910      6908      6906      6909      6911
      6908      6906      6909      6912      6909      6906      6904      6914
      6909      6912      6914      6915      6909      6912      6914      6919
      6909      6912      6938      6939      6909      6912      6938      6940
      6909      6912      6938      6944      6910      6909      6912      6913
      6910      6909      6912      6914      6910      6909      6912      6938
      6911      6909      6912      6913      6911      6909      6912      6914
      6911      6909      6912      6938      6912      6914      6915      6916
      6912      6914      6915      6917      6912      6914      6915      6918
      6912      6914      6919      6920      6912      6914      6919      6921
      6912      6914      6919      6922      6912      6938      6940      6941
      6912      6938      6940      6942      6912      6938      6940      6943
      6912      6938      6944      6945      6912      6938      6944      6946
      6912      6938      6944      6947      6913      6912      6914      6915
      6913      6912      6914      6919      6913      6912      6938      6939
      6913      6912      6938      6940      6913      6912      6938      6944
      6914      6904      6902      6925      6914      6912      6938      6939
      6914      6912      6938      6940      6914      6912      6938      6944
      6914      6919      6922      6923      6914      6919      6922      6924
      6914      6919      6922      6925      6915      6914      6912      6938
      6915      6914      6919      6920      6915      6914      6919      6921
      6915      6914      6919      6922      6916      6915      6914      6919
      6917      6915      6914      6919      6918      6915      6914      6919
      6919      6914      6912      6938      6919      6922      6925      6926
      6919      6922      6925      6927      6920      6919      6922      6923
      6920      6919      6922      6924      6920      6919      6922      6925
      6921      6919      6922      6923      6921      6919      6922      6924
      6921      6919      6922      6925      6922      6925      6927      6928
      6922      6925      6927      6932      6923      6922      6925      6926
      6923      6922      6925      6927      6924      6922      6925      6926
      6924      6922      6925      6927      6925      6927      6928      6929
      6925      6927      6928      6930      6925      6927      6928      6931
      6925      6927      6932      6933      6925      6927      6932      6934
      6925      6927      6932      6935      6926      6925      6927      6928
      6926      6925      6927      6932      6927      6932      6935      6936
      6927      6932      6935      6937      6928      6927      6932      6933
      6928      6927      6932      6934      6928      6927      6932      6935
      6929      6928      6927      6932      6930      6928      6927      6932
      6931      6928      6927      6932      6933      6932      6935      6936
      6933      6932      6935      6937      6934      6932      6935      6936
      6934      6932      6935      6937      6938      6944      6947      6948
      6938      6944      6947      6949      6938      6944      6947      6950
      6939      6938      6940      6941      6939      6938      6940      6942
      6939      6938      6940      6943      6939      6938      6944      6945
      6939      6938      6944      6946      6939      6938      6944      6947
      6940      6938      6944      6945      6940      6938      6944      6946
      6940      6938      6944      6947      6941      6940      6938      6944
      6942      6940      6938      6944      6943      6940      6938      6944
      6944      6947      6950      6951      6944      6947      6950      6952
      6944      6947      6950      6953      6945      6944      6947      6948
      6945      6944      6947      6949      6945      6944      6947      6950
      6946      6944      6947      6948      6946      6944      6947      6949
      6946      6944      6947      6950      6947      6950      6953      6954
      6947      6950      6953      6955      6947      6950      6953      6959
      6948      6947      6950      6951      6948      6947      6950      6952
      6948      6947      6950      6953      6949      6947      6950      6951
      6949      6947      6950      6952      6949      6947      6950      6953
      6950      6953      6955      6956      6950      6953      6955      6957
      6950      6953      6955      6958      6950      6953      6959      6960
      6950      6953      6959      6961      6950      6953      6959      6962
      6951      6950      6953      6954      6951      6950      6953      6955
      6951      6950      6953      6959      6952      6950      6953      6954
      6952      6950      6953      6955      6952      6950      6953      6959
      6954      6953      6955      6956      6954      6953      6955      6957
      6954      6953      6955      6958      6954      6953      6959      6960
      6954      6953      6959      6961      6954      6953      6959      6962
      6955      6953      6959      6960      6955      6953      6959      6961
      6955      6953      6959      6962      6956      6955      6953      6959
      6957      6955      6953      6959      6958      6955      6953      6959
      6963      6967      6970      6971      6963      6967      6970      7001
      6963      7009      7006      7001      6963      7009      7006      7007
      6963      7009      7006      7008      6964      6963      6965      6966
      6964      6963      6967      6968      6964      6963      6967      6969
      6964      6963      6967      6970      6964      6963      7009      7006
      6964      6963      7009      7010      6964      6963      7009      7011
      6965      6963      6967      6968      6965      6963      6967      6969
      6965      6963      6967      6970      6965      6963      7009      7006
      6965      6963      7009      7010      6965      6963      7009      7011
      6966      6965      6963      6967      6966      6965      6963      7009
      6967      6963      7009      7006      6967      6963      7009      7010
      6967      6963      7009      7011      6967      6970      6971      6972
      6967      6970      6971      6973      6967      6970      7001      6999
      6967      6970      7001      7002      6967      6970      7001      7006
      6968      6967      6963      7009      6968      6967      6970      6971
      6968      6967      6970      7001      6969      6967      6963      7009
      6969      6967      6970      6971      6969      6967      6970      7001
      6970      6967      6963      7009      6970      6971      6973      6974
      6970      6971      6973      6975      6970      6971      6973      6976
      6970      7001      6999      6976      6970      7001      6999      6996
      6970      7001      6999      7000      6970      7001      7002      7003
      6970      7001      7002      7004      6970      7001      7002      7005
      6970      7001      7006      7007      6970      7001      7006      7008
      6970      7001      7006      7009      6971      6970      7001      6999
      6971      6970      7001      7002      6971      6970      7001      7006
      6971      6973      6976      6977      6971      6973      6976      6978
      6971      6973      6976      6999      6972      6971      6970      7001
      6972      6971      6973      6974      6972      6971      6973      6975
      6972      6971      6973      6976      6973      6971      6970      7001
      6973      6976      6978      6979      6973      6976      6978      6980
      6973      6976      6978      6988      6973      6976      6999      6996
      6973      6976      6999      7000      6973      6976      6999      7001
      6974      6973      6976      6977      6974      6973      6976      6978
      6974      6973      6976      6999      6975      6973      6976      6977
      6975      6973      6976      6978      6975      6973      6976      6999
      6976      6978      6980      6981      6976      6978      6980      6982
      6976      6978      6980      6983      6976      6978      6988      6986
      6976      6978      6988      6989      6976      6978      6988      6993
      6976      6999      6996      6993      6976      6999      6996      6997
      6976      6999      6996      6998      6976      6999      7001      7002
      6976      6999      7001      7006      6977      6976      6978      6979
      6977      6976      6978      6980      6977      6976      6978      6988
      6977      6976      6999      6996      6977      6976      6999      7000
      6977      6976      6999      7001      6978      6976      6999      6996
      6978      6976      6999      7000      6978      6976      6999      7001
      6978      6980      6983      6984      6978      6980      6983      6985
      6978      6980      6983      6986      6978      6988      6986      6983
      6978      6988      6986      6987      6978      6988      6986      7012
      6978      6988      6989      6990      6978      6988      6989      6991
      6978      6988      6989      6992      6978      6988      6993      6994
      6978      6988      6993      6995      6978      6988      6993      6996
      6979      6978      6976      6999      6979      6978      6980      6981
      6979      6978      6980      6982      6979      6978      6980      6983
      6979      6978      6988      6986      6979      6978      6988      6989
      6979      6978      6988      6993      6980      6978      6976      6999
      6980      6978      6988      6986      6980      6978      6988      6989
      6980      6978      6988      6993      6980      6983      6986      6987
      6980      6983      6986      6988      6980      6983      6986      7012
      6981      6980      6978      6988      6981      6980      6983      6984
      6981      6980      6983      6985      6981      6980      6983      6986
      6982      6980      6978      6988      6982      6980      6983      6984
      6982      6980      6983      6985      6982      6980      6983      6986
      6983      6980      6978      6988      6983      6986      6988      6989
      6983      6986      6988      6993      6983      6986      7012      7013
      6983      6986      7012      7014      6983      6986      7012      7018
      6984      6983      6986      6987      6984      6983      6986      6988
      6984      6983      6986      7012      6985      6983      6986      6987
      6985      6983      6986      6988      6985      6983      6986      7012
      6986      6988      6989      6990      6986      6988      6989      6991
      6986      6988      6989      6992      6986      6988      6993      6994
      6986      6988      6993      6995      6986      6988      6993      6996
      6986      7012      7014      7015      6986      7012      7014      7016
      6986      7012      7014      7017      6986      7012      7018      7019
      6986      7012      7018      7020      6986      7012      7018      7021
      6987      6986      6988      6989      6987      6986      6988      6993
      6987      6986      7012      7013      6987      6986      7012      7014
      6987      6986      7012      7018      6988      6978      6976      6999
      6988      6986      7012      7013      6988      6986      7012      7014
      6988      6986      7012      7018      6988      6993      6996      6997
      6988      6993      6996      6998      6988      6993      6996      6999
      6989      6988      6986      7012      6989      6988      6993      6994
      6989      6988      6993      6995      6989      6988      6993      6996
      6990      6989      6988      6993      6991      6989      6988      6993
      6992      6989      6988      6993      6993      6988      6986      7012
      6993      6996      6999      7000      6993      6996      6999      7001
      6994      6993      6996      6997      6994      6993      6996      6998
      6994      6993      6996      6999      6995      6993      6996      6997
      6995      6993      6996      6998      6995      6993      6996      6999
      6996      6999      7001      7002      6996      6999      7001      7006
      6997      6996      6999      7000      6997      6996      6999      7001
      6998      6996      6999      7000      6998      6996      6999      7001
      6999      7001      7002      7003      6999      7001      7002      7004
      6999      7001      7002      7005      6999      7001      7006      7007
      6999      7001      7006      7008      6999      7001      7006      7009
      7000      6999      7001      7002      7000      6999      7001      7006
      7001      7006      7009      7010      7001      7006      7009      7011
      7002      7001      7006      7007      7002      7001      7006      7008
      7002      7001      7006      7009      7003      7002      7001      7006
      7004      7002      7001      7006      7005      7002      7001      7006
      7007      7006      7009      7010      7007      7006      7009      7011
      7008      7006      7009      7010      7008      7006      7009      7011
      7012      7018      7021      7022      7012      7018      7021      7023
      7012      7018      7021      7024      7013      7012      7014      7015
      7013      7012      7014      7016      7013      7012      7014      7017
      7013      7012      7018      7019      7013      7012      7018      7020
      7013      7012      7018      7021      7014      7012      7018      7019
      7014      7012      7018      7020      7014      7012      7018      7021
      7015      7014      7012      7018      7016      7014      7012      7018
      7017      7014      7012      7018      7018      7021      7024      7025
      7018      7021      7024      7026      7018      7021      7024      7027
      7019      7018      7021      7022      7019      7018      7021      7023
      7019      7018      7021      7024      7020      7018      7021      7022
      7020      7018      7021      7023      7020      7018      7021      7024
      7021      7024      7027      7028      7021      7024      7027      7029
      7021      7024      7027      7033      7022      7021      7024      7025
      7022      7021      7024      7026      7022      7021      7024      7027
      7023      7021      7024      7025      7023      7021      7024      7026
      7023      7021      7024      7027      7024      7027      7029      7030
      7024      7027      7029      7031      7024      7027      7029      7032
      7024      7027      7033      7034      7024      7027      7033      7035
      7024      7027      7033      7036      7025      7024      7027      7028
      7025      7024      7027      7029      7025      7024      7027      7033
      7026      7024      7027      7028      7026      7024      7027      7029
      7026      7024      7027      7033      7028      7027      7029      7030
      7028      7027      7029      7031      7028      7027      7029      7032
      7028      7027      7033      7034      7028      7027      7033      7035
      7028      7027      7033      7036      7029      7027      7033      7034
      7029      7027      7033      7035      7029      7027      7033      7036
      7030      7029      7027      7033      7031      7029      7027      7033
      7032      7029      7027      7033      7037      7041      7044      7045
      7037      7041      7044      7075      7037      7083      7080      7075
      7037      7083      7080      7081      7037      7083      7080      7082
      7038      7037      7039      7040      7038      7037      7041      7042
      7038      7037      7041      7043      7038      7037      7041      7044
      7038      7037      7083      7080      7038      7037      7083      7084
      7038      7037      7083      7085      7039      7037      7041      7042
      7039      7037      7041      7043      7039      7037      7041      7044
      7039      7037      7083      7080      7039      7037      7083      7084
      7039      7037      7083      7085      7040      7039      7037      7041
      7040      7039      7037      7083      7041      7037      7083      7080
      7041      7037      7083      7084      7041      7037      7083      7085
      7041      7044      7045      7046      7041      7044      7045      7047
      7041      7044      7075      7073      7041      7044      7075      7076
      7041      7044      7075      7080      7042      7041      7037      7083
      7042      7041      7044      7045      7042      7041      7044      7075
      7043      7041      7037      7083      7043      7041      7044      7045
      7043      7041      7044      7075      7044      7041      7037      7083
      7044      7045      7047      7048      7044      7045      7047      7049
      7044      7045      7047      7050      7044      7075      7073      7050
      7044      7075      7073      7070      7044      7075      7073      7074
      7044      7075      7076      7077      7044      7075      7076      7078
      7044      7075      7076      7079      7044      7075      7080      7081
      7044      7075      7080      7082      7044      7075      7080      7083
      7045      7044      7075      7073      7045      7044      7075      7076
      7045      7044      7075      7080      7045      7047      7050      7051
      7045      7047      7050      7052      7045      7047      7050      7073
      7046      7045      7044      7075      7046      7045      7047      7048
      7046      7045      7047      7049      7046      7045      7047      7050
      7047      7045      7044      7075      7047      7050      7052      7053
      7047      7050      7052      7054      7047      7050      7052      7062
      7047      7050      7073      7070      7047      7050      7073      7074
      7047      7050      7073      7075      7048      7047      7050      7051
      7048      7047      7050      7052      7048      7047      7050      7073
      7049      7047      7050      7051      7049      7047      7050      7052
      7049      7047      7050      7073      7050      7052      7054      7055
      7050      7052      7054      7056      7050      7052      7054      7057
      7050      7052      7062      7060      7050      7052      7062      7063
      7050      7052      7062      7067      7050      7073      7070      7067
      7050      7073      7070      7071      7050      7073      7070      7072
      7050      7073      7075      7076      7050      7073      7075      7080
      7051      7050      7052      7053      7051      7050      7052      7054
      7051      7050      7052      7062      7051      7050      7073      7070
      7051      7050      7073      7074      7051      7050      7073      7075
      7052      7050      7073      7070      7052      7050      7073      7074
      7052      7050      7073      7075      7052      7054      7057      7058
      7052      7054      7057      7059      7052      7054      7057      7060
      7052      7062      7060      7057      7052      7062      7060      7061
      7052      7062      7060      7086      7052      7062      7063      7064
      7052      7062      7063      7065      7052      7062      7063      7066
      7052      7062      7067      7068      7052      7062      7067      7069
      7052      7062      7067      7070      7053      7052      7050      7073
      7053      7052      7054      7055      7053      7052      7054      7056
      7053      7052      7054      7057      7053      7052      7062      7060
      7053      7052      7062      7063      7053      7052      7062      7067
      7054      7052      7050      7073      7054      7052      7062      7060
      7054      7052      7062      7063      7054      7052      7062      7067
      7054      7057      7060      7061      7054      7057      7060      7062
      7054      7057      7060      7086      7055      7054      7052      7062
      7055      7054      7057      7058      7055      7054      7057      7059
      7055      7054      7057      7060      7056      7054      7052      7062
      7056      7054      7057      7058      7056      7054      7057      7059
      7056      7054      7057      7060      7057      7054      7052      7062
      7057      7060      7062      7063      7057      7060      7062      7067
      7057      7060      7086      7087      7057      7060      7086      7088
      7057      7060      7086      7092      7058      7057      7060      7061
      7058      7057      7060      7062      7058      7057      7060      7086
      7059      7057      7060      7061      7059      7057      7060      7062
      7059      7057      7060      7086      7060      7062      7063      7064
      7060      7062      7063      7065      7060      7062      7063      7066
      7060      7062      7067      7068      7060      7062      7067      7069
      7060      7062      7067      7070      7060      7086      7088      7089
      7060      7086      7088      7090      7060      7086      7088      7091
      7060      7086      7092      7093      7060      7086      7092      7094
      7060      7086      7092      7095      7061      7060      7062      7063
      7061      7060      7062      7067      7061      7060      7086      7087
      7061      7060      7086      7088      7061      7060      7086      7092
      7062      7052      7050      7073      7062      7060      7086      7087
      7062      7060      7086      7088      7062      7060      7086      7092
      7062      7067      7070      7071      7062      7067      7070      7072
      7062      7067      7070      7073      7063      7062      7060      7086
      7063      7062      7067      7068      7063      7062      7067      7069
      7063      7062      7067      7070      7064      7063      7062      7067
      7065      7063      7062      7067      7066      7063      7062      7067
      7067      7062      7060      7086      7067      7070      7073      7074
      7067      7070      7073      7075      7068      7067      7070      7071
      7068      7067      7070      7072      7068      7067      7070      7073
      7069      7067      7070      7071      7069      7067      7070      7072
      7069      7067      7070      7073      7070      7073      7075      7076
      7070      7073      7075      7080      7071      7070      7073      7074
      7071      7070      7073      7075      7072      7070      7073      7074
      7072      7070      7073      7075      7073      7075      7076      7077
      7073      7075      7076      7078      7073      7075      7076      7079
      7073      7075      7080      7081      7073      7075      7080      7082
      7073      7075      7080      7083      7074      7073      7075      7076
      7074      7073      7075      7080      7075      7080      7083      7084
      7075      7080      7083      7085      7076      7075      7080      7081
      7076      7075      7080      7082      7076      7075      7080      7083
      7077      7076      7075      7080      7078      7076      7075      7080
      7079      7076      7075      7080      7081      7080      7083      7084
      7081      7080      7083      7085      7082      7080      7083      7084
      7082      7080      7083      7085      7086      7092      7095      7096
      7086      7092      7095      7097      7086      7092      7095      7098
      7087      7086      7088      7089      7087      7086      7088      7090
      7087      7086      7088      7091      7087      7086      7092      7093
      7087      7086      7092      7094      7087      7086      7092      7095
      7088      7086      7092      7093      7088      7086      7092      7094
      7088      7086      7092      7095      7089      7088      7086      7092
      7090      7088      7086      7092      7091      7088      7086      7092
      7092      7095      7098      7099      7092      7095      7098      7100
      7092      7095      7098      7101      7093      7092      7095      7096
      7093      7092      7095      7097      7093      7092      7095      7098
      7094      7092      7095      7096      7094      7092      7095      7097
      7094      7092      7095      7098      7095      7098      7101      7102
      7095      7098      7101      7103      7095      7098      7101      7107
      7096      7095      7098      7099      7096      7095      7098      7100
      7096      7095      7098      7101      7097      7095      7098      7099
      7097      7095      7098      7100      7097      7095      7098      7101
      7098      7101      7103      7104      7098      7101      7103      7105
      7098      7101      7103      7106      7098      7101      7107      7108
      7098      7101      7107      7109      7098      7101      7107      7110
      7099      7098      7101      7102      7099      7098      7101      7103
      7099      7098      7101      7107      7100      7098      7101      7102
      7100      7098      7101      7103      7100      7098      7101      7107
      7102      7101      7103      7104      7102      7101      7103      7105
      7102      7101      7103      7106      7102      7101      7107      7108
      7102      7101      7107      7109      7102      7101      7107      7110
      7103      7101      7107      7108      7103      7101      7107      7109
      7103      7101      7107      7110      7104      7103      7101      7107
      7105      7103      7101      7107      7106      7103      7101      7107
      7111      7115      7118      7119      7111      7115      7118      7149
      7111      7157      7154      7149      7111      7157      7154      7155
      7111      7157      7154      7156      7112      7111      7113      7114
      7112      7111      7115      7116      7112      7111      7115      7117
      7112      7111      7115      7118      7112      7111      7157      7154
      7112      7111      7157      7158      7112      7111      7157      7159
      7113      7111      7115      7116      7113      7111      7115      7117
      7113      7111      7115      7118      7113      7111      7157      7154
      7113      7111      7157      7158      7113      7111      7157      7159
      7114      7113      7111      7115      7114      7113      7111      7157
      7115      7111      7157      7154      7115      7111      7157      7158
      7115      7111      7157      7159      7115      7118      7119      7120
      7115      7118      7119      7121      7115      7118      7149      7147
      7115      7118      7149      7150      7115      7118      7149      7154
      7116      7115      7111      7157      7116      7115      7118      7119
      7116      7115      7118      7149      7117      7115      7111      7157
      7117      7115      7118      7119      7117      7115      7118      7149
      7118      7115      7111      7157      7118      7119      7121      7122
      7118      7119      7121      7123      7118      7119      7121      7124
      7118      7149      7147      7124      7118      7149      7147      7144
      7118      7149      7147      7148      7118      7149      7150      7151
      7118      7149      7150      7152      7118      7149      7150      7153
      7118      7149      7154      7155      7118      7149      7154      7156
      7118      7149      7154      7157      7119      7118      7149      7147
      7119      7118      7149      7150      7119      7118      7149      7154
      7119      7121      7124      7125      7119      7121      7124      7126
      7119      7121      7124      7147      7120      7119      7118      7149
      7120      7119      7121      7122      7120      7119      7121      7123
      7120      7119      7121      7124      7121      7119      7118      7149
      7121      7124      7126      7127      7121      7124      7126      7128
      7121      7124      7126      7136      7121      7124      7147      7144
      7121      7124      7147      7148      7121      7124      7147      7149
      7122      7121      7124      7125      7122      7121      7124      7126
      7122      7121      7124      7147      7123      7121      7124      7125
      7123      7121      7124      7126      7123      7121      7124      7147
      7124      7126      7128      7129      7124      7126      7128      7130
      7124      7126      7128      7131      7124      7126      7136      7134
      7124      7126      7136      7137      7124      7126      7136      7141
      7124      7147      7144      7141      7124      7147      7144      7145
      7124      7147      7144      7146      7124      7147      7149      7150
      7124      7147      7149      7154      7125      7124      7126      7127
      7125      7124      7126      7128      7125      7124      7126      7136
      7125      7124      7147      7144      7125      7124      7147      7148
      7125      7124      7147      7149      7126      7124      7147      7144
      7126      7124      7147      7148      7126      7124      7147      7149
      7126      7128      7131      7132      7126      7128      7131      7133
      7126      7128      7131      7134      7126      7136      7134      7131
      7126      7136      7134      7135      7126      7136      7134      7160
      7126      7136      7137      7138      7126      7136      7137      7139
      7126      7136      7137      7140      7126      7136      7141      7142
      7126      7136      7141      7143      7126      7136      7141      7144
      7127      7126      7124      7147      7127      7126      7128      7129
      7127      7126      7128      7130      7127      7126      7128      7131
      7127      7126      7136      7134      7127      7126      7136      7137
      7127      7126      7136      7141      7128      7126      7124      7147
      7128      7126      7136      7134      7128      7126      7136      7137
      7128      7126      7136      7141      7128      7131      7134      7135
      7128      7131      7134      7136      7128      7131      7134      7160
      7129      7128      7126      7136      7129      7128      7131      7132
      7129      7128      7131      7133      7129      7128      7131      7134
      7130      7128      7126      7136      7130      7128      7131      7132
      7130      7128      7131      7133      7130      7128      7131      7134
      7131      7128      7126      7136      7131      7134      7136      7137
      7131      7134      7136      7141      7131      7134      7160      7161
      7131      7134      7160      7162      7131      7134      7160      7166
      7132      7131      7134      7135      7132      7131      7134      7136
      7132      7131      7134      7160      7133      7131      7134      7135
      7133      7131      7134      7136      7133      7131      7134      7160
      7134      7136      7137      7138      7134      7136      7137      7139
      7134      7136      7137      7140      7134      7136      7141      7142
      7134      7136      7141      7143      7134      7136      7141      7144
      7134      7160      7162      7163      7134      7160      7162      7164
      7134      7160      7162      7165      7134      7160      7166      7167
      7134      7160      7166      7168      7134      7160      7166      7169
      7135      7134      7136      7137      7135      7134      7136      7141
      7135      7134      7160      7161      7135      7134      7160      7162
      7135      7134      7160      7166      7136      7126      7124      7147
      7136      7134      7160      7161      7136      7134      7160      7162
      7136      7134      7160      7166      7136      7141      7144      7145
      7136      7141      7144      7146      7136      7141      7144      7147
      7137      7136      7134      7160      7137      7136      7141      7142
      7137      7136      7141      7143      7137      7136      7141      7144
      7138      7137      7136      7141      7139      7137      7136      7141
      7140      7137      7136      7141      7141      7136      7134      7160
      7141      7144      7147      7148      7141      7144      7147      7149
      7142      7141      7144      7145      7142      7141      7144      7146
      7142      7141      7144      7147      7143      7141      7144      7145
      7143      7141      7144      7146      7143      7141      7144      7147
      7144      7147      7149      7150      7144      7147      7149      7154
      7145      7144      7147      7148      7145      7144      7147      7149
      7146      7144      7147      7148      7146      7144      7147      7149
      7147      7149      7150      7151      7147      7149      7150      7152
      7147      7149      7150      7153      7147      7149      7154      7155
      7147      7149      7154      7156      7147      7149      7154      7157
      7148      7147      7149      7150      7148      7147      7149      7154
      7149      7154      7157      7158      7149      7154      7157      7159
      7150      7149      7154      7155      7150      7149      7154      7156
      7150      7149      7154      7157      7151      7150      7149      7154
      7152      7150      7149      7154      7153      7150      7149      7154
      7155      7154      7157      7158      7155      7154      7157      7159
      7156      7154      7157      7158      7156      7154      7157      7159
      7160      7166      7169      7170      7160      7166      7169      7171
      7160      7166      7169      7172      7161      7160      7162      7163
      7161      7160      7162      7164      7161      7160      7162      7165
      7161      7160      7166      7167      7161      7160      7166      7168
      7161      7160      7166      7169      7162      7160      7166      7167
      7162      7160      7166      7168      7162      7160      7166      7169
      7163      7162      7160      7166      7164      7162      7160      7166
      7165      7162      7160      7166      7166      7169      7172      7173
      7166      7169      7172      7174      7166      7169      7172      7175
      7167      7166      7169      7170      7167      7166      7169      7171
      7167      7166      7169      7172      7168      7166      7169      7170
      7168      7166      7169      7171      7168      7166      7169      7172
      7169      7172      7175      7176      7169      7172      7175      7177
      7169      7172      7175      7181      7170      7169      7172      7173
      7170      7169      7172      7174      7170      7169      7172      7175
      7171      7169      7172      7173      7171      7169      7172      7174
      7171      7169      7172      7175      7172      7175      7177      7178
      7172      7175      7177      7179      7172      7175      7177      7180
      7172      7175      7181      7182      7172      7175      7181      7183
      7172      7175      7181      7184      7173      7172      7175      7176
      7173      7172      7175      7177      7173      7172      7175      7181
      7174      7172      7175      7176      7174      7172      7175      7177
      7174      7172      7175      7181      7176      7175      7177      7178
      7176      7175      7177      7179      7176      7175      7177      7180
      7176      7175      7181      7182      7176      7175      7181      7183
      7176      7175      7181      7184      7177      7175      7181      7182
      7177      7175      7181      7183      7177      7175      7181      7184
      7178      7177      7175      7181      7179      7177      7175      7181
      7180      7177      7175      7181      7185      7189      7192      7193
      7185      7189      7192      7223      7185      7231      7228      7223
      7185      7231      7228      7229      7185      7231      7228      7230
      7186      7185      7187      7188      7186      7185      7189      7190
      7186      7185      7189      7191      7186      7185      7189      7192
      7186      7185      7231      7228      7186      7185      7231      7232
      7186      7185      7231      7233      7187      7185      7189      7190
      7187      7185      7189      7191      7187      7185      7189      7192
      7187      7185      7231      7228      7187      7185      7231      7232
      7187      7185      7231      7233      7188      7187      7185      7189
      7188      7187      7185      7231      7189      7185      7231      7228
      7189      7185      7231      7232      7189      7185      7231      7233
      7189      7192      7193      7194      7189      7192      7193      7195
      7189      7192      7223      7221      7189      7192      7223      7224
      7189      7192      7223      7228      7190      7189      7185      7231
      7190      7189      7192      7193      7190      7189      7192      7223
      7191      7189      7185      7231      7191      7189      7192      7193
      7191      7189      7192      7223      7192      7189      7185      7231
      7192      7193      7195      7196      7192      7193      7195      7197
      7192      7193      7195      7198      7192      7223      7221      7198
      7192      7223      7221      7218      7192      7223      7221      7222
      7192      7223      7224      7225      7192      7223      7224      7226
      7192      7223      7224      7227      7192      7223      7228      7229
      7192      7223      7228      7230      7192      7223      7228      7231
      7193      7192      7223      7221      7193      7192      7223      7224
      7193      7192      7223      7228      7193      7195      7198      7199
      7193      7195      7198      7200      7193      7195      7198      7221
      7194      7193      7192      7223      7194      7193      7195      7196
      7194      7193      7195      7197      7194      7193      7195      7198
      7195      7193      7192      7223      7195      7198      7200      7201
      7195      7198      7200      7202      7195      7198      7200      7210
      7195      7198      7221      7218      7195      7198      7221      7222
      7195      7198      7221      7223      7196      7195      7198      7199
      7196      7195      7198      7200      7196      7195      7198      7221
      7197      7195      7198      7199      7197      7195      7198      7200
      7197      7195      7198      7221      7198      7200      7202      7203
      7198      7200      7202      7204      7198      7200      7202      7205
      7198      7200      7210      7208      7198      7200      7210      7211
      7198      7200      7210      7215      7198      7221      7218      7215
      7198      7221      7218      7219      7198      7221      7218      7220
      7198      7221      7223      7224      7198      7221      7223      7228
      7199      7198      7200      7201      7199      7198      7200      7202
      7199      7198      7200      7210      7199      7198      7221      7218
      7199      7198      7221      7222      7199      7198      7221      7223
      7200      7198      7221      7218      7200      7198      7221      7222
      7200      7198      7221      7223      7200      7202      7205      7206
      7200      7202      7205      7207      7200      7202      7205      7208
      7200      7210      7208      7205      7200      7210      7208      7209
      7200      7210      7208      7234      7200      7210      7211      7212
      7200      7210      7211      7213      7200      7210      7211      7214
      7200      7210      7215      7216      7200      7210      7215      7217
      7200      7210      7215      7218      7201      7200      7198      7221
      7201      7200      7202      7203      7201      7200      7202      7204
      7201      7200      7202      7205      7201      7200      7210      7208
      7201      7200      7210      7211      7201      7200      7210      7215
      7202      7200      7198      7221      7202      7200      7210      7208
      7202      7200      7210      7211      7202      7200      7210      7215
      7202      7205      7208      7209      7202      7205      7208      7210
      7202      7205      7208      7234      7203      7202      7200      7210
      7203      7202      7205      7206      7203      7202      7205      7207
      7203      7202      7205      7208      7204      7202      7200      7210
      7204      7202      7205      7206      7204      7202      7205      7207
      7204      7202      7205      7208      7205      7202      7200      7210
      7205      7208      7210      7211      7205      7208      7210      7215
      7205      7208      7234      7235      7205      7208      7234      7236
      7205      7208      7234      7240      7206      7205      7208      7209
      7206      7205      7208      7210      7206      7205      7208      7234
      7207      7205      7208      7209      7207      7205      7208      7210
      7207      7205      7208      7234      7208      7210      7211      7212
      7208      7210      7211      7213      7208      7210      7211      7214
      7208      7210      7215      7216      7208      7210      7215      7217
      7208      7210      7215      7218      7208      7234      7236      7237
      7208      7234      7236      7238      7208      7234      7236      7239
      7208      7234      7240      7241      7208      7234      7240      7242
      7208      7234      7240      7243      7209      7208      7210      7211
      7209      7208      7210      7215      7209      7208      7234      7235
      7209      7208      7234      7236      7209      7208      7234      7240
      7210      7200      7198      7221      7210      7208      7234      7235
      7210      7208      7234      7236      7210      7208      7234      7240
      7210      7215      7218      7219      7210      7215      7218      7220
      7210      7215      7218      7221      7211      7210      7208      7234
      7211      7210      7215      7216      7211      7210      7215      7217
      7211      7210      7215      7218      7212      7211      7210      7215
      7213      7211      7210      7215      7214      7211      7210      7215
      7215      7210      7208      7234      7215      7218      7221      7222
      7215      7218      7221      7223      7216      7215      7218      7219
      7216      7215      7218      7220      7216      7215      7218      7221
      7217      7215      7218      7219      7217      7215      7218      7220
      7217      7215      7218      7221      7218      7221      7223      7224
      7218      7221      7223      7228      7219      7218      7221      7222
      7219      7218      7221      7223      7220      7218      7221      7222
      7220      7218      7221      7223      7221      7223      7224      7225
      7221      7223      7224      7226      7221      7223      7224      7227
      7221      7223      7228      7229      7221      7223      7228      7230
      7221      7223      7228      7231      7222      7221      7223      7224
      7222      7221      7223      7228      7223      7228      7231      7232
      7223      7228      7231      7233      7224      7223      7228      7229
      7224      7223      7228      7230      7224      7223      7228      7231
      7225      7224      7223      7228      7226      7224      7223      7228
      7227      7224      7223      7228      7229      7228      7231      7232
      7229      7228      7231      7233      7230      7228      7231      7232
      7230      7228      7231      7233      7234      7240      7243      7244
      7234      7240      7243      7245      7234      7240      7243      7246
      7235      7234      7236      7237      7235      7234      7236      7238
      7235      7234      7236      7239      7235      7234      7240      7241
      7235      7234      7240      7242      7235      7234      7240      7243
      7236      7234      7240      7241      7236      7234      7240      7242
      7236      7234      7240      7243      7237      7236      7234      7240
      7238      7236      7234      7240      7239      7236      7234      7240
      7240      7243      7246      7247      7240      7243      7246      7248
      7240      7243      7246      7249      7241      7240      7243      7244
      7241      7240      7243      7245      7241      7240      7243      7246
      7242      7240      7243      7244      7242      7240      7243      7245
      7242      7240      7243      7246      7243      7246      7249      7250
      7243      7246      7249      7251      7243      7246      7249      7255
      7244      7243      7246      7247      7244      7243      7246      7248
      7244      7243      7246      7249      7245      7243      7246      7247
      7245      7243      7246      7248      7245      7243      7246      7249
      7246      7249      7251      7252      7246      7249      7251      7253
      7246      7249      7251      7254      7246      7249      7255      7256
      7246      7249      7255      7257      7246      7249      7255      7258
      7247      7246      7249      7250      7247      7246      7249      7251
      7247      7246      7249      7255      7248      7246      7249      7250
      7248      7246      7249      7251      7248      7246      7249      7255
      7250      7249      7251      7252      7250      7249      7251      7253
      7250      7249      7251      7254      7250      7249      7255      7256
      7250      7249      7255      7257      7250      7249      7255      7258
      7251      7249      7255      7256      7251      7249      7255      7257
      7251      7249      7255      7258      7252      7251      7249      7255
      7253      7251      7249      7255      7254      7251      7249      7255
      7259      7263      7266      7267      7259      7263      7266      7297
      7259      7305      7302      7297      7259      7305      7302      7303
      7259      7305      7302      7304      7260      7259      7261      7262
      7260      7259      7263      7264      7260      7259      7263      7265
      7260      7259      7263      7266      7260      7259      7305      7302
      7260      7259      7305      7306      7260      7259      7305      7307
      7261      7259      7263      7264      7261      7259      7263      7265
      7261      7259      7263      7266      7261      7259      7305      7302
      7261      7259      7305      7306      7261      7259      7305      7307
      7262      7261      7259      7263      7262      7261      7259      7305
      7263      7259      7305      7302      7263      7259      7305      7306
      7263      7259      7305      7307      7263      7266      7267      7268
      7263      7266      7267      7269      7263      7266      7297      7295
      7263      7266      7297      7298      7263      7266      7297      7302
      7264      7263      7259      7305      7264      7263      7266      7267
      7264      7263      7266      7297      7265      7263      7259      7305
      7265      7263      7266      7267      7265      7263      7266      7297
      7266      7263      7259      7305      7266      7267      7269      7270
      7266      7267      7269      7271      7266      7267      7269      7272
      7266      7297      7295      7272      7266      7297      7295      7292
      7266      7297      7295      7296      7266      7297      7298      7299
      7266      7297      7298      7300      7266      7297      7298      7301
      7266      7297      7302      7303      7266      7297      7302      7304
      7266      7297      7302      7305      7267      7266      7297      7295
      7267      7266      7297      7298      7267      7266      7297      7302
      7267      7269      7272      7273      7267      7269      7272      7274
      7267      7269      7272      7295      7268      7267      7266      7297
      7268      7267      7269      7270      7268      7267      7269      7271
      7268      7267      7269      7272      7269      7267      7266      7297
      7269      7272      7274      7275      7269      7272      7274      7276
      7269      7272      7274      7284      7269      7272      7295      7292
      7269      7272      7295      7296      7269      7272      7295      7297
      7270      7269      7272      7273      7270      7269      7272      7274
      7270      7269      7272      7295      7271      7269      7272      7273
      7271      7269      7272      7274      7271      7269      7272      7295
      7272      7274      7276      7277      7272      7274      7276      7278
      7272      7274      7276      7279      7272      7274      7284      7282
      7272      7274      7284      7285      7272      7274      7284      7289
      7272      7295      7292      7289      7272      7295      7292      7293
      7272      7295      7292      7294      7272      7295      7297      7298
      7272      7295      7297      7302      7273      7272      7274      7275
      7273      7272      7274      7276      7273      7272      7274      7284
      7273      7272      7295      7292      7273      7272      7295      7296
      7273      7272      7295      7297      7274      7272      7295      7292
      7274      7272      7295      7296      7274      7272      7295      7297
      7274      7276      7279      7280      7274      7276      7279      7281
      7274      7276      7279      7282      7274      7284      7282      7279
      7274      7284      7282      7283      7274      7284      7282      7308
      7274      7284      7285      7286      7274      7284      7285      7287
      7274      7284      7285      7288      7274      7284      7289      7290
      7274      7284      7289      7291      7274      7284      7289      7292
      7275      7274      7272      7295      7275      7274      7276      7277
      7275      7274      7276      7278      7275      7274      7276      7279
      7275      7274      7284      7282      7275      7274      7284      7285
      7275      7274      7284      7289      7276      7274      7272      7295
      7276      7274      7284      7282      7276      7274      7284      7285
      7276      7274      7284      7289      7276      7279      7282      7283
      7276      7279      7282      7284      7276      7279      7282      7308
      7277      7276      7274      7284      7277      7276      7279      7280
      7277      7276      7279      7281      7277      7276      7279      7282
      7278      7276      7274      7284      7278      7276      7279      7280
      7278      7276      7279      7281      7278      7276      7279      7282
      7279      7276      7274      7284      7279      7282      7284      7285
      7279      7282      7284      7289      7279      7282      7308      7309
      7279      7282      7308      7310      7279      7282      7308      7314
      7280      7279      7282      7283      7280      7279      7282      7284
      7280      7279      7282      7308      7281      7279      7282      7283
      7281      7279      7282      7284      7281      7279      7282      7308
      7282      7284      7285      7286      7282      7284      7285      7287
      7282      7284      7285      7288      7282      7284      7289      7290
      7282      7284      7289      7291      7282      7284      7289      7292
      7282      7308      7310      7311      7282      7308      7310      7312
      7282      7308      7310      7313      7282      7308      7314      7315
      7282      7308      7314      7316      7282      7308      7314      7317
      7283      7282      7284      7285      7283      7282      7284      7289
      7283      7282      7308      7309      7283      7282      7308      7310
      7283      7282      7308      7314      7284      7274      7272      7295
      7284      7282      7308      7309      7284      7282      7308      7310
      7284      7282      7308      7314      7284      7289      7292      7293
      7284      7289      7292      7294      7284      7289      7292      7295
      7285      7284      7282      7308      7285      7284      7289      7290
      7285      7284      7289      7291      7285      7284      7289      7292
      7286      7285      7284      7289      7287      7285      7284      7289
      7288      7285      7284      7289      7289      7284      7282      7308
      7289      7292      7295      7296      7289      7292      7295      7297
      7290      7289      7292      7293      7290      7289      7292      7294
      7290      7289      7292      7295      7291      7289      7292      7293
      7291      7289      7292      7294      7291      7289      7292      7295
      7292      7295      7297      7298      7292      7295      7297      7302
      7293      7292      7295      7296      7293      7292      7295      7297
      7294      7292      7295      7296      7294      7292      7295      7297
      7295      7297      7298      7299      7295      7297      7298      7300
      7295      7297      7298      7301      7295      7297      7302      7303
      7295      7297      7302      7304      7295      7297      7302      7305
      7296      7295      7297      7298      7296      7295      7297      7302
      7297      7302      7305      7306      7297      7302      7305      7307
      7298      7297      7302      7303      7298      7297      7302      7304
      7298      7297      7302      7305      7299      7298      7297      7302
      7300      7298      7297      7302      7301      7298      7297      7302
      7303      7302      7305      7306      7303      7302      7305      7307
      7304      7302      7305      7306      7304      7302      7305      7307
      7308      7314      7317      7318      7308      7314      7317      7319
      7308      7314      7317      7320      7309      7308      7310      7311
      7309      7308      7310      7312      7309      7308      7310      7313
      7309      7308      7314      7315      7309      7308      7314      7316
      7309      7308      7314      7317      7310      7308      7314      7315
      7310      7308      7314      7316      7310      7308      7314      7317
      7311      7310      7308      7314      7312      7310      7308      7314
      7313      7310      7308      7314      7314      7317      7320      7321
      7314      7317      7320      7322      7314      7317      7320      7323
      7315      7314      7317      7318      7315      7314      7317      7319
      7315      7314      7317      7320      7316      7314      7317      7318
      7316      7314      7317      7319      7316      7314      7317      7320
      7317      7320      7323      7324      7317      7320      7323      7325
      7317      7320      7323      7329      7318      7317      7320      7321
      7318      7317      7320      7322      7318      7317      7320      7323
      7319      7317      7320      7321      7319      7317      7320      7322
      7319      7317      7320      7323      7320      7323      7325      7326
      7320      7323      7325      7327      7320      7323      7325      7328
      7320      7323      7329      7330      7320      7323      7329      7331
      7320      7323      7329      7332      7321      7320      7323      7324
      7321      7320      7323      7325      7321      7320      7323      7329
      7322      7320      7323      7324      7322      7320      7323      7325
      7322      7320      7323      7329      7324      7323      7325      7326
      7324      7323      7325      7327      7324      7323      7325      7328
      7324      7323      7329      7330      7324      7323      7329      7331
      7324      7323      7329      7332      7325      7323      7329      7330
      7325      7323      7329      7331      7325      7323      7329      7332
      7326      7325      7323      7329      7327      7325      7323      7329
      7328      7325      7323      7329      7333      7337      7340      7341
      7333      7337      7340      7371      7333      7379      7376      7371
      7333      7379      7376      7377      7333      7379      7376      7378
      7334      7333      7335      7336      7334      7333      7337      7338
      7334      7333      7337      7339      7334      7333      7337      7340
      7334      7333      7379      7376      7334      7333      7379      7380
      7334      7333      7379      7381      7335      7333      7337      7338
      7335      7333      7337      7339      7335      7333      7337      7340
      7335      7333      7379      7376      7335      7333      7379      7380
      7335      7333      7379      7381      7336      7335      7333      7337
      7336      7335      7333      7379      7337      7333      7379      7376
      7337      7333      7379      7380      7337      7333      7379      7381
      7337      7340      7341      7342      7337      7340      7341      7343
      7337      7340      7371      7369      7337      7340      7371      7372
      7337      7340      7371      7376      7338      7337      7333      7379
      7338      7337      7340      7341      7338      7337      7340      7371
      7339      7337      7333      7379      7339      7337      7340      7341
      7339      7337      7340      7371      7340      7337      7333      7379
      7340      7341      7343      7344      7340      7341      7343      7345
      7340      7341      7343      7346      7340      7371      7369      7346
      7340      7371      7369      7366      7340      7371      7369      7370
      7340      7371      7372      7373      7340      7371      7372      7374
      7340      7371      7372      7375      7340      7371      7376      7377
      7340      7371      7376      7378      7340      7371      7376      7379
      7341      7340      7371      7369      7341      7340      7371      7372
      7341      7340      7371      7376      7341      7343      7346      7347
      7341      7343      7346      7348      7341      7343      7346      7369
      7342      7341      7340      7371      7342      7341      7343      7344
      7342      7341      7343      7345      7342      7341      7343      7346
      7343      7341      7340      7371      7343      7346      7348      7349
      7343      7346      7348      7350      7343      7346      7348      7358
      7343      7346      7369      7366      7343      7346      7369      7370
      7343      7346      7369      7371      7344      7343      7346      7347
      7344      7343      7346      7348      7344      7343      7346      7369
      7345      7343      7346      7347      7345      7343      7346      7348
      7345      7343      7346      7369      7346      7348      7350      7351
      7346      7348      7350      7352      7346      7348      7350      7353
      7346      7348      7358      7356      7346      7348      7358      7359
      7346      7348      7358      7363      7346      7369      7366      7363
      7346      7369      7366      7367      7346      7369      7366      7368
      7346      7369      7371      7372      7346      7369      7371      7376
      7347      7346      7348      7349      7347      7346      7348      7350
      7347      7346      7348      7358      7347      7346      7369      7366
      7347      7346      7369      7370      7347      7346      7369      7371
      7348      7346      7369      7366      7348      7346      7369      7370
      7348      7346      7369      7371      7348      7350      7353      7354
      7348      7350      7353      7355      7348      7350      7353      7356
      7348      7358      7356      7353      7348      7358      7356      7357
      7348      7358      7356      7382      7348      7358      7359      7360
      7348      7358      7359      7361      7348      7358      7359      7362
      7348      7358      7363      7364      7348      7358      7363      7365
      7348      7358      7363      7366      7349      7348      7346      7369
      7349      7348      7350      7351      7349      7348      7350      7352
      7349      7348      7350      7353      7349      7348      7358      7356
      7349      7348      7358      7359      7349      7348      7358      7363
      7350      7348      7346      7369      7350      7348      7358      7356
      7350      7348      7358      7359      7350      7348      7358      7363
      7350      7353      7356      7357      7350      7353      7356      7358
      7350      7353      7356      7382      7351      7350      7348      7358
      7351      7350      7353      7354      7351      7350      7353      7355
      7351      7350      7353      7356      7352      7350      7348      7358
      7352      7350      7353      7354      7352      7350      7353      7355
      7352      7350      7353      7356      7353      7350      7348      7358
      7353      7356      7358      7359      7353      7356      7358      7363
      7353      7356      7382      7383      7353      7356      7382      7384
      7353      7356      7382      7388      7354      7353      7356      7357
      7354      7353      7356      7358      7354      7353      7356      7382
      7355      7353      7356      7357      7355      7353      7356      7358
      7355      7353      7356      7382      7356      7358      7359      7360
      7356      7358      7359      7361      7356      7358      7359      7362
      7356      7358      7363      7364      7356      7358      7363      7365
      7356      7358      7363      7366      7356      7382      7384      7385
      7356      7382      7384      7386      7356      7382      7384      7387
      7356      7382      7388      7389      7356      7382      7388      7390
      7356      7382      7388      7391      7357      7356      7358      7359
      7357      7356      7358      7363      7357      7356      7382      7383
      7357      7356      7382      7384      7357      7356      7382      7388
      7358      7348      7346      7369      7358      7356      7382      7383
      7358      7356      7382      7384      7358      7356      7382      7388
      7358      7363      7366      7367      7358      7363      7366      7368
      7358      7363      7366      7369      7359      7358      7356      7382
      7359      7358      7363      7364      7359      7358      7363      7365
      7359      7358      7363      7366      7360      7359      7358      7363
      7361      7359      7358      7363      7362      7359      7358      7363
      7363      7358      7356      7382      7363      7366      7369      7370
      7363      7366      7369      7371      7364      7363      7366      7367
      7364      7363      7366      7368      7364      7363      7366      7369
      7365      7363      7366      7367      7365      7363      7366      7368
      7365      7363      7366      7369      7366      7369      7371      7372
      7366      7369      7371      7376      7367      7366      7369      7370
      7367      7366      7369      7371      7368      7366      7369      7370
      7368      7366      7369      7371      7369      7371      7372      7373
      7369      7371      7372      7374      7369      7371      7372      7375
      7369      7371      7376      7377      7369      7371      7376      7378
      7369      7371      7376      7379      7370      7369      7371      7372
      7370      7369      7371      7376      7371      7376      7379      7380
      7371      7376      7379      7381      7372      7371      7376      7377
      7372      7371      7376      7378      7372      7371      7376      7379
      7373      7372      7371      7376      7374      7372      7371      7376
      7375      7372      7371      7376      7377      7376      7379      7380
      7377      7376      7379      7381      7378      7376      7379      7380
      7378      7376      7379      7381      7382      7388      7391      7392
      7382      7388      7391      7393      7382      7388      7391      7394
      7383      7382      7384      7385      7383      7382      7384      7386
      7383      7382      7384      7387      7383      7382      7388      7389
      7383      7382      7388      7390      7383      7382      7388      7391
      7384      7382      7388      7389      7384      7382      7388      7390
      7384      7382      7388      7391      7385      7384      7382      7388
      7386      7384      7382      7388      7387      7384      7382      7388
      7388      7391      7394      7395      7388      7391      7394      7396
      7388      7391      7394      7397      7389      7388      7391      7392
      7389      7388      7391      7393      7389      7388      7391      7394
      7390      7388      7391      7392      7390      7388      7391      7393
      7390      7388      7391      7394      7391      7394      7397      7398
      7391      7394      7397      7399      7391      7394      7397      7403
      7392      7391      7394      7395      7392      7391      7394      7396
      7392      7391      7394      7397      7393      7391      7394      7395
      7393      7391      7394      7396      7393      7391      7394      7397
      7394      7397      7399      7400      7394      7397      7399      7401
      7394      7397      7399      7402      7394      7397      7403      7404
      7394      7397      7403      7405      7394      7397      7403      7406
      7395      7394      7397      7398      7395      7394      7397      7399
      7395      7394      7397      7403      7396      7394      7397      7398
      7396      7394      7397      7399      7396      7394      7397      7403
      7398      7397      7399      7400      7398      7397      7399      7401
      7398      7397      7399      7402      7398      7397      7403      7404
      7398      7397      7403      7405      7398      7397      7403      7406
      7399      7397      7403      7404      7399      7397      7403      7405
      7399      7397      7403      7406      7400      7399      7397      7403
      7401      7399      7397      7403      7402      7399      7397      7403
      7407      7411      7414      7415      7407      7411      7414      7445
      7407      7453      7450      7445      7407      7453      7450      7451
      7407      7453      7450      7452      7408      7407      7409      7410
      7408      7407      7411      7412      7408      7407      7411      7413
      7408      7407      7411      7414      7408      7407      7453      7450
      7408      7407      7453      7454      7408      7407      7453      7455
      7409      7407      7411      7412      7409      7407      7411      7413
      7409      7407      7411      7414      7409      7407      7453      7450
      7409      7407      7453      7454      7409      7407      7453      7455
      7410      7409      7407      7411      7410      7409      7407      7453
      7411      7407      7453      7450      7411      7407      7453      7454
      7411      7407      7453      7455      7411      7414      7415      7416
      7411      7414      7415      7417      7411      7414      7445      7443
      7411      7414      7445      7446      7411      7414      7445      7450
      7412      7411      7407      7453      7412      7411      7414      7415
      7412      7411      7414      7445      7413      7411      7407      7453
      7413      7411      7414      7415      7413      7411      7414      7445
      7414      7411      7407      7453      7414      7415      7417      7418
      7414      7415      7417      7419      7414      7415      7417      7420
      7414      7445      7443      7420      7414      7445      7443      7440
      7414      7445      7443      7444      7414      7445      7446      7447
      7414      7445      7446      7448      7414      7445      7446      7449
      7414      7445      7450      7451      7414      7445      7450      7452
      7414      7445      7450      7453      7415      7414      7445      7443
      7415      7414      7445      7446      7415      7414      7445      7450
      7415      7417      7420      7421      7415      7417      7420      7422
      7415      7417      7420      7443      7416      7415      7414      7445
      7416      7415      7417      7418      7416      7415      7417      7419
      7416      7415      7417      7420      7417      7415      7414      7445
      7417      7420      7422      7423      7417      7420      7422      7424
      7417      7420      7422      7432      7417      7420      7443      7440
      7417      7420      7443      7444      7417      7420      7443      7445
      7418      7417      7420      7421      7418      7417      7420      7422
      7418      7417      7420      7443      7419      7417      7420      7421
      7419      7417      7420      7422      7419      7417      7420      7443
      7420      7422      7424      7425      7420      7422      7424      7426
      7420      7422      7424      7427      7420      7422      7432      7430
      7420      7422      7432      7433      7420      7422      7432      7437
      7420      7443      7440      7437      7420      7443      7440      7441
      7420      7443      7440      7442      7420      7443      7445      7446
      7420      7443      7445      7450      7421      7420      7422      7423
      7421      7420      7422      7424      7421      7420      7422      7432
      7421      7420      7443      7440      7421      7420      7443      7444
      7421      7420      7443      7445      7422      7420      7443      7440
      7422      7420      7443      7444      7422      7420      7443      7445
      7422      7424      7427      7428      7422      7424      7427      7429
      7422      7424      7427      7430      7422      7432      7430      7427
      7422      7432      7430      7431      7422      7432      7430      7456
      7422      7432      7433      7434      7422      7432      7433      7435
      7422      7432      7433      7436      7422      7432      7437      7438
      7422      7432      7437      7439      7422      7432      7437      7440
      7423      7422      7420      7443      7423      7422      7424      7425
      7423      7422      7424      7426      7423      7422      7424      7427
      7423      7422      7432      7430      7423      7422      7432      7433
      7423      7422      7432      7437      7424      7422      7420      7443
      7424      7422      7432      7430      7424      7422      7432      7433
      7424      7422      7432      7437      7424      7427      7430      7431
      7424      7427      7430      7432      7424      7427      7430      7456
      7425      7424      7422      7432      7425      7424      7427      7428
      7425      7424      7427      7429      7425      7424      7427      7430
      7426      7424      7422      7432      7426      7424      7427      7428
      7426      7424      7427      7429      7426      7424      7427      7430
      7427      7424      7422      7432      7427      7430      7432      7433
      7427      7430      7432      7437      7427      7430      7456      7457
      7427      7430      7456      7458      7427      7430      7456      7462
      7428      7427      7430      7431      7428      7427      7430      7432
      7428      7427      7430      7456      7429      7427      7430      7431
      7429      7427      7430      7432      7429      7427      7430      7456
      7430      7432      7433      7434      7430      7432      7433      7435
      7430      7432      7433      7436      7430      7432      7437      7438
      7430      7432      7437      7439      7430      7432      7437      7440
      7430      7456      7458      7459      7430      7456      7458      7460
      7430      7456      7458      7461      7430      7456      7462      7463
      7430      7456      7462      7464      7430      7456      7462      7465
      7431      7430      7432      7433      7431      7430      7432      7437
      7431      7430      7456      7457      7431      7430      7456      7458
      7431      7430      7456      7462      7432      7422      7420      7443
      7432      7430      7456      7457      7432      7430      7456      7458
      7432      7430      7456      7462      7432      7437      7440      7441
      7432      7437      7440      7442      7432      7437      7440      7443
      7433      7432      7430      7456      7433      7432      7437      7438
      7433      7432      7437      7439      7433      7432      7437      7440
      7434      7433      7432      7437      7435      7433      7432      7437
      7436      7433      7432      7437      7437      7432      7430      7456
      7437      7440      7443      7444      7437      7440      7443      7445
      7438      7437      7440      7441      7438      7437      7440      7442
      7438      7437      7440      7443      7439      7437      7440      7441
      7439      7437      7440      7442      7439      7437      7440      7443
      7440      7443      7445      7446      7440      7443      7445      7450
      7441      7440      7443      7444      7441      7440      7443      7445
      7442      7440      7443      7444      7442      7440      7443      7445
      7443      7445      7446      7447      7443      7445      7446      7448
      7443      7445      7446      7449      7443      7445      7450      7451
      7443      7445      7450      7452      7443      7445      7450      7453
      7444      7443      7445      7446      7444      7443      7445      7450
      7445      7450      7453      7454      7445      7450      7453      7455
      7446      7445      7450      7451      7446      7445      7450      7452
      7446      7445      7450      7453      7447      7446      7445      7450
      7448      7446      7445      7450      7449      7446      7445      7450
      7451      7450      7453      7454      7451      7450      7453      7455
      7452      7450      7453      7454      7452      7450      7453      7455
      7456      7462      7465      7466      7456      7462      7465      7467
      7456      7462      7465      7468      7457      7456      7458      7459
      7457      7456      7458      7460      7457      7456      7458      7461
      7457      7456      7462      7463      7457      7456      7462      7464
      7457      7456      7462      7465      7458      7456      7462      7463
      7458      7456      7462      7464      7458      7456      7462      7465
      7459      7458      7456      7462      7460      7458      7456      7462
      7461      7458      7456      7462      7462      7465      7468      7469
      7462      7465      7468      7470      7462      7465      7468      7471
      7463      7462      7465      7466      7463      7462      7465      7467
      7463      7462      7465      7468      7464      7462      7465      7466
      7464      7462      7465      7467      7464      7462      7465      7468
      7465      7468      7471      7472      7465      7468      7471      7473
      7465      7468      7471      7477      7466      7465      7468      7469
      7466      7465      7468      7470      7466      7465      7468      7471
      7467      7465      7468      7469      7467      7465      7468      7470
      7467      7465      7468      7471      7468      7471      7473      7474
      7468      7471      7473      7475      7468      7471      7473      7476
      7468      7471      7477      7478      7468      7471      7477      7479
      7468      7471      7477      7480      7469      7468      7471      7472
      7469      7468      7471      7473      7469      7468      7471      7477
      7470      7468      7471      7472      7470      7468      7471      7473
      7470      7468      7471      7477      7472      7471      7473      7474
      7472      7471      7473      7475      7472      7471      7473      7476
      7472      7471      7477      7478      7472      7471      7477      7479
      7472      7471      7477      7480      7473      7471      7477      7478
      7473      7471      7477      7479      7473      7471      7477      7480
      7474      7473      7471      7477      7475      7473      7471      7477
      7476      7473      7471      7477      7481      7485      7488      7489
      7481      7485      7488      7519      7481      7527      7524      7519
      7481      7527      7524      7525      7481      7527      7524      7526
      7482      7481      7483      7484      7482      7481      7485      7486
      7482      7481      7485      7487      7482      7481      7485      7488
      7482      7481      7527      7524      7482      7481      7527      7528
      7482      7481      7527      7529      7483      7481      7485      7486
      7483      7481      7485      7487      7483      7481      7485      7488
      7483      7481      7527      7524      7483      7481      7527      7528
      7483      7481      7527      7529      7484      7483      7481      7485
      7484      7483      7481      7527      7485      7481      7527      7524
      7485      7481      7527      7528      7485      7481      7527      7529
      7485      7488      7489      7490      7485      7488      7489      7491
      7485      7488      7519      7517      7485      7488      7519      7520
      7485      7488      7519      7524      7486      7485      7481      7527
      7486      7485      7488      7489      7486      7485      7488      7519
      7487      7485      7481      7527      7487      7485      7488      7489
      7487      7485      7488      7519      7488      7485      7481      7527
      7488      7489      7491      7492      7488      7489      7491      7493
      7488      7489      7491      7494      7488      7519      7517      7494
      7488      7519      7517      7514      7488      7519      7517      7518
      7488      7519      7520      7521      7488      7519      7520      7522
      7488      7519      7520      7523      7488      7519      7524      7525
      7488      7519      7524      7526      7488      7519      7524      7527
      7489      7488      7519      7517      7489      7488      7519      7520
      7489      7488      7519      7524      7489      7491      7494      7495
      7489      7491      7494      7496      7489      7491      7494      7517
      7490      7489      7488      7519      7490      7489      7491      7492
      7490      7489      7491      7493      7490      7489      7491      7494
      7491      7489      7488      7519      7491      7494      7496      7497
      7491      7494      7496      7498      7491      7494      7496      7506
      7491      7494      7517      7514      7491      7494      7517      7518
      7491      7494      7517      7519      7492      7491      7494      7495
      7492      7491      7494      7496      7492      7491      7494      7517
      7493      7491      7494      7495      7493      7491      7494      7496
      7493      7491      7494      7517      7494      7496      7498      7499
      7494      7496      7498      7500      7494      7496      7498      7501
      7494      7496      7506      7504      7494      7496      7506      7507
      7494      7496      7506      7511      7494      7517      7514      7511
      7494      7517      7514      7515      7494      7517      7514      7516
      7494      7517      7519      7520      7494      7517      7519      7524
      7495      7494      7496      7497      7495      7494      7496      7498
      7495      7494      7496      7506      7495      7494      7517      7514
      7495      7494      7517      7518      7495      7494      7517      7519
      7496      7494      7517      7514      7496      7494      7517      7518
      7496      7494      7517      7519      7496      7498      7501      7502
      7496      7498      7501      7503      7496      7498      7501      7504
      7496      7506      7504      7501      7496      7506      7504      7505
      7496      7506      7504      7530      7496      7506      7507      7508
      7496      7506      7507      7509      7496      7506      7507      7510
      7496      7506      7511      7512      7496      7506      7511      7513
      7496      7506      7511      7514      7497      7496      7494      7517
      7497      7496      7498      7499      7497      7496      7498      7500
      7497      7496      7498      7501      7497      7496      7506      7504
      7497      7496      7506      7507      7497      7496      7506      7511
      7498      7496      7494      7517      7498      7496      7506      7504
      7498      7496      7506      7507      7498      7496      7506      7511
      7498      7501      7504      7505      7498      7501      7504      7506
      7498      7501      7504      7530      7499      7498      7496      7506
      7499      7498      7501      7502      7499      7498      7501      7503
      7499      7498      7501      7504      7500      7498      7496      7506
      7500      7498      7501      7502      7500      7498      7501      7503
      7500      7498      7501      7504      7501      7498      7496      7506
      7501      7504      7506      7507      7501      7504      7506      7511
      7501      7504      7530      7531      7501      7504      7530      7532
      7501      7504      7530      7536      7502      7501      7504      7505
      7502      7501      7504      7506      7502      7501      7504      7530
      7503      7501      7504      7505      7503      7501      7504      7506
      7503      7501      7504      7530      7504      7506      7507      7508
      7504      7506      7507      7509      7504      7506      7507      7510
      7504      7506      7511      7512      7504      7506      7511      7513
      7504      7506      7511      7514      7504      7530      7532      7533
      7504      7530      7532      7534      7504      7530      7532      7535
      7504      7530      7536      7537      7504      7530      7536      7538
      7504      7530      7536      7539      7505      7504      7506      7507
      7505      7504      7506      7511      7505      7504      7530      7531
      7505      7504      7530      7532      7505      7504      7530      7536
      7506      7496      7494      7517      7506      7504      7530      7531
      7506      7504      7530      7532      7506      7504      7530      7536
      7506      7511      7514      7515      7506      7511      7514      7516
      7506      7511      7514      7517      7507      7506      7504      7530
      7507      7506      7511      7512      7507      7506      7511      7513
      7507      7506      7511      7514      7508      7507      7506      7511
      7509      7507      7506      7511      7510      7507      7506      7511
      7511      7506      7504      7530      7511      7514      7517      7518
      7511      7514      7517      7519      7512      7511      7514      7515
      7512      7511      7514      7516      7512      7511      7514      7517
      7513      7511      7514      7515      7513      7511      7514      7516
      7513      7511      7514      7517      7514      7517      7519      7520
      7514      7517      7519      7524      7515      7514      7517      7518
      7515      7514      7517      7519      7516      7514      7517      7518
      7516      7514      7517      7519      7517      7519      7520      7521
      7517      7519      7520      7522      7517      7519      7520      7523
      7517      7519      7524      7525      7517      7519      7524      7526
      7517      7519      7524      7527      7518      7517      7519      7520
      7518      7517      7519      7524      7519      7524      7527      7528
      7519      7524      7527      7529      7520      7519      7524      7525
      7520      7519      7524      7526      7520      7519      7524      7527
      7521      7520      7519      7524      7522      7520      7519      7524
      7523      7520      7519      7524      7525      7524      7527      7528
      7525      7524      7527      7529      7526      7524      7527      7528
      7526      7524      7527      7529      7530      7536      7539      7540
      7530      7536      7539      7541      7530      7536      7539      7542
      7531      7530      7532      7533      7531      7530      7532      7534
      7531      7530      7532      7535      7531      7530      7536      7537
      7531      7530      7536      7538      7531      7530      7536      7539
      7532      7530      7536      7537      7532      7530      7536      7538
      7532      7530      7536      7539      7533      7532      7530      7536
      7534      7532      7530      7536      7535      7532      7530      7536
      7536      7539      7542      7543      7536      7539      7542      7544
      7536      7539      7542      7545      7537      7536      7539      7540
      7537      7536      7539      7541      7537      7536      7539      7542
      7538      7536      7539      7540      7538      7536      7539      7541
      7538      7536      7539      7542      7539      7542      7545      7546
      7539      7542      7545      7547      7539      7542      7545      7551
      7540      7539      7542      7543      7540      7539      7542      7544
      7540      7539      7542      7545      7541      7539      7542      7543
      7541      7539      7542      7544      7541      7539      7542      7545
      7542      7545      7547      7548      7542      7545      7547      7549
      7542      7545      7547      7550      7542      7545      7551      7552
      7542      7545      7551      7553      7542      7545      7551      7554
      7543      7542      7545      7546      7543      7542      7545      7547
      7543      7542      7545      7551      7544      7542      7545      7546
      7544      7542      7545      7547      7544      7542      7545      7551
      7546      7545      7547      7548      7546      7545      7547      7549
      7546      7545      7547      7550      7546      7545      7551      7552
      7546      7545      7551      7553      7546      7545      7551      7554
      7547      7545      7551      7552      7547      7545      7551      7553
      7547      7545      7551      7554      7548      7547      7545      7551
      7549      7547      7545      7551      7550      7547      7545      7551
      7555      7559      7562      7563      7555      7559      7562      7593
      7555      7601      7598      7593      7555      7601      7598      7599
      7555      7601      7598      7600      7556      7555      7557      7558
      7556      7555      7559      7560      7556      7555      7559      7561
      7556      7555      7559      7562      7556      7555      7601      7598
      7556      7555      7601      7602      7556      7555      7601      7603
      7557      7555      7559      7560      7557      7555      7559      7561
      7557      7555      7559      7562      7557      7555      7601      7598
      7557      7555      7601      7602      7557      7555      7601      7603
      7558      7557      7555      7559      7558      7557      7555      7601
      7559      7555      7601      7598      7559      7555      7601      7602
      7559      7555      7601      7603      7559      7562      7563      7564
      7559      7562      7563      7565      7559      7562      7593      7591
      7559      7562      7593      7594      7559      7562      7593      7598
      7560      7559      7555      7601      7560      7559      7562      7563
      7560      7559      7562      7593      7561      7559      7555      7601
      7561      7559      7562      7563      7561      7559      7562      7593
      7562      7559      7555      7601      7562      7563      7565      7566
      7562      7563      7565      7567      7562      7563      7565      7568
      7562      7593      7591      7568      7562      7593      7591      7588
      7562      7593      7591      7592      7562      7593      7594      7595
      7562      7593      7594      7596      7562      7593      7594      7597
      7562      7593      7598      7599      7562      7593      7598      7600
      7562      7593      7598      7601      7563      7562      7593      7591
      7563      7562      7593      7594      7563      7562      7593      7598
      7563      7565      7568      7569      7563      7565      7568      7570
      7563      7565      7568      7591      7564      7563      7562      7593
      7564      7563      7565      7566      7564      7563      7565      7567
      7564      7563      7565      7568      7565      7563      7562      7593
      7565      7568      7570      7571      7565      7568      7570      7572
      7565      7568      7570      7580      7565      7568      7591      7588
      7565      7568      7591      7592      7565      7568      7591      7593
      7566      7565      7568      7569      7566      7565      7568      7570
      7566      7565      7568      7591      7567      7565      7568      7569
      7567      7565      7568      7570      7567      7565      7568      7591
      7568      7570      7572      7573      7568      7570      7572      7574
      7568      7570      7572      7575      7568      7570      7580      7578
      7568      7570      7580      7581      7568      7570      7580      7585
      7568      7591      7588      7585      7568      7591      7588      7589
      7568      7591      7588      7590      7568      7591      7593      7594
      7568      7591      7593      7598      7569      7568      7570      7571
      7569      7568      7570      7572      7569      7568      7570      7580
      7569      7568      7591      7588      7569      7568      7591      7592
      7569      7568      7591      7593      7570      7568      7591      7588
      7570      7568      7591      7592      7570      7568      7591      7593
      7570      7572      7575      7576      7570      7572      7575      7577
      7570      7572      7575      7578      7570      7580      7578      7575
      7570      7580      7578      7579      7570      7580      7578      7604
      7570      7580      7581      7582      7570      7580      7581      7583
      7570      7580      7581      7584      7570      7580      7585      7586
      7570      7580      7585      7587      7570      7580      7585      7588
      7571      7570      7568      7591      7571      7570      7572      7573
      7571      7570      7572      7574      7571      7570      7572      7575
      7571      7570      7580      7578      7571      7570      7580      7581
      7571      7570      7580      7585      7572      7570      7568      7591
      7572      7570      7580      7578      7572      7570      7580      7581
      7572      7570      7580      7585      7572      7575      7578      7579
      7572      7575      7578      7580      7572      7575      7578      7604
      7573      7572      7570      7580      7573      7572      7575      7576
      7573      7572      7575      7577      7573      7572      7575      7578
      7574      7572      7570      7580      7574      7572      7575      7576
      7574      7572      7575      7577      7574      7572      7575      7578
      7575      7572      7570      7580      7575      7578      7580      7581
      7575      7578      7580      7585      7575      7578      7604      7605
      7575      7578      7604      7606      7575      7578      7604      7610
      7576      7575      7578      7579      7576      7575      7578      7580
      7576      7575      7578      7604      7577      7575      7578      7579
      7577      7575      7578      7580      7577      7575      7578      7604
      7578      7580      7581      7582      7578      7580      7581      7583
      7578      7580      7581      7584      7578      7580      7585      7586
      7578      7580      7585      7587      7578      7580      7585      7588
      7578      7604      7606      7607      7578      7604      7606      7608
      7578      7604      7606      7609      7578      7604      7610      7611
      7578      7604      7610      7612      7578      7604      7610      7613
      7579      7578      7580      7581      7579      7578      7580      7585
      7579      7578      7604      7605      7579      7578      7604      7606
      7579      7578      7604      7610      7580      7570      7568      7591
      7580      7578      7604      7605      7580      7578      7604      7606
      7580      7578      7604      7610      7580      7585      7588      7589
      7580      7585      7588      7590      7580      7585      7588      7591
      7581      7580      7578      7604      7581      7580      7585      7586
      7581      7580      7585      7587      7581      7580      7585      7588
      7582      7581      7580      7585      7583      7581      7580      7585
      7584      7581      7580      7585      7585      7580      7578      7604
      7585      7588      7591      7592      7585      7588      7591      7593
      7586      7585      7588      7589      7586      7585      7588      7590
      7586      7585      7588      7591      7587      7585      7588      7589
      7587      7585      7588      7590      7587      7585      7588      7591
      7588      7591      7593      7594      7588      7591      7593      7598
      7589      7588      7591      7592      7589      7588      7591      7593
      7590      7588      7591      7592      7590      7588      7591      7593
      7591      7593      7594      7595      7591      7593      7594      7596
      7591      7593      7594      7597      7591      7593      7598      7599
      7591      7593      7598      7600      7591      7593      7598      7601
      7592      7591      7593      7594      7592      7591      7593      7598
      7593      7598      7601      7602      7593      7598      7601      7603
      7594      7593      7598      7599      7594      7593      7598      7600
      7594      7593      7598      7601      7595      7594      7593      7598
      7596      7594      7593      7598      7597      7594      7593      7598
      7599      7598      7601      7602      7599      7598      7601      7603
      7600      7598      7601      7602      7600      7598      7601      7603
      7604      7610      7613      7614      7604      7610      7613      7615
      7604      7610      7613      7616      7605      7604      7606      7607
      7605      7604      7606      7608      7605      7604      7606      7609
      7605      7604      7610      7611      7605      7604      7610      7612
      7605      7604      7610      7613      7606      7604      7610      7611
      7606      7604      7610      7612      7606      7604      7610      7613
      7607      7606      7604      7610      7608      7606      7604      7610
      7609      7606      7604      7610      7610      7613      7616      7617
      7610      7613      7616      7618      7610      7613      7616      7619
      7611      7610      7613      7614      7611      7610      7613      7615
      7611      7610      7613      7616      7612      7610      7613      7614
      7612      7610      7613      7615      7612      7610      7613      7616
      7613      7616      7619      7620      7613      7616      7619      7621
      7613      7616      7619      7625      7614      7613      7616      7617
      7614      7613      7616      7618      7614      7613      7616      7619
      7615      7613      7616      7617      7615      7613      7616      7618
      7615      7613      7616      7619      7616      7619      7621      7622
      7616      7619      7621      7623      7616      7619      7621      7624
      7616      7619      7625      7626      7616      7619      7625      7627
      7616      7619      7625      7628      7617      7616      7619      7620
      7617      7616      7619      7621      7617      7616      7619      7625
      7618      7616      7619      7620      7618      7616      7619      7621
      7618      7616      7619      7625      7620      7619      7621      7622
      7620      7619      7621      7623      7620      7619      7621      7624
      7620      7619      7625      7626      7620      7619      7625      7627
      7620      7619      7625      7628      7621      7619      7625      7626
      7621      7619      7625      7627      7621      7619      7625      7628
      7622      7621      7619      7625      7623      7621      7619      7625
      7624      7621      7619      7625      7629      7633      7636      7637
      7629      7633      7636      7667      7629      7675      7672      7667
      7629      7675      7672      7673      7629      7675      7672      7674
      7630      7629      7631      7632      7630      7629      7633      7634
      7630      7629      7633      7635      7630      7629      7633      7636
      7630      7629      7675      7672      7630      7629      7675      7676
      7630      7629      7675      7677      7631      7629      7633      7634
      7631      7629      7633      7635      7631      7629      7633      7636
      7631      7629      7675      7672      7631      7629      7675      7676
      7631      7629      7675      7677      7632      7631      7629      7633
      7632      7631      7629      7675      7633      7629      7675      7672
      7633      7629      7675      7676      7633      7629      7675      7677
      7633      7636      7637      7638      7633      7636      7637      7639
      7633      7636      7667      7665      7633      7636      7667      7668
      7633      7636      7667      7672      7634      7633      7629      7675
      7634      7633      7636      7637      7634      7633      7636      7667
      7635      7633      7629      7675      7635      7633      7636      7637
      7635      7633      7636      7667      7636      7633      7629      7675
      7636      7637      7639      7640      7636      7637      7639      7641
      7636      7637      7639      7642      7636      7667      7665      7642
      7636      7667      7665      7662      7636      7667      7665      7666
      7636      7667      7668      7669      7636      7667      7668      7670
      7636      7667      7668      7671      7636      7667      7672      7673
      7636      7667      7672      7674      7636      7667      7672      7675
      7637      7636      7667      7665      7637      7636      7667      7668
      7637      7636      7667      7672      7637      7639      7642      7643
      7637      7639      7642      7644      7637      7639      7642      7665
      7638      7637      7636      7667      7638      7637      7639      7640
      7638      7637      7639      7641      7638      7637      7639      7642
      7639      7637      7636      7667      7639      7642      7644      7645
      7639      7642      7644      7646      7639      7642      7644      7654
      7639      7642      7665      7662      7639      7642      7665      7666
      7639      7642      7665      7667      7640      7639      7642      7643
      7640      7639      7642      7644      7640      7639      7642      7665
      7641      7639      7642      7643      7641      7639      7642      7644
      7641      7639      7642      7665      7642      7644      7646      7647
      7642      7644      7646      7648      7642      7644      7646      7649
      7642      7644      7654      7652      7642      7644      7654      7655
      7642      7644      7654      7659      7642      7665      7662      7659
      7642      7665      7662      7663      7642      7665      7662      7664
      7642      7665      7667      7668      7642      7665      7667      7672
      7643      7642      7644      7645      7643      7642      7644      7646
      7643      7642      7644      7654      7643      7642      7665      7662
      7643      7642      7665      7666      7643      7642      7665      7667
      7644      7642      7665      7662      7644      7642      7665      7666
      7644      7642      7665      7667      7644      7646      7649      7650
      7644      7646      7649      7651      7644      7646      7649      7652
      7644      7654      7652      7649      7644      7654      7652      7653
      7644      7654      7652      7678      7644      7654      7655      7656
      7644      7654      7655      7657      7644      7654      7655      7658
      7644      7654      7659      7660      7644      7654      7659      7661
      7644      7654      7659      7662      7645      7644      7642      7665
      7645      7644      7646      7647      7645      7644      7646      7648
      7645      7644      7646      7649      7645      7644      7654      7652
      7645      7644      7654      7655      7645      7644      7654      7659
      7646      7644      7642      7665      7646      7644      7654      7652
      7646      7644      7654      7655      7646      7644      7654      7659
      7646      7649      7652      7653      7646      7649      7652      7654
      7646      7649      7652      7678      7647      7646      7644      7654
      7647      7646      7649      7650      7647      7646      7649      7651
      7647      7646      7649      7652      7648      7646      7644      7654
      7648      7646      7649      7650      7648      7646      7649      7651
      7648      7646      7649      7652      7649      7646      7644      7654
      7649      7652      7654      7655      7649      7652      7654      7659
      7649      7652      7678      7679      7649      7652      7678      7680
      7649      7652      7678      7684      7650      7649      7652      7653
      7650      7649      7652      7654      7650      7649      7652      7678
      7651      7649      7652      7653      7651      7649      7652      7654
      7651      7649      7652      7678      7652      7654      7655      7656
      7652      7654      7655      7657      7652      7654      7655      7658
      7652      7654      7659      7660      7652      7654      7659      7661
      7652      7654      7659      7662      7652      7678      7680      7681
      7652      7678      7680      7682      7652      7678      7680      7683
      7652      7678      7684      7685      7652      7678      7684      7686
      7652      7678      7684      7687      7653      7652      7654      7655
      7653      7652      7654      7659      7653      7652      7678      7679
      7653      7652      7678      7680      7653      7652      7678      7684
      7654      7644      7642      7665      7654      7652      7678      7679
      7654      7652      7678      7680      7654      7652      7678      7684
      7654      7659      7662      7663      7654      7659      7662      7664
      7654      7659      7662      7665      7655      7654      7652      7678
      7655      7654      7659      7660      7655      7654      7659      7661
      7655      7654      7659      7662      7656      7655      7654      7659
      7657      7655      7654      7659      7658      7655      7654      7659
      7659      7654      7652      7678      7659      7662      7665      7666
      7659      7662      7665      7667      7660      7659      7662      7663
      7660      7659      7662      7664      7660      7659      7662      7665
      7661      7659      7662      7663      7661      7659      7662      7664
      7661      7659      7662      7665      7662      7665      7667      7668
      7662      7665      7667      7672      7663      7662      7665      7666
      7663      7662      7665      7667      7664      7662      7665      7666
      7664      7662      7665      7667      7665      7667      7668      7669
      7665      7667      7668      7670      7665      7667      7668      7671
      7665      7667      7672      7673      7665      7667      7672      7674
      7665      7667      7672      7675      7666      7665      7667      7668
      7666      7665      7667      7672      7667      7672      7675      7676
      7667      7672      7675      7677      7668      7667      7672      7673
      7668      7667      7672      7674      7668      7667      7672      7675
      7669      7668      7667      7672      7670      7668      7667      7672
      7671      7668      7667      7672      7673      7672      7675      7676
      7673      7672      7675      7677      7674      7672      7675      7676
      7674      7672      7675      7677      7678      7684      7687      7688
      7678      7684      7687      7689      7678      7684      7687      7690
      7679      7678      7680      7681      7679      7678      7680      7682
      7679      7678      7680      7683      7679      7678      7684      7685
      7679      7678      7684      7686      7679      7678      7684      7687
      7680      7678      7684      7685      7680      7678      7684      7686
      7680      7678      7684      7687      7681      7680      7678      7684
      7682      7680      7678      7684      7683      7680      7678      7684
      7684      7687      7690      7691      7684      7687      7690      7692
      7684      7687      7690      7693      7685      7684      7687      7688
      7685      7684      7687      7689      7685      7684      7687      7690
      7686      7684      7687      7688      7686      7684      7687      7689
      7686      7684      7687      7690      7687      7690      7693      7694
      7687      7690      7693      7695      7687      7690      7693      7699
      7688      7687      7690      7691      7688      7687      7690      7692
      7688      7687      7690      7693      7689      7687      7690      7691
      7689      7687      7690      7692      7689      7687      7690      7693
      7690      7693      7695      7696      7690      7693      7695      7697
      7690      7693      7695      7698      7690      7693      7699      7700
      7690      7693      7699      7701      7690      7693      7699      7702
      7691      7690      7693      7694      7691      7690      7693      7695
      7691      7690      7693      7699      7692      7690      7693      7694
      7692      7690      7693      7695      7692      7690      7693      7699
      7694      7693      7695      7696      7694      7693      7695      7697
      7694      7693      7695      7698      7694      7693      7699      7700
      7694      7693      7699      7701      7694      7693      7699      7702
      7695      7693      7699      7700      7695      7693      7699      7701
      7695      7693      7699      7702      7696      7695      7693      7699
      7697      7695      7693      7699      7698      7695      7693      7699
      7703      7707      7710      7711      7703      7707      7710      7741
      7703      7749      7746      7741      7703      7749      7746      7747
      7703      7749      7746      7748      7704      7703      7705      7706
      7704      7703      7707      7708      7704      7703      7707      7709
      7704      7703      7707      7710      7704      7703      7749      7746
      7704      7703      7749      7750      7704      7703      7749      7751
      7705      7703      7707      7708      7705      7703      7707      7709
      7705      7703      7707      7710      7705      7703      7749      7746
      7705      7703      7749      7750      7705      7703      7749      7751
      7706      7705      7703      7707      7706      7705      7703      7749
      7707      7703      7749      7746      7707      7703      7749      7750
      7707      7703      7749      7751      7707      7710      7711      7712
      7707      7710      7711      7713      7707      7710      7741      7739
      7707      7710      7741      7742      7707      7710      7741      7746
      7708      7707      7703      7749      7708      7707      7710      7711
      7708      7707      7710      7741      7709      7707      7703      7749
      7709      7707      7710      7711      7709      7707      7710      7741
      7710      7707      7703      7749      7710      7711      7713      7714
      7710      7711      7713      7715      7710      7711      7713      7716
      7710      7741      7739      7716      7710      7741      7739      7736
      7710      7741      7739      7740      7710      7741      7742      7743
      7710      7741      7742      7744      7710      7741      7742      7745
      7710      7741      7746      7747      7710      7741      7746      7748
      7710      7741      7746      7749      7711      7710      7741      7739
      7711      7710      7741      7742      7711      7710      7741      7746
      7711      7713      7716      7717      7711      7713      7716      7718
      7711      7713      7716      7739      7712      7711      7710      7741
      7712      7711      7713      7714      7712      7711      7713      7715
      7712      7711      7713      7716      7713      7711      7710      7741
      7713      7716      7718      7719      7713      7716      7718      7720
      7713      7716      7718      7728      7713      7716      7739      7736
      7713      7716      7739      7740      7713      7716      7739      7741
      7714      7713      7716      7717      7714      7713      7716      7718
      7714      7713      7716      7739      7715      7713      7716      7717
      7715      7713      7716      7718      7715      7713      7716      7739
      7716      7718      7720      7721      7716      7718      7720      7722
      7716      7718      7720      7723      7716      7718      7728      7726
      7716      7718      7728      7729      7716      7718      7728      7733
      7716      7739      7736      7733      7716      7739      7736      7737
      7716      7739      7736      7738      7716      7739      7741      7742
      7716      7739      7741      7746      7717      7716      7718      7719
      7717      7716      7718      7720      7717      7716      7718      7728
      7717      7716      7739      7736      7717      7716      7739      7740
      7717      7716      7739      7741      7718      7716      7739      7736
      7718      7716      7739      7740      7718      7716      7739      7741
      7718      7720      7723      7724      7718      7720      7723      7725
      7718      7720      7723      7726      7718      7728      7726      7723
      7718      7728      7726      7727      7718      7728      7726      7752
      7718      7728      7729      7730      7718      7728      7729      7731
      7718      7728      7729      7732      7718      7728      7733      7734
      7718      7728      7733      7735      7718      7728      7733      7736
      7719      7718      7716      7739      7719      7718      7720      7721
      7719      7718      7720      7722      7719      7718      7720      7723
      7719      7718      7728      7726      7719      7718      7728      7729
      7719      7718      7728      7733      7720      7718      7716      7739
      7720      7718      7728      7726      7720      7718      7728      7729
      7720      7718      7728      7733      7720      7723      7726      7727
      7720      7723      7726      7728      7720      7723      7726      7752
      7721      7720      7718      7728      7721      7720      7723      7724
      7721      7720      7723      7725      7721      7720      7723      7726
      7722      7720      7718      7728      7722      7720      7723      7724
      7722      7720      7723      7725      7722      7720      7723      7726
      7723      7720      7718      7728      7723      7726      7728      7729
      7723      7726      7728      7733      7723      7726      7752      7753
      7723      7726      7752      7754      7723      7726      7752      7758
      7724      7723      7726      7727      7724      7723      7726      7728
      7724      7723      7726      7752      7725      7723      7726      7727
      7725      7723      7726      7728      7725      7723      7726      7752
      7726      7728      7729      7730      7726      7728      7729      7731
      7726      7728      7729      7732      7726      7728      7733      7734
      7726      7728      7733      7735      7726      7728      7733      7736
      7726      7752      7754      7755      7726      7752      7754      7756
      7726      7752      7754      7757      7726      7752      7758      7759
      7726      7752      7758      7760      7726      7752      7758      7761
      7727      7726      7728      7729      7727      7726      7728      7733
      7727      7726      7752      7753      7727      7726      7752      7754
      7727      7726      7752      7758      7728      7718      7716      7739
      7728      7726      7752      7753      7728      7726      7752      7754
      7728      7726      7752      7758      7728      7733      7736      7737
      7728      7733      7736      7738      7728      7733      7736      7739
      7729      7728      7726      7752      7729      7728      7733      7734
      7729      7728      7733      7735      7729      7728      7733      7736
      7730      7729      7728      7733      7731      7729      7728      7733
      7732      7729      7728      7733      7733      7728      7726      7752
      7733      7736      7739      7740      7733      7736      7739      7741
      7734      7733      7736      7737      7734      7733      7736      7738
      7734      7733      7736      7739      7735      7733      7736      7737
      7735      7733      7736      7738      7735      7733      7736      7739
      7736      7739      7741      7742      7736      7739      7741      7746
      7737      7736      7739      7740      7737      7736      7739      7741
      7738      7736      7739      7740      7738      7736      7739      7741
      7739      7741      7742      7743      7739      7741      7742      7744
      7739      7741      7742      7745      7739      7741      7746      7747
      7739      7741      7746      7748      7739      7741      7746      7749
      7740      7739      7741      7742      7740      7739      7741      7746
      7741      7746      7749      7750      7741      7746      7749      7751
      7742      7741      7746      7747      7742      7741      7746      7748
      7742      7741      7746      7749      7743      7742      7741      7746
      7744      7742      7741      7746      7745      7742      7741      7746
      7747      7746      7749      7750      7747      7746      7749      7751
      7748      7746      7749      7750      7748      7746      7749      7751
      7752      7758      7761      7762      7752      7758      7761      7763
      7752      7758      7761      7764      7753      7752      7754      7755
      7753      7752      7754      7756      7753      7752      7754      7757
      7753      7752      7758      7759      7753      7752      7758      7760
      7753      7752      7758      7761      7754      7752      7758      7759
      7754      7752      7758      7760      7754      7752      7758      7761
      7755      7754      7752      7758      7756      7754      7752      7758
      7757      7754      7752      7758      7758      7761      7764      7765
      7758      7761      7764      7766      7758      7761      7764      7767
      7759      7758      7761      7762      7759      7758      7761      7763
      7759      7758      7761      7764      7760      7758      7761      7762
      7760      7758      7761      7763      7760      7758      7761      7764
      7761      7764      7767      7768      7761      7764      7767      7769
      7761      7764      7767      7773      7762      7761      7764      7765
      7762      7761      7764      7766      7762      7761      7764      7767
      7763      7761      7764      7765      7763      7761      7764      7766
      7763      7761      7764      7767      7764      7767      7769      7770
      7764      7767      7769      7771      7764      7767      7769      7772
      7764      7767      7773      7774      7764      7767      7773      7775
      7764      7767      7773      7776      7765      7764      7767      7768
      7765      7764      7767      7769      7765      7764      7767      7773
      7766      7764      7767      7768      7766      7764      7767      7769
      7766      7764      7767      7773      7768      7767      7769      7770
      7768      7767      7769      7771      7768      7767      7769      7772
      7768      7767      7773      7774      7768      7767      7773      7775
      7768      7767      7773      7776      7769      7767      7773      7774
      7769      7767      7773      7775      7769      7767      7773      7776
      7770      7769      7767      7773      7771      7769      7767      7773
      7772      7769      7767      7773      7777      7781      7784      7785
      7777      7781      7784      7815      7777      7823      7820      7815
      7777      7823      7820      7821      7777      7823      7820      7822
      7778      7777      7779      7780      7778      7777      7781      7782
      7778      7777      7781      7783      7778      7777      7781      7784
      7778      7777      7823      7820      7778      7777      7823      7824
      7778      7777      7823      7825      7779      7777      7781      7782
      7779      7777      7781      7783      7779      7777      7781      7784
      7779      7777      7823      7820      7779      7777      7823      7824
      7779      7777      7823      7825      7780      7779      7777      7781
      7780      7779      7777      7823      7781      7777      7823      7820
      7781      7777      7823      7824      7781      7777      7823      7825
      7781      7784      7785      7786      7781      7784      7785      7787
      7781      7784      7815      7813      7781      7784      7815      7816
      7781      7784      7815      7820      7782      7781      7777      7823
      7782      7781      7784      7785      7782      7781      7784      7815
      7783      7781      7777      7823      7783      7781      7784      7785
      7783      7781      7784      7815      7784      7781      7777      7823
      7784      7785      7787      7788      7784      7785      7787      7789
      7784      7785      7787      7790      7784      7815      7813      7790
      7784      7815      7813      7810      7784      7815      7813      7814
      7784      7815      7816      7817      7784      7815      7816      7818
      7784      7815      7816      7819      7784      7815      7820      7821
      7784      7815      7820      7822      7784      7815      7820      7823
      7785      7784      7815      7813      7785      7784      7815      7816
      7785      7784      7815      7820      7785      7787      7790      7791
      7785      7787      7790      7792      7785      7787      7790      7813
      7786      7785      7784      7815      7786      7785      7787      7788
      7786      7785      7787      7789      7786      7785      7787      7790
      7787      7785      7784      7815      7787      7790      7792      7793
      7787      7790      7792      7794      7787      7790      7792      7802
      7787      7790      7813      7810      7787      7790      7813      7814
      7787      7790      7813      7815      7788      7787      7790      7791
      7788      7787      7790      7792      7788      7787      7790      7813
      7789      7787      7790      7791      7789      7787      7790      7792
      7789      7787      7790      7813      7790      7792      7794      7795
      7790      7792      7794      7796      7790      7792      7794      7797
      7790      7792      7802      7800      7790      7792      7802      7803
      7790      7792      7802      7807      7790      7813      7810      7807
      7790      7813      7810      7811      7790      7813      7810      7812
      7790      7813      7815      7816      7790      7813      7815      7820
      7791      7790      7792      7793      7791      7790      7792      7794
      7791      7790      7792      7802      7791      7790      7813      7810
      7791      7790      7813      7814      7791      7790      7813      7815
      7792      7790      7813      7810      7792      7790      7813      7814
      7792      7790      7813      7815      7792      7794      7797      7798
      7792      7794      7797      7799      7792      7794      7797      7800
      7792      7802      7800      7797      7792      7802      7800      7801
      7792      7802      7800      7826      7792      7802      7803      7804
      7792      7802      7803      7805      7792      7802      7803      7806
      7792      7802      7807      7808      7792      7802      7807      7809
      7792      7802      7807      7810      7793      7792      7790      7813
      7793      7792      7794      7795      7793      7792      7794      7796
      7793      7792      7794      7797      7793      7792      7802      7800
      7793      7792      7802      7803      7793      7792      7802      7807
      7794      7792      7790      7813      7794      7792      7802      7800
      7794      7792      7802      7803      7794      7792      7802      7807
      7794      7797      7800      7801      7794      7797      7800      7802
      7794      7797      7800      7826      7795      7794      7792      7802
      7795      7794      7797      7798      7795      7794      7797      7799
      7795      7794      7797      7800      7796      7794      7792      7802
      7796      7794      7797      7798      7796      7794      7797      7799
      7796      7794      7797      7800      7797      7794      7792      7802
      7797      7800      7802      7803      7797      7800      7802      7807
      7797      7800      7826      7827      7797      7800      7826      7828
      7797      7800      7826      7832      7798      7797      7800      7801
      7798      7797      7800      7802      7798      7797      7800      7826
      7799      7797      7800      7801      7799      7797      7800      7802
      7799      7797      7800      7826      7800      7802      7803      7804
      7800      7802      7803      7805      7800      7802      7803      7806
      7800      7802      7807      7808      7800      7802      7807      7809
      7800      7802      7807      7810      7800      7826      7828      7829
      7800      7826      7828      7830      7800      7826      7828      7831
      7800      7826      7832      7833      7800      7826      7832      7834
      7800      7826      7832      7835      7801      7800      7802      7803
      7801      7800      7802      7807      7801      7800      7826      7827
      7801      7800      7826      7828      7801      7800      7826      7832
      7802      7792      7790      7813      7802      7800      7826      7827
      7802      7800      7826      7828      7802      7800      7826      7832
      7802      7807      7810      7811      7802      7807      7810      7812
      7802      7807      7810      7813      7803      7802      7800      7826
      7803      7802      7807      7808      7803      7802      7807      7809
      7803      7802      7807      7810      7804      7803      7802      7807
      7805      7803      7802      7807      7806      7803      7802      7807
      7807      7802      7800      7826      7807      7810      7813      7814
      7807      7810      7813      7815      7808      7807      7810      7811
      7808      7807      7810      7812      7808      7807      7810      7813
      7809      7807      7810      7811      7809      7807      7810      7812
      7809      7807      7810      7813      7810      7813      7815      7816
      7810      7813      7815      7820      7811      7810      7813      7814
      7811      7810      7813      7815      7812      7810      7813      7814
      7812      7810      7813      7815      7813      7815      7816      7817
      7813      7815      7816      7818      7813      7815      7816      7819
      7813      7815      7820      7821      7813      7815      7820      7822
      7813      7815      7820      7823      7814      7813      7815      7816
      7814      7813      7815      7820      7815      7820      7823      7824
      7815      7820      7823      7825      7816      7815      7820      7821
      7816      7815      7820      7822      7816      7815      7820      7823
      7817      7816      7815      7820      7818      7816      7815      7820
      7819      7816      7815      7820      7821      7820      7823      7824
      7821      7820      7823      7825      7822      7820      7823      7824
      7822      7820      7823      7825      7826      7832      7835      7836
      7826      7832      7835      7837      7826      7832      7835      7838
      7827      7826      7828      7829      7827      7826      7828      7830
      7827      7826      7828      7831      7827      7826      7832      7833
      7827      7826      7832      7834      7827      7826      7832      7835
      7828      7826      7832      7833      7828      7826      7832      7834
      7828      7826      7832      7835      7829      7828      7826      7832
      7830      7828      7826      7832      7831      7828      7826      7832
      7832      7835      7838      7839      7832      7835      7838      7840
      7832      7835      7838      7841      7833      7832      7835      7836
      7833      7832      7835      7837      7833      7832      7835      7838
      7834      7832      7835      7836      7834      7832      7835      7837
      7834      7832      7835      7838      7835      7838      7841      7842
      7835      7838      7841      7843      7835      7838      7841      7847
      7836      7835      7838      7839      7836      7835      7838      7840
      7836      7835      7838      7841      7837      7835      7838      7839
      7837      7835      7838      7840      7837      7835      7838      7841
      7838      7841      7843      7844      7838      7841      7843      7845
      7838      7841      7843      7846      7838      7841      7847      7848
      7838      7841      7847      7849      7838      7841      7847      7850
      7839      7838      7841      7842      7839      7838      7841      7843
      7839      7838      7841      7847      7840      7838      7841      7842
      7840      7838      7841      7843      7840      7838      7841      7847
      7842      7841      7843      7844      7842      7841      7843      7845
      7842      7841      7843      7846      7842      7841      7847      7848
      7842      7841      7847      7849      7842      7841      7847      7850
      7843      7841      7847      7848      7843      7841      7847      7849
      7843      7841      7847      7850      7844      7843      7841      7847
      7845      7843      7841      7847      7846      7843      7841      7847
      7851      7855      7858      7859      7851      7855      7858      7889
      7851      7897      7894      7889      7851      7897      7894      7895
      7851      7897      7894      7896      7852      7851      7853      7854
      7852      7851      7855      7856      7852      7851      7855      7857
      7852      7851      7855      7858      7852      7851      7897      7894
      7852      7851      7897      7898      7852      7851      7897      7899
      7853      7851      7855      7856      7853      7851      7855      7857
      7853      7851      7855      7858      7853      7851      7897      7894
      7853      7851      7897      7898      7853      7851      7897      7899
      7854      7853      7851      7855      7854      7853      7851      7897
      7855      7851      7897      7894      7855      7851      7897      7898
      7855      7851      7897      7899      7855      7858      7859      7860
      7855      7858      7859      7861      7855      7858      7889      7887
      7855      7858      7889      7890      7855      7858      7889      7894
      7856      7855      7851      7897      7856      7855      7858      7859
      7856      7855      7858      7889      7857      7855      7851      7897
      7857      7855      7858      7859      7857      7855      7858      7889
      7858      7855      7851      7897      7858      7859      7861      7862
      7858      7859      7861      7863      7858      7859      7861      7864
      7858      7889      7887      7864      7858      7889      7887      7884
      7858      7889      7887      7888      7858      7889      7890      7891
      7858      7889      7890      7892      7858      7889      7890      7893
      7858      7889      7894      7895      7858      7889      7894      7896
      7858      7889      7894      7897      7859      7858      7889      7887
      7859      7858      7889      7890      7859      7858      7889      7894
      7859      7861      7864      7865      7859      7861      7864      7866
      7859      7861      7864      7887      7860      7859      7858      7889
      7860      7859      7861      7862      7860      7859      7861      7863
      7860      7859      7861      7864      7861      7859      7858      7889
      7861      7864      7866      7867      7861      7864      7866      7868
      7861      7864      7866      7876      7861      7864      7887      7884
      7861      7864      7887      7888      7861      7864      7887      7889
      7862      7861      7864      7865      7862      7861      7864      7866
      7862      7861      7864      7887      7863      7861      7864      7865
      7863      7861      7864      7866      7863      7861      7864      7887
      7864      7866      7868      7869      7864      7866      7868      7870
      7864      7866      7868      7871      7864      7866      7876      7874
      7864      7866      7876      7877      7864      7866      7876      7881
      7864      7887      7884      7881      7864      7887      7884      7885
      7864      7887      7884      7886      7864      7887      7889      7890
      7864      7887      7889      7894      7865      7864      7866      7867
      7865      7864      7866      7868      7865      7864      7866      7876
      7865      7864      7887      7884      7865      7864      7887      7888
      7865      7864      7887      7889      7866      7864      7887      7884
      7866      7864      7887      7888      7866      7864      7887      7889
      7866      7868      7871      7872      7866      7868      7871      7873
      7866      7868      7871      7874      7866      7876      7874      7871
      7866      7876      7874      7875      7866      7876      7874      7900
      7866      7876      7877      7878      7866      7876      7877      7879
      7866      7876      7877      7880      7866      7876      7881      7882
      7866      7876      7881      7883      7866      7876      7881      7884
      7867      7866      7864      7887      7867      7866      7868      7869
      7867      7866      7868      7870      7867      7866      7868      7871
      7867      7866      7876      7874      7867      7866      7876      7877
      7867      7866      7876      7881      7868      7866      7864      7887
      7868      7866      7876      7874      7868      7866      7876      7877
      7868      7866      7876      7881      7868      7871      7874      7875
      7868      7871      7874      7876      7868      7871      7874      7900
      7869      7868      7866      7876      7869      7868      7871      7872
      7869      7868      7871      7873      7869      7868      7871      7874
      7870      7868      7866      7876      7870      7868      7871      7872
      7870      7868      7871      7873      7870      7868      7871      7874
      7871      7868      7866      7876      7871      7874      7876      7877
      7871      7874      7876      7881      7871      7874      7900      7901
      7871      7874      7900      7902      7871      7874      7900      7906
      7872      7871      7874      7875      7872      7871      7874      7876
      7872      7871      7874      7900      7873      7871      7874      7875
      7873      7871      7874      7876      7873      7871      7874      7900
      7874      7876      7877      7878      7874      7876      7877      7879
      7874      7876      7877      7880      7874      7876      7881      7882
      7874      7876      7881      7883      7874      7876      7881      7884
      7874      7900      7902      7903      7874      7900      7902      7904
      7874      7900      7902      7905      7874      7900      7906      7907
      7874      7900      7906      7908      7874      7900      7906      7909
      7875      7874      7876      7877      7875      7874      7876      7881
      7875      7874      7900      7901      7875      7874      7900      7902
      7875      7874      7900      7906      7876      7866      7864      7887
      7876      7874      7900      7901      7876      7874      7900      7902
      7876      7874      7900      7906      7876      7881      7884      7885
      7876      7881      7884      7886      7876      7881      7884      7887
      7877      7876      7874      7900      7877      7876      7881      7882
      7877      7876      7881      7883      7877      7876      7881      7884
      7878      7877      7876      7881      7879      7877      7876      7881
      7880      7877      7876      7881      7881      7876      7874      7900
      7881      7884      7887      7888      7881      7884      7887      7889
      7882      7881      7884      7885      7882      7881      7884      7886
      7882      7881      7884      7887      7883      7881      7884      7885
      7883      7881      7884      7886      7883      7881      7884      7887
      7884      7887      7889      7890      7884      7887      7889      7894
      7885      7884      7887      7888      7885      7884      7887      7889
      7886      7884      7887      7888      7886      7884      7887      7889
      7887      7889      7890      7891      7887      7889      7890      7892
      7887      7889      7890      7893      7887      7889      7894      7895
      7887      7889      7894      7896      7887      7889      7894      7897
      7888      7887      7889      7890      7888      7887      7889      7894
      7889      7894      7897      7898      7889      7894      7897      7899
      7890      7889      7894      7895      7890      7889      7894      7896
      7890      7889      7894      7897      7891      7890      7889      7894
      7892      7890      7889      7894      7893      7890      7889      7894
      7895      7894      7897      7898      7895      7894      7897      7899
      7896      7894      7897      7898      7896      7894      7897      7899
      7900      7906      7909      7910      7900      7906      7909      7911
      7900      7906      7909      7912      7901      7900      7902      7903
      7901      7900      7902      7904      7901      7900      7902      7905
      7901      7900      7906      7907      7901      7900      7906      7908
      7901      7900      7906      7909      7902      7900      7906      7907
      7902      7900      7906      7908      7902      7900      7906      7909
      7903      7902      7900      7906      7904      7902      7900      7906
      7905      7902      7900      7906      7906      7909      7912      7913
      7906      7909      7912      7914      7906      7909      7912      7915
      7907      7906      7909      7910      7907      7906      7909      7911
      7907      7906      7909      7912      7908      7906      7909      7910
      7908      7906      7909      7911      7908      7906      7909      7912
      7909      7912      7915      7916      7909      7912      7915      7917
      7909      7912      7915      7921      7910      7909      7912      7913
      7910      7909      7912      7914      7910      7909      7912      7915
      7911      7909      7912      7913      7911      7909      7912      7914
      7911      7909      7912      7915      7912      7915      7917      7918
      7912      7915      7917      7919      7912      7915      7917      7920
      7912      7915      7921      7922      7912      7915      7921      7923
      7912      7915      7921      7924      7913      7912      7915      7916
      7913      7912      7915      7917      7913      7912      7915      7921
      7914      7912      7915      7916      7914      7912      7915      7917
      7914      7912      7915      7921      7916      7915      7917      7918
      7916      7915      7917      7919      7916      7915      7917      7920
      7916      7915      7921      7922      7916      7915      7921      7923
      7916      7915      7921      7924      7917      7915      7921      7922
      7917      7915      7921      7923      7917      7915      7921      7924
      7918      7917      7915      7921      7919      7917      7915      7921
      7920      7917      7915      7921      7925      7929      7932      7933
      7925      7929      7932      7963      7925      7971      7968      7963
      7925      7971      7968      7969      7925      7971      7968      7970
      7926      7925      7927      7928      7926      7925      7929      7930
      7926      7925      7929      7931      7926      7925      7929      7932
      7926      7925      7971      7968      7926      7925      7971      7972
      7926      7925      7971      7973      7927      7925      7929      7930
      7927      7925      7929      7931      7927      7925      7929      7932
      7927      7925      7971      7968      7927      7925      7971      7972
      7927      7925      7971      7973      7928      7927      7925      7929
      7928      7927      7925      7971      7929      7925      7971      7968
      7929      7925      7971      7972      7929      7925      7971      7973
      7929      7932      7933      7934      7929      7932      7933      7935
      7929      7932      7963      7961      7929      7932      7963      7964
      7929      7932      7963      7968      7930      7929      7925      7971
      7930      7929      7932      7933      7930      7929      7932      7963
      7931      7929      7925      7971      7931      7929      7932      7933
      7931      7929      7932      7963      7932      7929      7925      7971
      7932      7933      7935      7936      7932      7933      7935      7937
      7932      7933      7935      7938      7932      7963      7961      7938
      7932      7963      7961      7958      7932      7963      7961      7962
      7932      7963      7964      7965      7932      7963      7964      7966
      7932      7963      7964      7967      7932      7963      7968      7969
      7932      7963      7968      7970      7932      7963      7968      7971
      7933      7932      7963      7961      7933      7932      7963      7964
      7933      7932      7963      7968      7933      7935      7938      7939
      7933      7935      7938      7940      7933      7935      7938      7961
      7934      7933      7932      7963      7934      7933      7935      7936
      7934      7933      7935      7937      7934      7933      7935      7938
      7935      7933      7932      7963      7935      7938      7940      7941
      7935      7938      7940      7942      7935      7938      7940      7950
      7935      7938      7961      7958      7935      7938      7961      7962
      7935      7938      7961      7963      7936      7935      7938      7939
      7936      7935      7938      7940      7936      7935      7938      7961
      7937      7935      7938      7939      7937      7935      7938      7940
      7937      7935      7938      7961      7938      7940      7942      7943
      7938      7940      7942      7944      7938      7940      7942      7945
      7938      7940      7950      7948      7938      7940      7950      7951
      7938      7940      7950      7955      7938      7961      7958      7955
      7938      7961      7958      7959      7938      7961      7958      7960
      7938      7961      7963      7964      7938      7961      7963      7968
      7939      7938      7940      7941      7939      7938      7940      7942
      7939      7938      7940      7950      7939      7938      7961      7958
      7939      7938      7961      7962      7939      7938      7961      7963
      7940      7938      7961      7958      7940      7938      7961      7962
      7940      7938      7961      7963      7940      7942      7945      7946
      7940      7942      7945      7947      7940      7942      7945      7948
      7940      7950      7948      7945      7940      7950      7948      7949
      7940      7950      7948      7974      7940      7950      7951      7952
      7940      7950      7951      7953      7940      7950      7951      7954
      7940      7950      7955      7956      7940      7950      7955      7957
      7940      7950      7955      7958      7941      7940      7938      7961
      7941      7940      7942      7943      7941      7940      7942      7944
      7941      7940      7942      7945      7941      7940      7950      7948
      7941      7940      7950      7951      7941      7940      7950      7955
      7942      7940      7938      7961      7942      7940      7950      7948
      7942      7940      7950      7951      7942      7940      7950      7955
      7942      7945      7948      7949      7942      7945      7948      7950
      7942      7945      7948      7974      7943      7942      7940      7950
      7943      7942      7945      7946      7943      7942      7945      7947
      7943      7942      7945      7948      7944      7942      7940      7950
      7944      7942      7945      7946      7944      7942      7945      7947
      7944      7942      7945      7948      7945      7942      7940      7950
      7945      7948      7950      7951      7945      7948      7950      7955
      7945      7948      7974      7975      7945      7948      7974      7976
      7945      7948      7974      7980      7946      7945      7948      7949
      7946      7945      7948      7950      7946      7945      7948      7974
      7947      7945      7948      7949      7947      7945      7948      7950
      7947      7945      7948      7974      7948      7950      7951      7952
      7948      7950      7951      7953      7948      7950      7951      7954
      7948      7950      7955      7956      7948      7950      7955      7957
      7948      7950      7955      7958      7948      7974      7976      7977
      7948      7974      7976      7978      7948      7974      7976      7979
      7948      7974      7980      7981      7948      7974      7980      7982
      7948      7974      7980      7983      7949      7948      7950      7951
      7949      7948      7950      7955      7949      7948      7974      7975
      7949      7948      7974      7976      7949      7948      7974      7980
      7950      7940      7938      7961      7950      7948      7974      7975
      7950      7948      7974      7976      7950      7948      7974      7980
      7950      7955      7958      7959      7950      7955      7958      7960
      7950      7955      7958      7961      7951      7950      7948      7974
      7951      7950      7955      7956      7951      7950      7955      7957
      7951      7950      7955      7958      7952      7951      7950      7955
      7953      7951      7950      7955      7954      7951      7950      7955
      7955      7950      7948      7974      7955      7958      7961      7962
      7955      7958      7961      7963      7956      7955      7958      7959
      7956      7955      7958      7960      7956      7955      7958      7961
      7957      7955      7958      7959      7957      7955      7958      7960
      7957      7955      7958      7961      7958      7961      7963      7964
      7958      7961      7963      7968      7959      7958      7961      7962
      7959      7958      7961      7963      7960      7958      7961      7962
      7960      7958      7961      7963      7961      7963      7964      7965
      7961      7963      7964      7966      7961      7963      7964      7967
      7961      7963      7968      7969      7961      7963      7968      7970
      7961      7963      7968      7971      7962      7961      7963      7964
      7962      7961      7963      7968      7963      7968      7971      7972
      7963      7968      7971      7973      7964      7963      7968      7969
      7964      7963      7968      7970      7964      7963      7968      7971
      7965      7964      7963      7968      7966      7964      7963      7968
      7967      7964      7963      7968      7969      7968      7971      7972
      7969      7968      7971      7973      7970      7968      7971      7972
      7970      7968      7971      7973      7974      7980      7983      7984
      7974      7980      7983      7985      7974      7980      7983      7986
      7975      7974      7976      7977      7975      7974      7976      7978
      7975      7974      7976      7979      7975      7974      7980      7981
      7975      7974      7980      7982      7975      7974      7980      7983
      7976      7974      7980      7981      7976      7974      7980      7982
      7976      7974      7980      7983      7977      7976      7974      7980
      7978      7976      7974      7980      7979      7976      7974      7980
      7980      7983      7986      7987      7980      7983      7986      7988
      7980      7983      7986      7989      7981      7980      7983      7984
      7981      7980      7983      7985      7981      7980      7983      7986
      7982      7980      7983      7984      7982      7980      7983      7985
      7982      7980      7983      7986      7983      7986      7989      7990
      7983      7986      7989      7991      7983      7986      7989      7995
      7984      7983      7986      7987      7984      7983      7986      7988
      7984      7983      7986      7989      7985      7983      7986      7987
      7985      7983      7986      7988      7985      7983      7986      7989
      7986      7989      7991      7992      7986      7989      7991      7993
      7986      7989      7991      7994      7986      7989      7995      7996
      7986      7989      7995      7997      7986      7989      7995      7998
      7987      7986      7989      7990      7987      7986      7989      7991
      7987      7986      7989      7995      7988      7986      7989      7990
      7988      7986      7989      7991      7988      7986      7989      7995
      7990      7989      7991      7992      7990      7989      7991      7993
      7990      7989      7991      7994      7990      7989      7995      7996
      7990      7989      7995      7997      7990      7989      7995      7998
      7991      7989      7995      7996      7991      7989      7995      7997
      7991      7989      7995      7998      7992      7991      7989      7995
      7993      7991      7989      7995      7994      7991      7989      7995
      7999      8003      8006      8007      7999      8003      8006      8037
      7999      8045      8042      8037      7999      8045      8042      8043
      7999      8045      8042      8044      8000      7999      8001      8002
      8000      7999      8003      8004      8000      7999      8003      8005
      8000      7999      8003      8006      8000      7999      8045      8042
      8000      7999      8045      8046      8000      7999      8045      8047
      8001      7999      8003      8004      8001      7999      8003      8005
      8001      7999      8003      8006      8001      7999      8045      8042
      8001      7999      8045      8046      8001      7999      8045      8047
      8002      8001      7999      8003      8002      8001      7999      8045
      8003      7999      8045      8042      8003      7999      8045      8046
      8003      7999      8045      8047      8003      8006      8007      8008
      8003      8006      8007      8009      8003      8006      8037      8035
      8003      8006      8037      8038      8003      8006      8037      8042
      8004      8003      7999      8045      8004      8003      8006      8007
      8004      8003      8006      8037      8005      8003      7999      8045
      8005      8003      8006      8007      8005      8003      8006      8037
      8006      8003      7999      8045      8006      8007      8009      8010
      8006      8007      8009      8011      8006      8007      8009      8012
      8006      8037      8035      8012      8006      8037      8035      8032
      8006      8037      8035      8036      8006      8037      8038      8039
      8006      8037      8038      8040      8006      8037      8038      8041
      8006      8037      8042      8043      8006      8037      8042      8044
      8006      8037      8042      8045      8007      8006      8037      8035
      8007      8006      8037      8038      8007      8006      8037      8042
      8007      8009      8012      8013      8007      8009      8012      8014
      8007      8009      8012      8035      8008      8007      8006      8037
      8008      8007      8009      8010      8008      8007      8009      8011
      8008      8007      8009      8012      8009      8007      8006      8037
      8009      8012      8014      8015      8009      8012      8014      8016
      8009      8012      8014      8024      8009      8012      8035      8032
      8009      8012      8035      8036      8009      8012      8035      8037
      8010      8009      8012      8013      8010      8009      8012      8014
      8010      8009      8012      8035      8011      8009      8012      8013
      8011      8009      8012      8014      8011      8009      8012      8035
      8012      8014      8016      8017      8012      8014      8016      8018
      8012      8014      8016      8019      8012      8014      8024      8022
      8012      8014      8024      8025      8012      8014      8024      8029
      8012      8035      8032      8029      8012      8035      8032      8033
      8012      8035      8032      8034      8012      8035      8037      8038
      8012      8035      8037      8042      8013      8012      8014      8015
      8013      8012      8014      8016      8013      8012      8014      8024
      8013      8012      8035      8032      8013      8012      8035      8036
      8013      8012      8035      8037      8014      8012      8035      8032
      8014      8012      8035      8036      8014      8012      8035      8037
      8014      8016      8019      8020      8014      8016      8019      8021
      8014      8016      8019      8022      8014      8024      8022      8019
      8014      8024      8022      8023      8014      8024      8022      8048
      8014      8024      8025      8026      8014      8024      8025      8027
      8014      8024      8025      8028      8014      8024      8029      8030
      8014      8024      8029      8031      8014      8024      8029      8032
      8015      8014      8012      8035      8015      8014      8016      8017
      8015      8014      8016      8018      8015      8014      8016      8019
      8015      8014      8024      8022      8015      8014      8024      8025
      8015      8014      8024      8029      8016      8014      8012      8035
      8016      8014      8024      8022      8016      8014      8024      8025
      8016      8014      8024      8029      8016      8019      8022      8023
      8016      8019      8022      8024      8016      8019      8022      8048
      8017      8016      8014      8024      8017      8016      8019      8020
      8017      8016      8019      8021      8017      8016      8019      8022
      8018      8016      8014      8024      8018      8016      8019      8020
      8018      8016      8019      8021      8018      8016      8019      8022
      8019      8016      8014      8024      8019      8022      8024      8025
      8019      8022      8024      8029      8019      8022      8048      8049
      8019      8022      8048      8050      8019      8022      8048      8054
      8020      8019      8022      8023      8020      8019      8022      8024
      8020      8019      8022      8048      8021      8019      8022      8023
      8021      8019      8022      8024      8021      8019      8022      8048
      8022      8024      8025      8026      8022      8024      8025      8027
      8022      8024      8025      8028      8022      8024      8029      8030
      8022      8024      8029      8031      8022      8024      8029      8032
      8022      8048      8050      8051      8022      8048      8050      8052
      8022      8048      8050      8053      8022      8048      8054      8055
      8022      8048      8054      8056      8022      8048      8054      8057
      8023      8022      8024      8025      8023      8022      8024      8029
      8023      8022      8048      8049      8023      8022      8048      8050
      8023      8022      8048      8054      8024      8014      8012      8035
      8024      8022      8048      8049      8024      8022      8048      8050
      8024      8022      8048      8054      8024      8029      8032      8033
      8024      8029      8032      8034      8024      8029      8032      8035
      8025      8024      8022      8048      8025      8024      8029      8030
      8025      8024      8029      8031      8025      8024      8029      8032
      8026      8025      8024      8029      8027      8025      8024      8029
      8028      8025      8024      8029      8029      8024      8022      8048
      8029      8032      8035      8036      8029      8032      8035      8037
      8030      8029      8032      8033      8030      8029      8032      8034
      8030      8029      8032      8035      8031      8029      8032      8033
      8031      8029      8032      8034      8031      8029      8032      8035
      8032      8035      8037      8038      8032      8035      8037      8042
      8033      8032      8035      8036      8033      8032      8035      8037
      8034      8032      8035      8036      8034      8032      8035      8037
      8035      8037      8038      8039      8035      8037      8038      8040
      8035      8037      8038      8041      8035      8037      8042      8043
      8035      8037      8042      8044      8035      8037      8042      8045
      8036      8035      8037      8038      8036      8035      8037      8042
      8037      8042      8045      8046      8037      8042      8045      8047
      8038      8037      8042      8043      8038      8037      8042      8044
      8038      8037      8042      8045      8039      8038      8037      8042
      8040      8038      8037      8042      8041      8038      8037      8042
      8043      8042      8045      8046      8043      8042      8045      8047
      8044      8042      8045      8046      8044      8042      8045      8047
      8048      8054      8057      8058      8048      8054      8057      8059
      8048      8054      8057      8060      8049      8048      8050      8051
      8049      8048      8050      8052      8049      8048      8050      8053
      8049      8048      8054      8055      8049      8048      8054      8056
      8049      8048      8054      8057      8050      8048      8054      8055
      8050      8048      8054      8056      8050      8048      8054      8057
      8051      8050      8048      8054      8052      8050      8048      8054
      8053      8050      8048      8054      8054      8057      8060      8061
      8054      8057      8060      8062      8054      8057      8060      8063
      8055      8054      8057      8058      8055      8054      8057      8059
      8055      8054      8057      8060      8056      8054      8057      8058
      8056      8054      8057      8059      8056      8054      8057      8060
      8057      8060      8063      8064      8057      8060      8063      8065
      8057      8060      8063      8069      8058      8057      8060      8061
      8058      8057      8060      8062      8058      8057      8060      8063
      8059      8057      8060      8061      8059      8057      8060      8062
      8059      8057      8060      8063      8060      8063      8065      8066
      8060      8063      8065      8067      8060      8063      8065      8068
      8060      8063      8069      8070      8060      8063      8069      8071
      8060      8063      8069      8072      8061      8060      8063      8064
      8061      8060      8063      8065      8061      8060      8063      8069
      8062      8060      8063      8064      8062      8060      8063      8065
      8062      8060      8063      8069      8064      8063      8065      8066
      8064      8063      8065      8067      8064      8063      8065      8068
      8064      8063      8069      8070      8064      8063      8069      8071
      8064      8063      8069      8072      8065      8063      8069      8070
      8065      8063      8069      8071      8065      8063      8069      8072
      8066      8065      8063      8069      8067      8065      8063      8069
      8068      8065      8063      8069      8073      8077      8080      8081
      8073      8077      8080      8111      8073      8119      8116      8111
      8073      8119      8116      8117      8073      8119      8116      8118
      8074      8073      8075      8076      8074      8073      8077      8078
      8074      8073      8077      8079      8074      8073      8077      8080
      8074      8073      8119      8116      8074      8073      8119      8120
      8074      8073      8119      8121      8075      8073      8077      8078
      8075      8073      8077      8079      8075      8073      8077      8080
      8075      8073      8119      8116      8075      8073      8119      8120
      8075      8073      8119      8121      8076      8075      8073      8077
      8076      8075      8073      8119      8077      8073      8119      8116
      8077      8073      8119      8120      8077      8073      8119      8121
      8077      8080      8081      8082      8077      8080      8081      8083
      8077      8080      8111      8109      8077      8080      8111      8112
      8077      8080      8111      8116      8078      8077      8073      8119
      8078      8077      8080      8081      8078      8077      8080      8111
      8079      8077      8073      8119      8079      8077      8080      8081
      8079      8077      8080      8111      8080      8077      8073      8119
      8080      8081      8083      8084      8080      8081      8083      8085
      8080      8081      8083      8086      8080      8111      8109      8086
      8080      8111      8109      8106      8080      8111      8109      8110
      8080      8111      8112      8113      8080      8111      8112      8114
      8080      8111      8112      8115      8080      8111      8116      8117
      8080      8111      8116      8118      8080      8111      8116      8119
      8081      8080      8111      8109      8081      8080      8111      8112
      8081      8080      8111      8116      8081      8083      8086      8087
      8081      8083      8086      8088      8081      8083      8086      8109
      8082      8081      8080      8111      8082      8081      8083      8084
      8082      8081      8083      8085      8082      8081      8083      8086
      8083      8081      8080      8111      8083      8086      8088      8089
      8083      8086      8088      8090      8083      8086      8088      8098
      8083      8086      8109      8106      8083      8086      8109      8110
      8083      8086      8109      8111      8084      8083      8086      8087
      8084      8083      8086      8088      8084      8083      8086      8109
      8085      8083      8086      8087      8085      8083      8086      8088
      8085      8083      8086      8109      8086      8088      8090      8091
      8086      8088      8090      8092      8086      8088      8090      8093
      8086      8088      8098      8096      8086      8088      8098      8099
      8086      8088      8098      8103      8086      8109      8106      8103
      8086      8109      8106      8107      8086      8109      8106      8108
      8086      8109      8111      8112      8086      8109      8111      8116
      8087      8086      8088      8089      8087      8086      8088      8090
      8087      8086      8088      8098      8087      8086      8109      8106
      8087      8086      8109      8110      8087      8086      8109      8111
      8088      8086      8109      8106      8088      8086      8109      8110
      8088      8086      8109      8111      8088      8090      8093      8094
      8088      8090      8093      8095      8088      8090      8093      8096
      8088      8098      8096      8093      8088      8098      8096      8097
      8088      8098      8096      8122      8088      8098      8099      8100
      8088      8098      8099      8101      8088      8098      8099      8102
      8088      8098      8103      8104      8088      8098      8103      8105
      8088      8098      8103      8106      8089      8088      8086      8109
      8089      8088      8090      8091      8089      8088      8090      8092
      8089      8088      8090      8093      8089      8088      8098      8096
      8089      8088      8098      8099      8089      8088      8098      8103
      8090      8088      8086      8109      8090      8088      8098      8096
      8090      8088      8098      8099      8090      8088      8098      8103
      8090      8093      8096      8097      8090      8093      8096      8098
      8090      8093      8096      8122      8091      8090      8088      8098
      8091      8090      8093      8094      8091      8090      8093      8095
      8091      8090      8093      8096      8092      8090      8088      8098
      8092      8090      8093      8094      8092      8090      8093      8095
      8092      8090      8093      8096      8093      8090      8088      8098
      8093      8096      8098      8099      8093      8096      8098      8103
      8093      8096      8122      8123      8093      8096      8122      8124
      8093      8096      8122      8128      8094      8093      8096      8097
      8094      8093      8096      8098      8094      8093      8096      8122
      8095      8093      8096      8097      8095      8093      8096      8098
      8095      8093      8096      8122      8096      8098      8099      8100
      8096      8098      8099      8101      8096      8098      8099      8102
      8096      8098      8103      8104      8096      8098      8103      8105
      8096      8098      8103      8106      8096      8122      8124      8125
      8096      8122      8124      8126      8096      8122      8124      8127
      8096      8122      8128      8129      8096      8122      8128      8130
      8096      8122      8128      8131      8097      8096      8098      8099
      8097      8096      8098      8103      8097      8096      8122      8123
      8097      8096      8122      8124      8097      8096      8122      8128
      8098      8088      8086      8109      8098      8096      8122      8123
      8098      8096      8122      8124      8098      8096      8122      8128
      8098      8103      8106      8107      8098      8103      8106      8108
      8098      8103      8106      8109      8099      8098      8096      8122
      8099      8098      8103      8104      8099      8098      8103      8105
      8099      8098      8103      8106      8100      8099      8098      8103
      8101      8099      8098      8103      8102      8099      8098      8103
      8103      8098      8096      8122      8103      8106      8109      8110
      8103      8106      8109      8111      8104      8103      8106      8107
      8104      8103      8106      8108      8104      8103      8106      8109
      8105      8103      8106      8107      8105      8103      8106      8108
      8105      8103      8106      8109      8106      8109      8111      8112
      8106      8109      8111      8116      8107      8106      8109      8110
      8107      8106      8109      8111      8108      8106      8109      8110
      8108      8106      8109      8111      8109      8111      8112      8113
      8109      8111      8112      8114      8109      8111      8112      8115
      8109      8111      8116      8117      8109      8111      8116      8118
      8109      8111      8116      8119      8110      8109      8111      8112
      8110      8109      8111      8116      8111      8116      8119      8120
      8111      8116      8119      8121      8112      8111      8116      8117
      8112      8111      8116      8118      8112      8111      8116      8119
      8113      8112      8111      8116      8114      8112      8111      8116
      8115      8112      8111      8116      8117      8116      8119      8120
      8117      8116      8119      8121      8118      8116      8119      8120
      8118      8116      8119      8121      8122      8128      8131      8132
      8122      8128      8131      8133      8122      8128      8131      8134
      8123      8122      8124      8125      8123      8122      8124      8126
      8123      8122      8124      8127      8123      8122      8128      8129
      8123      8122      8128      8130      8123      8122      8128      8131
      8124      8122      8128      8129      8124      8122      8128      8130
      8124      8122      8128      8131      8125      8124      8122      8128
      8126      8124      8122      8128      8127      8124      8122      8128
      8128      8131      8134      8135      8128      8131      8134      8136
      8128      8131      8134      8137      8129      8128      8131      8132
      8129      8128      8131      8133      8129      8128      8131      8134
      8130      8128      8131      8132      8130      8128      8131      8133
      8130      8128      8131      8134      8131      8134      8137      8138
      8131      8134      8137      8139      8131      8134      8137      8143
      8132      8131      8134      8135      8132      8131      8134      8136
      8132      8131      8134      8137      8133      8131      8134      8135
      8133      8131      8134      8136      8133      8131      8134      8137
      8134      8137      8139      8140      8134      8137      8139      8141
      8134      8137      8139      8142      8134      8137      8143      8144
      8134      8137      8143      8145      8134      8137      8143      8146
      8135      8134      8137      8138      8135      8134      8137      8139
      8135      8134      8137      8143      8136      8134      8137      8138
      8136      8134      8137      8139      8136      8134      8137      8143
      8138      8137      8139      8140      8138      8137      8139      8141
      8138      8137      8139      8142      8138      8137      8143      8144
      8138      8137      8143      8145      8138      8137      8143      8146
      8139      8137      8143      8144      8139      8137      8143      8145
      8139      8137      8143      8146      8140      8139      8137      8143
      8141      8139      8137      8143      8142      8139      8137      8143
      8147      8151      8154      8155      8147      8151      8154      8185
      8147      8193      8190      8185      8147      8193      8190      8191
      8147      8193      8190      8192      8148      8147      8149      8150
      8148      8147      8151      8152      8148      8147      8151      8153
      8148      8147      8151      8154      8148      8147      8193      8190
      8148      8147      8193      8194      8148      8147      8193      8195
      8149      8147      8151      8152      8149      8147      8151      8153
      8149      8147      8151      8154      8149      8147      8193      8190
      8149      8147      8193      8194      8149      8147      8193      8195
      8150      8149      8147      8151      8150      8149      8147      8193
      8151      8147      8193      8190      8151      8147      8193      8194
      8151      8147      8193      8195      8151      8154      8155      8156
      8151      8154      8155      8157      8151      8154      8185      8183
      8151      8154      8185      8186      8151      8154      8185      8190
      8152      8151      8147      8193      8152      8151      8154      8155
      8152      8151      8154      8185      8153      8151      8147      8193
      8153      8151      8154      8155      8153      8151      8154      8185
      8154      8151      8147      8193      8154      8155      8157      8158
      8154      8155      8157      8159      8154      8155      8157      8160
      8154      8185      8183      8160      8154      8185      8183      8180
      8154      8185      8183      8184      8154      8185      8186      8187
      8154      8185      8186      8188      8154      8185      8186      8189
      8154      8185      8190      8191      8154      8185      8190      8192
      8154      8185      8190      8193      8155      8154      8185      8183
      8155      8154      8185      8186      8155      8154      8185      8190
      8155      8157      8160      8161      8155      8157      8160      8162
      8155      8157      8160      8183      8156      8155      8154      8185
      8156      8155      8157      8158      8156      8155      8157      8159
      8156      8155      8157      8160      8157      8155      8154      8185
      8157      8160      8162      8163      8157      8160      8162      8164
      8157      8160      8162      8172      8157      8160      8183      8180
      8157      8160      8183      8184      8157      8160      8183      8185
      8158      8157      8160      8161      8158      8157      8160      8162
      8158      8157      8160      8183      8159      8157      8160      8161
      8159      8157      8160      8162      8159      8157      8160      8183
      8160      8162      8164      8165      8160      8162      8164      8166
      8160      8162      8164      8167      8160      8162      8172      8170
      8160      8162      8172      8173      8160      8162      8172      8177
      8160      8183      8180      8177      8160      8183      8180      8181
      8160      8183      8180      8182      8160      8183      8185      8186
      8160      8183      8185      8190      8161      8160      8162      8163
      8161      8160      8162      8164      8161      8160      8162      8172
      8161      8160      8183      8180      8161      8160      8183      8184
      8161      8160      8183      8185      8162      8160      8183      8180
      8162      8160      8183      8184      8162      8160      8183      8185
      8162      8164      8167      8168      8162      8164      8167      8169
      8162      8164      8167      8170      8162      8172      8170      8167
      8162      8172      8170      8171      8162      8172      8170      8196
      8162      8172      8173      8174      8162      8172      8173      8175
      8162      8172      8173      8176      8162      8172      8177      8178
      8162      8172      8177      8179      8162      8172      8177      8180
      8163      8162      8160      8183      8163      8162      8164      8165
      8163      8162      8164      8166      8163      8162      8164      8167
      8163      8162      8172      8170      8163      8162      8172      8173
      8163      8162      8172      8177      8164      8162      8160      8183
      8164      8162      8172      8170      8164      8162      8172      8173
      8164      8162      8172      8177      8164      8167      8170      8171
      8164      8167      8170      8172      8164      8167      8170      8196
      8165      8164      8162      8172      8165      8164      8167      8168
      8165      8164      8167      8169      8165      8164      8167      8170
      8166      8164      8162      8172      8166      8164      8167      8168
      8166      8164      8167      8169      8166      8164      8167      8170
      8167      8164      8162      8172      8167      8170      8172      8173
      8167      8170      8172      8177      8167      8170      8196      8197
      8167      8170      8196      8198      8167      8170      8196      8202
      8168      8167      8170      8171      8168      8167      8170      8172
      8168      8167      8170      8196      8169      8167      8170      8171
      8169      8167      8170      8172      8169      8167      8170      8196
      8170      8172      8173      8174      8170      8172      8173      8175
      8170      8172      8173      8176      8170      8172      8177      8178
      8170      8172      8177      8179      8170      8172      8177      8180
      8170      8196      8198      8199      8170      8196      8198      8200
      8170      8196      8198      8201      8170      8196      8202      8203
      8170      8196      8202      8204      8170      8196      8202      8205
      8171      8170      8172      8173      8171      8170      8172      8177
      8171      8170      8196      8197      8171      8170      8196      8198
      8171      8170      8196      8202      8172      8162      8160      8183
      8172      8170      8196      8197      8172      8170      8196      8198
      8172      8170      8196      8202      8172      8177      8180      8181
      8172      8177      8180      8182      8172      8177      8180      8183
      8173      8172      8170      8196      8173      8172      8177      8178
      8173      8172      8177      8179      8173      8172      8177      8180
      8174      8173      8172      8177      8175      8173      8172      8177
      8176      8173      8172      8177      8177      8172      8170      8196
      8177      8180      8183      8184      8177      8180      8183      8185
      8178      8177      8180      8181      8178      8177      8180      8182
      8178      8177      8180      8183      8179      8177      8180      8181
      8179      8177      8180      8182      8179      8177      8180      8183
      8180      8183      8185      8186      8180      8183      8185      8190
      8181      8180      8183      8184      8181      8180      8183      8185
      8182      8180      8183      8184      8182      8180      8183      8185
      8183      8185      8186      8187      8183      8185      8186      8188
      8183      8185      8186      8189      8183      8185      8190      8191
      8183      8185      8190      8192      8183      8185      8190      8193
      8184      8183      8185      8186      8184      8183      8185      8190
      8185      8190      8193      8194      8185      8190      8193      8195
      8186      8185      8190      8191      8186      8185      8190      8192
      8186      8185      8190      8193      8187      8186      8185      8190
      8188      8186      8185      8190      8189      8186      8185      8190
      8191      8190      8193      8194      8191      8190      8193      8195
      8192      8190      8193      8194      8192      8190      8193      8195
      8196      8202      8205      8206      8196      8202      8205      8207
      8196      8202      8205      8208      8197      8196      8198      8199
      8197      8196      8198      8200      8197      8196      8198      8201
      8197      8196      8202      8203      8197      8196      8202      8204
      8197      8196      8202      8205      8198      8196      8202      8203
      8198      8196      8202      8204      8198      8196      8202      8205
      8199      8198      8196      8202      8200      8198      8196      8202
      8201      8198      8196      8202      8202      8205      8208      8209
      8202      8205      8208      8210      8202      8205      8208      8211
      8203      8202      8205      8206      8203      8202      8205      8207
      8203      8202      8205      8208      8204      8202      8205      8206
      8204      8202      8205      8207      8204      8202      8205      8208
      8205      8208      8211      8212      8205      8208      8211      8213
      8205      8208      8211      8217      8206      8205      8208      8209
      8206      8205      8208      8210      8206      8205      8208      8211
      8207      8205      8208      8209      8207      8205      8208      8210
      8207      8205      8208      8211      8208      8211      8213      8214
      8208      8211      8213      8215      8208      8211      8213      8216
      8208      8211      8217      8218      8208      8211      8217      8219
      8208      8211      8217      8220      8209      8208      8211      8212
      8209      8208      8211      8213      8209      8208      8211      8217
      8210      8208      8211      8212      8210      8208      8211      8213
      8210      8208      8211      8217      8212      8211      8213      8214
      8212      8211      8213      8215      8212      8211      8213      8216
      8212      8211      8217      8218      8212      8211      8217      8219
      8212      8211      8217      8220      8213      8211      8217      8218
      8213      8211      8217      8219      8213      8211      8217      8220
      8214      8213      8211      8217      8215      8213      8211      8217
      8216      8213      8211      8217      8221      8225      8228      8229
      8221      8225      8228      8259      8221      8267      8264      8259
      8221      8267      8264      8265      8221      8267      8264      8266
      8222      8221      8223      8224      8222      8221      8225      8226
      8222      8221      8225      8227      8222      8221      8225      8228
      8222      8221      8267      8264      8222      8221      8267      8268
      8222      8221      8267      8269      8223      8221      8225      8226
      8223      8221      8225      8227      8223      8221      8225      8228
      8223      8221      8267      8264      8223      8221      8267      8268
      8223      8221      8267      8269      8224      8223      8221      8225
      8224      8223      8221      8267      8225      8221      8267      8264
      8225      8221      8267      8268      8225      8221      8267      8269
      8225      8228      8229      8230      8225      8228      8229      8231
      8225      8228      8259      8257      8225      8228      8259      8260
      8225      8228      8259      8264      8226      8225      8221      8267
      8226      8225      8228      8229      8226      8225      8228      8259
      8227      8225      8221      8267      8227      8225      8228      8229
      8227      8225      8228      8259      8228      8225      8221      8267
      8228      8229      8231      8232      8228      8229      8231      8233
      8228      8229      8231      8234      8228      8259      8257      8234
      8228      8259      8257      8254      8228      8259      8257      8258
      8228      8259      8260      8261      8228      8259      8260      8262
      8228      8259      8260      8263      8228      8259      8264      8265
      8228      8259      8264      8266      8228      8259      8264      8267
      8229      8228      8259      8257      8229      8228      8259      8260
      8229      8228      8259      8264      8229      8231      8234      8235
      8229      8231      8234      8236      8229      8231      8234      8257
      8230      8229      8228      8259      8230      8229      8231      8232
      8230      8229      8231      8233      8230      8229      8231      8234
      8231      8229      8228      8259      8231      8234      8236      8237
      8231      8234      8236      8238      8231      8234      8236      8246
      8231      8234      8257      8254      8231      8234      8257      8258
      8231      8234      8257      8259      8232      8231      8234      8235
      8232      8231      8234      8236      8232      8231      8234      8257
      8233      8231      8234      8235      8233      8231      8234      8236
      8233      8231      8234      8257      8234      8236      8238      8239
      8234      8236      8238      8240      8234      8236      8238      8241
      8234      8236      8246      8244      8234      8236      8246      8247
      8234      8236      8246      8251      8234      8257      8254      8251
      8234      8257      8254      8255      8234      8257      8254      8256
      8234      8257      8259      8260      8234      8257      8259      8264
      8235      8234      8236      8237      8235      8234      8236      8238
      8235      8234      8236      8246      8235      8234      8257      8254
      8235      8234      8257      8258      8235      8234      8257      8259
      8236      8234      8257      8254      8236      8234      8257      8258
      8236      8234      8257      8259      8236      8238      8241      8242
      8236      8238      8241      8243      8236      8238      8241      8244
      8236      8246      8244      8241      8236      8246      8244      8245
      8236      8246      8244      8270      8236      8246      8247      8248
      8236      8246      8247      8249      8236      8246      8247      8250
      8236      8246      8251      8252      8236      8246      8251      8253
      8236      8246      8251      8254      8237      8236      8234      8257
      8237      8236      8238      8239      8237      8236      8238      8240
      8237      8236      8238      8241      8237      8236      8246      8244
      8237      8236      8246      8247      8237      8236      8246      8251
      8238      8236      8234      8257      8238      8236      8246      8244
      8238      8236      8246      8247      8238      8236      8246      8251
      8238      8241      8244      8245      8238      8241      8244      8246
      8238      8241      8244      8270      8239      8238      8236      8246
      8239      8238      8241      8242      8239      8238      8241      8243
      8239      8238      8241      8244      8240      8238      8236      8246
      8240      8238      8241      8242      8240      8238      8241      8243
      8240      8238      8241      8244      8241      8238      8236      8246
      8241      8244      8246      8247      8241      8244      8246      8251
      8241      8244      8270      8271      8241      8244      8270      8272
      8241      8244      8270      8276      8242      8241      8244      8245
      8242      8241      8244      8246      8242      8241      8244      8270
      8243      8241      8244      8245      8243      8241      8244      8246
      8243      8241      8244      8270      8244      8246      8247      8248
      8244      8246      8247      8249      8244      8246      8247      8250
      8244      8246      8251      8252      8244      8246      8251      8253
      8244      8246      8251      8254      8244      8270      8272      8273
      8244      8270      8272      8274      8244      8270      8272      8275
      8244      8270      8276      8277      8244      8270      8276      8278
      8244      8270      8276      8279      8245      8244      8246      8247
      8245      8244      8246      8251      8245      8244      8270      8271
      8245      8244      8270      8272      8245      8244      8270      8276
      8246      8236      8234      8257      8246      8244      8270      8271
      8246      8244      8270      8272      8246      8244      8270      8276
      8246      8251      8254      8255      8246      8251      8254      8256
      8246      8251      8254      8257      8247      8246      8244      8270
      8247      8246      8251      8252      8247      8246      8251      8253
      8247      8246      8251      8254      8248      8247      8246      8251
      8249      8247      8246      8251      8250      8247      8246      8251
      8251      8246      8244      8270      8251      8254      8257      8258
      8251      8254      8257      8259      8252      8251      8254      8255
      8252      8251      8254      8256      8252      8251      8254      8257
      8253      8251      8254      8255      8253      8251      8254      8256
      8253      8251      8254      8257      8254      8257      8259      8260
      8254      8257      8259      8264      8255      8254      8257      8258
      8255      8254      8257      8259      8256      8254      8257      8258
      8256      8254      8257      8259      8257      8259      8260      8261
      8257      8259      8260      8262      8257      8259      8260      8263
      8257      8259      8264      8265      8257      8259      8264      8266
      8257      8259      8264      8267      8258      8257      8259      8260
      8258      8257      8259      8264      8259      8264      8267      8268
      8259      8264      8267      8269      8260      8259      8264      8265
      8260      8259      8264      8266      8260      8259      8264      8267
      8261      8260      8259      8264      8262      8260      8259      8264
      8263      8260      8259      8264      8265      8264      8267      8268
      8265      8264      8267      8269      8266      8264      8267      8268
      8266      8264      8267      8269      8270      8276      8279      8280
      8270      8276      8279      8281      8270      8276      8279      8282
      8271      8270      8272      8273      8271      8270      8272      8274
      8271      8270      8272      8275      8271      8270      8276      8277
      8271      8270      8276      8278      8271      8270      8276      8279
      8272      8270      8276      8277      8272      8270      8276      8278
      8272      8270      8276      8279      8273      8272      8270      8276
      8274      8272      8270      8276      8275      8272      8270      8276
      8276      8279      8282      8283      8276      8279      8282      8284
      8276      8279      8282      8285      8277      8276      8279      8280
      8277      8276      8279      8281      8277      8276      8279      8282
      8278      8276      8279      8280      8278      8276      8279      8281
      8278      8276      8279      8282      8279      8282      8285      8286
      8279      8282      8285      8287      8279      8282      8285      8291
      8280      8279      8282      8283      8280      8279      8282      8284
      8280      8279      8282      8285      8281      8279      8282      8283
      8281      8279      8282      8284      8281      8279      8282      8285
      8282      8285      8287      8288      8282      8285      8287      8289
      8282      8285      8287      8290      8282      8285      8291      8292
      8282      8285      8291      8293      8282      8285      8291      8294
      8283      8282      8285      8286      8283      8282      8285      8287
      8283      8282      8285      8291      8284      8282      8285      8286
      8284      8282      8285      8287      8284      8282      8285      8291
      8286      8285      8287      8288      8286      8285      8287      8289
      8286      8285      8287      8290      8286      8285      8291      8292
      8286      8285      8291      8293      8286      8285      8291      8294
      8287      8285      8291      8292      8287      8285      8291      8293
      8287      8285      8291      8294      8288      8287      8285      8291
      8289      8287      8285      8291      8290      8287      8285      8291
      8295      8299      8302      8303      8295      8299      8302      8333
      8295      8341      8338      8333      8295      8341      8338      8339
      8295      8341      8338      8340      8296      8295      8297      8298
      8296      8295      8299      8300      8296      8295      8299      8301
      8296      8295      8299      8302      8296      8295      8341      8338
      8296      8295      8341      8342      8296      8295      8341      8343
      8297      8295      8299      8300      8297      8295      8299      8301
      8297      8295      8299      8302      8297      8295      8341      8338
      8297      8295      8341      8342      8297      8295      8341      8343
      8298      8297      8295      8299      8298      8297      8295      8341
      8299      8295      8341      8338      8299      8295      8341      8342
      8299      8295      8341      8343      8299      8302      8303      8304
      8299      8302      8303      8305      8299      8302      8333      8331
      8299      8302      8333      8334      8299      8302      8333      8338
      8300      8299      8295      8341      8300      8299      8302      8303
      8300      8299      8302      8333      8301      8299      8295      8341
      8301      8299      8302      8303      8301      8299      8302      8333
      8302      8299      8295      8341      8302      8303      8305      8306
      8302      8303      8305      8307      8302      8303      8305      8308
      8302      8333      8331      8308      8302      8333      8331      8328
      8302      8333      8331      8332      8302      8333      8334      8335
      8302      8333      8334      8336      8302      8333      8334      8337
      8302      8333      8338      8339      8302      8333      8338      8340
      8302      8333      8338      8341      8303      8302      8333      8331
      8303      8302      8333      8334      8303      8302      8333      8338
      8303      8305      8308      8309      8303      8305      8308      8310
      8303      8305      8308      8331      8304      8303      8302      8333
      8304      8303      8305      8306      8304      8303      8305      8307
      8304      8303      8305      8308      8305      8303      8302      8333
      8305      8308      8310      8311      8305      8308      8310      8312
      8305      8308      8310      8320      8305      8308      8331      8328
      8305      8308      8331      8332      8305      8308      8331      8333
      8306      8305      8308      8309      8306      8305      8308      8310
      8306      8305      8308      8331      8307      8305      8308      8309
      8307      8305      8308      8310      8307      8305      8308      8331
      8308      8310      8312      8313      8308      8310      8312      8314
      8308      8310      8312      8315      8308      8310      8320      8318
      8308      8310      8320      8321      8308      8310      8320      8325
      8308      8331      8328      8325      8308      8331      8328      8329
      8308      8331      8328      8330      8308      8331      8333      8334
      8308      8331      8333      8338      8309      8308      8310      8311
      8309      8308      8310      8312      8309      8308      8310      8320
      8309      8308      8331      8328      8309      8308      8331      8332
      8309      8308      8331      8333      8310      8308      8331      8328
      8310      8308      8331      8332      8310      8308      8331      8333
      8310      8312      8315      8316      8310      8312      8315      8317
      8310      8312      8315      8318      8310      8320      8318      8315
      8310      8320      8318      8319      8310      8320      8318      8344
      8310      8320      8321      8322      8310      8320      8321      8323
      8310      8320      8321      8324      8310      8320      8325      8326
      8310      8320      8325      8327      8310      8320      8325      8328
      8311      8310      8308      8331      8311      8310      8312      8313
      8311      8310      8312      8314      8311      8310      8312      8315
      8311      8310      8320      8318      8311      8310      8320      8321
      8311      8310      8320      8325      8312      8310      8308      8331
      8312      8310      8320      8318      8312      8310      8320      8321
      8312      8310      8320      8325      8312      8315      8318      8319
      8312      8315      8318      8320      8312      8315      8318      8344
      8313      8312      8310      8320      8313      8312      8315      8316
      8313      8312      8315      8317      8313      8312      8315      8318
      8314      8312      8310      8320      8314      8312      8315      8316
      8314      8312      8315      8317      8314      8312      8315      8318
      8315      8312      8310      8320      8315      8318      8320      8321
      8315      8318      8320      8325      8315      8318      8344      8345
      8315      8318      8344      8346      8315      8318      8344      8350
      8316      8315      8318      8319      8316      8315      8318      8320
      8316      8315      8318      8344      8317      8315      8318      8319
      8317      8315      8318      8320      8317      8315      8318      8344
      8318      8320      8321      8322      8318      8320      8321      8323
      8318      8320      8321      8324      8318      8320      8325      8326
      8318      8320      8325      8327      8318      8320      8325      8328
      8318      8344      8346      8347      8318      8344      8346      8348
      8318      8344      8346      8349      8318      8344      8350      8351
      8318      8344      8350      8352      8318      8344      8350      8353
      8319      8318      8320      8321      8319      8318      8320      8325
      8319      8318      8344      8345      8319      8318      8344      8346
      8319      8318      8344      8350      8320      8310      8308      8331
      8320      8318      8344      8345      8320      8318      8344      8346
      8320      8318      8344      8350      8320      8325      8328      8329
      8320      8325      8328      8330      8320      8325      8328      8331
      8321      8320      8318      8344      8321      8320      8325      8326
      8321      8320      8325      8327      8321      8320      8325      8328
      8322      8321      8320      8325      8323      8321      8320      8325
      8324      8321      8320      8325      8325      8320      8318      8344
      8325      8328      8331      8332      8325      8328      8331      8333
      8326      8325      8328      8329      8326      8325      8328      8330
      8326      8325      8328      8331      8327      8325      8328      8329
      8327      8325      8328      8330      8327      8325      8328      8331
      8328      8331      8333      8334      8328      8331      8333      8338
      8329      8328      8331      8332      8329      8328      8331      8333
      8330      8328      8331      8332      8330      8328      8331      8333
      8331      8333      8334      8335      8331      8333      8334      8336
      8331      8333      8334      8337      8331      8333      8338      8339
      8331      8333      8338      8340      8331      8333      8338      8341
      8332      8331      8333      8334      8332      8331      8333      8338
      8333      8338      8341      8342      8333      8338      8341      8343
      8334      8333      8338      8339      8334      8333      8338      8340
      8334      8333      8338      8341      8335      8334      8333      8338
      8336      8334      8333      8338      8337      8334      8333      8338
      8339      8338      8341      8342      8339      8338      8341      8343
      8340      8338      8341      8342      8340      8338      8341      8343
      8344      8350      8353      8354      8344      8350      8353      8355
      8344      8350      8353      8356      8345      8344      8346      8347
      8345      8344      8346      8348      8345      8344      8346      8349
      8345      8344      8350      8351      8345      8344      8350      8352
      8345      8344      8350      8353      8346      8344      8350      8351
      8346      8344      8350      8352      8346      8344      8350      8353
      8347      8346      8344      8350      8348      8346      8344      8350
      8349      8346      8344      8350      8350      8353      8356      8357
      8350      8353      8356      8358      8350      8353      8356      8359
      8351      8350      8353      8354      8351      8350      8353      8355
      8351      8350      8353      8356      8352      8350      8353      8354
      8352      8350      8353      8355      8352      8350      8353      8356
      8353      8356      8359      8360      8353      8356      8359      8361
      8353      8356      8359      8365      8354      8353      8356      8357
      8354      8353      8356      8358      8354      8353      8356      8359
      8355      8353      8356      8357      8355      8353      8356      8358
      8355      8353      8356      8359      8356      8359      8361      8362
      8356      8359      8361      8363      8356      8359      8361      8364
      8356      8359      8365      8366      8356      8359      8365      8367
      8356      8359      8365      8368      8357      8356      8359      8360
      8357      8356      8359      8361      8357      8356      8359      8365
      8358      8356      8359      8360      8358      8356      8359      8361
      8358      8356      8359      8365      8360      8359      8361      8362
      8360      8359      8361      8363      8360      8359      8361      8364
      8360      8359      8365      8366      8360      8359      8365      8367
      8360      8359      8365      8368      8361      8359      8365      8366
      8361      8359      8365      8367      8361      8359      8365      8368
      8362      8361      8359      8365      8363      8361      8359      8365
      8364      8361      8359      8365      8369      8373      8375      8376
      8369      8373      8375      8377      8369      8373      8378      8379
      8369      8373      8378      8380      8369      8373      8378      8384
      8370      8369      8373      8374      8370      8369      8373      8375
      8370      8369      8373      8378      8371      8369      8373      8374
      8371      8369      8373      8375      8371      8369      8373      8378
      8372      8369      8373      8374      8372      8369      8373      8375
      8372      8369      8373      8378      8373      8378      8384      8381
      8374      8373      8375      8376      8374      8373      8375      8377
      8374      8373      8378      8379      8374      8373      8378      8380
      8374      8373      8378      8384      8375      8373      8378      8379
      8375      8373      8378      8380      8375      8373      8378      8384
      8376      8375      8373      8378      8377      8375      8373      8378
      8378      8384      8381      8382      8378      8384      8381      8383
      8378      8384      8381      8385      8379      8378      8384      8381
      8380      8378      8384      8381      8381      8385      8386      8387
      8381      8385      8386      8388      8381      8385      8386      8389
      8382      8381      8385      8386      8383      8381      8385      8386
      8384      8381      8385      8386      8385      8386      8389      8390
      8385      8386      8389      8391      8385      8386      8389      8397
      8386      8389      8391      8392      8386      8389      8397      8398
      8386      8389      8397      8399      8386      8389      8397      8400
      8387      8386      8389      8390      8387      8386      8389      8391
      8387      8386      8389      8397      8388      8386      8389      8390
      8388      8386      8389      8391      8388      8386      8389      8397
      8389      8391      8392      8393      8389      8391      8392      8394
      8389      8397      8400      8401      8390      8389      8391      8392
      8390      8389      8397      8398      8390      8389      8397      8399
      8390      8389      8397      8400      8391      8389      8397      8398
      8391      8389      8397      8399      8391      8389      8397      8400
      8391      8392      8394      8395      8391      8392      8394      8396
      8391      8392      8394      8406      8392      8391      8389      8397
      8392      8394      8406      8407      8392      8394      8406      8408
      8392      8394      8406      8409      8393      8392      8394      8395
      8393      8392      8394      8396      8393      8392      8394      8406
      8394      8406      8409      8410      8394      8406      8409      8411
      8394      8406      8409      8412      8395      8394      8406      8407
      8395      8394      8406      8408      8395      8394      8406      8409
      8396      8394      8406      8407      8396      8394      8406      8408
      8396      8394      8406      8409      8397      8400      8401      8402
      8397      8400      8401      8403      8398      8397      8400      8401
      8399      8397      8400      8401      8400      8401      8403      8404
      8400      8401      8403      8405      8400      8401      8403      8453
      8401      8403      8453      8454      8401      8403      8453      8455
      8401      8403      8453      8456      8402      8401      8403      8404
      8402      8401      8403      8405      8402      8401      8403      8453
      8403      8453      8456      8457      8403      8453      8456      8458
      8403      8453      8456      8459      8404      8403      8453      8454
      8404      8403      8453      8455      8404      8403      8453      8456
      8405      8403      8453      8454      8405      8403      8453      8455
      8405      8403      8453      8456      8406      8409      8412      8413
      8406      8409      8412      8414      8406      8409      8412      8415
      8407      8406      8409      8410      8407      8406      8409      8411
      8407      8406      8409      8412      8408      8406      8409      8410
      8408      8406      8409      8411      8408      8406      8409      8412
      8409      8412      8415      8416      8409      8412      8415      8417
      8409      8412      8415      8418      8410      8409      8412      8413
      8410      8409      8412      8414      8410      8409      8412      8415
      8411      8409      8412      8413      8411      8409      8412      8414
      8411      8409      8412      8415      8412      8415      8418      8419
      8412      8415      8418      8420      8412      8415      8418      8421
      8413      8412      8415      8416      8413      8412      8415      8417
      8413      8412      8415      8418      8414      8412      8415      8416
      8414      8412      8415      8417      8414      8412      8415      8418
      8415      8418      8421      8422      8415      8418      8421      8423
      8415      8418      8421      8424      8416      8415      8418      8419
      8416      8415      8418      8420      8416      8415      8418      8421
      8417      8415      8418      8419      8417      8415      8418      8420
      8417      8415      8418      8421      8418      8421      8424      8425
      8418      8421      8424      8426      8419      8418      8421      8422
      8419      8418      8421      8423      8419      8418      8421      8424
      8420      8418      8421      8422      8420      8418      8421      8423
      8420      8418      8421      8424      8421      8424      8426      8427
      8421      8424      8426      8428      8422      8421      8424      8425
      8422      8421      8424      8426      8423      8421      8424      8425
      8423      8421      8424      8426      8424      8426      8428      8429
      8424      8426      8428      8430      8424      8426      8428      8431
      8425      8424      8426      8427      8425      8424      8426      8428
      8426      8428      8431      8432      8426      8428      8431      8433
      8426      8428      8431      8434      8427      8426      8428      8429
      8427      8426      8428      8430      8427      8426      8428      8431
      8428      8431      8434      8435      8428      8431      8434      8436
      8428      8431      8434      8437      8429      8428      8431      8432
      8429      8428      8431      8433      8429      8428      8431      8434
      8430      8428      8431      8432      8430      8428      8431      8433
      8430      8428      8431      8434      8431      8434      8437      8438
      8431      8434      8437      8439      8431      8434      8437      8440
      8432      8431      8434      8435      8432      8431      8434      8436
      8432      8431      8434      8437      8433      8431      8434      8435
      8433      8431      8434      8436      8433      8431      8434      8437
      8434      8437      8440      8441      8434      8437      8440      8442
      8434      8437      8440      8443      8435      8434      8437      8438
      8435      8434      8437      8439      8435      8434      8437      8440
      8436      8434      8437      8438      8436      8434      8437      8439
      8436      8434      8437      8440      8437      8440      8443      8444
      8437      8440      8443      8445      8437      8440      8443      8446
      8438      8437      8440      8441      8438      8437      8440      8442
      8438      8437      8440      8443      8439      8437      8440      8441
      8439      8437      8440      8442      8439      8437      8440      8443
      8440      8443      8446      8447      8440      8443      8446      8448
      8440      8443      8446      8449      8441      8440      8443      8444
      8441      8440      8443      8445      8441      8440      8443      8446
      8442      8440      8443      8444      8442      8440      8443      8445
      8442      8440      8443      8446      8443      8446      8449      8450
      8443      8446      8449      8451      8443      8446      8449      8452
      8444      8443      8446      8447      8444      8443      8446      8448
      8444      8443      8446      8449      8445      8443      8446      8447
      8445      8443      8446      8448      8445      8443      8446      8449
      8447      8446      8449      8450      8447      8446      8449      8451
      8447      8446      8449      8452      8448      8446      8449      8450
      8448      8446      8449      8451      8448      8446      8449      8452
      8453      8456      8459      8460      8453      8456      8459      8461
      8453      8456      8459      8462      8454      8453      8456      8457
      8454      8453      8456      8458      8454      8453      8456      8459
      8455      8453      8456      8457      8455      8453      8456      8458
      8455      8453      8456      8459      8456      8459      8462      8463
      8456      8459      8462      8464      8456      8459      8462      8465
      8457      8456      8459      8460      8457      8456      8459      8461
      8457      8456      8459      8462      8458      8456      8459      8460
      8458      8456      8459      8461      8458      8456      8459      8462
      8459      8462      8465      8466      8459      8462      8465      8467
      8459      8462      8465      8468      8460      8459      8462      8463
      8460      8459      8462      8464      8460      8459      8462      8465
      8461      8459      8462      8463      8461      8459      8462      8464
      8461      8459      8462      8465      8462      8465      8468      8469
      8462      8465      8468      8470      8462      8465      8468      8471
      8463      8462      8465      8466      8463      8462      8465      8467
      8463      8462      8465      8468      8464      8462      8465      8466
      8464      8462      8465      8467      8464      8462      8465      8468
      8465      8468      8471      8472      8465      8468      8471      8473
      8465      8468      8471      8474      8466      8465      8468      8469
      8466      8465      8468      8470      8466      8465      8468      8471
      8467      8465      8468      8469      8467      8465      8468      8470
      8467      8465      8468      8471      8468      8471      8474      8475
      8468      8471      8474      8476      8468      8471      8474      8477
      8469      8468      8471      8472      8469      8468      8471      8473
      8469      8468      8471      8474      8470      8468      8471      8472
      8470      8468      8471      8473      8470      8468      8471      8474
      8471      8474      8477      8478      8471      8474      8477      8479
      8471      8474      8477      8480      8472      8471      8474      8475
      8472      8471      8474      8476      8472      8471      8474      8477
      8473      8471      8474      8475      8473      8471      8474      8476
      8473      8471      8474      8477      8474      8477      8480      8481
      8474      8477      8480      8482      8474      8477      8480      8483
      8475      8474      8477      8478      8475      8474      8477      8479
      8475      8474      8477      8480      8476      8474      8477      8478
      8476      8474      8477      8479      8476      8474      8477      8480
      8477      8480      8483      8484      8477      8480      8483      8485
      8477      8480      8483      8486      8478      8477      8480      8481
      8478      8477      8480      8482      8478      8477      8480      8483
      8479      8477      8480      8481      8479      8477      8480      8482
      8479      8477      8480      8483      8480      8483      8486      8487
      8480      8483      8486      8488      8480      8483      8486      8489
      8481      8480      8483      8484      8481      8480      8483      8485
      8481      8480      8483      8486      8482      8480      8483      8484
      8482      8480      8483      8485      8482      8480      8483      8486
      8483      8486      8489      8490      8483      8486      8489      8491
      8483      8486      8489      8492      8484      8483      8486      8487
      8484      8483      8486      8488      8484      8483      8486      8489
      8485      8483      8486      8487      8485      8483      8486      8488
      8485      8483      8486      8489      8486      8489      8492      8493
      8486      8489      8492      8494      8486      8489      8492      8495
      8487      8486      8489      8490      8487      8486      8489      8491
      8487      8486      8489      8492      8488      8486      8489      8490
      8488      8486      8489      8491      8488      8486      8489      8492
      8490      8489      8492      8493      8490      8489      8492      8494
      8490      8489      8492      8495      8491      8489      8492      8493
      8491      8489      8492      8494      8491      8489      8492      8495
      8496      8509      8512      8513      8496      8509      8512      8514
      8496      8509      8512      8519      8497      8496      8501      8502
      8497      8496      8501      8503      8497      8496      8501      8504
      8497      8496      8505      8506      8497      8496      8505      8507
      8497      8496      8505      8508      8497      8496      8509      8510
      8497      8496      8509      8511      8497      8496      8509      8512
      8498      8497      8496      8501      8498      8497      8496      8505
      8498      8497      8496      8509      8499      8497      8496      8501
      8499      8497      8496      8505      8499      8497      8496      8509
      8500      8497      8496      8501      8500      8497      8496      8505
      8500      8497      8496      8509      8501      8496      8505      8506
      8501      8496      8505      8507      8501      8496      8505      8508
      8501      8496      8509      8510      8501      8496      8509      8511
      8501      8496      8509      8512      8502      8501      8496      8505
      8502      8501      8496      8509      8503      8501      8496      8505
      8503      8501      8496      8509      8504      8501      8496      8505
      8504      8501      8496      8509      8505      8496      8509      8510
      8505      8496      8509      8511      8505      8496      8509      8512
      8506      8505      8496      8509      8507      8505      8496      8509
      8508      8505      8496      8509      8509      8512      8519      8515
      8510      8509      8512      8513      8510      8509      8512      8514
      8510      8509      8512      8519      8511      8509      8512      8513
      8511      8509      8512      8514      8511      8509      8512      8519
      8512      8519      8515      8516      8512      8519      8515      8517
      8512      8519      8515      8518      8513      8512      8519      8515
      8514      8512      8519      8515      8515      8518      8520      8521
      8515      8518      8520      8522      8515      8518      8520      8525
      8516      8515      8518      8520      8517      8515      8518      8520
      8518      8520      8525      8523      8518      8520      8525      8526
      8518      8520      8525      8527      8519      8515      8518      8520
      8520      8525      8523      8524      8520      8525      8523      8575
      8520      8525      8527      8528      8520      8525      8527      8529
      8520      8525      8527      8531      8521      8520      8525      8523
      8521      8520      8525      8526      8521      8520      8525      8527
      8522      8520      8525      8523      8522      8520      8525      8526
      8522      8520      8525      8527      8523      8525      8527      8528
      8523      8525      8527      8529      8523      8525      8527      8531
      8523      8575      8577      8578      8523      8575      8577      8579
      8523      8575      8577      8580      8524      8523      8525      8526
      8524      8523      8525      8527      8524      8523      8575      8576
      8524      8523      8575      8577      8525      8523      8575      8576
      8525      8523      8575      8577      8525      8527      8529      8530
      8525      8527      8531      8532      8525      8527      8531      8533
      8526      8525      8523      8575      8526      8525      8527      8528
      8526      8525      8527      8529      8526      8525      8527      8531
      8527      8525      8523      8575      8527      8531      8533      8534
      8527      8531      8533      8535      8528      8527      8529      8530
      8528      8527      8531      8532      8528      8527      8531      8533
      8529      8527      8531      8532      8529      8527      8531      8533
      8530      8529      8527      8531      8531      8533      8535      8536
      8531      8533      8535      8537      8531      8533      8535      8538
      8532      8531      8533      8534      8532      8531      8533      8535
      8533      8535      8538      8539      8533      8535      8538      8540
      8533      8535      8538      8541      8534      8533      8535      8536
      8534      8533      8535      8537      8534      8533      8535      8538
      8535      8538      8541      8542      8535      8538      8541      8543
      8535      8538      8541      8544      8536      8535      8538      8539
      8536      8535      8538      8540      8536      8535      8538      8541
      8537      8535      8538      8539      8537      8535      8538      8540
      8537      8535      8538      8541      8538      8541      8544      8545
      8538      8541      8544      8546      8538      8541      8544      8547
      8539      8538      8541      8542      8539      8538      8541      8543
      8539      8538      8541      8544      8540      8538      8541      8542
      8540      8538      8541      8543      8540      8538      8541      8544
      8541      8544      8547      8548      8541      8544      8547      8549
      8541      8544      8547      8550      8542      8541      8544      8545
      8542      8541      8544      8546      8542      8541      8544      8547
      8543      8541      8544      8545      8543      8541      8544      8546
      8543      8541      8544      8547      8544      8547      8550      8551
      8544      8547      8550      8552      8544      8547      8550      8553
      8545      8544      8547      8548      8545      8544      8547      8549
      8545      8544      8547      8550      8546      8544      8547      8548
      8546      8544      8547      8549      8546      8544      8547      8550
      8547      8550      8553      8554      8547      8550      8553      8555
      8547      8550      8553      8556      8548      8547      8550      8551
      8548      8547      8550      8552      8548      8547      8550      8553
      8549      8547      8550      8551      8549      8547      8550      8552
      8549      8547      8550      8553      8550      8553      8556      8557
      8550      8553      8556      8558      8550      8553      8556      8559
      8551      8550      8553      8554      8551      8550      8553      8555
      8551      8550      8553      8556      8552      8550      8553      8554
      8552      8550      8553      8555      8552      8550      8553      8556
      8553      8556      8559      8560      8553      8556      8559      8561
      8553      8556      8559      8562      8554      8553      8556      8557
      8554      8553      8556      8558      8554      8553      8556      8559
      8555      8553      8556      8557      8555      8553      8556      8558
      8555      8553      8556      8559      8556      8559      8562      8563
      8556      8559      8562      8564      8556      8559      8562      8565
      8557      8556      8559      8560      8557      8556      8559      8561
      8557      8556      8559      8562      8558      8556      8559      8560
      8558      8556      8559      8561      8558      8556      8559      8562
      8559      8562      8565      8566      8559      8562      8565      8567
      8559      8562      8565      8568      8560      8559      8562      8563
      8560      8559      8562      8564      8560      8559      8562      8565
      8561      8559      8562      8563      8561      8559      8562      8564
      8561      8559      8562      8565      8562      8565      8568      8569
      8562      8565      8568      8570      8562      8565      8568      8571
      8563      8562      8565      8566      8563      8562      8565      8567
      8563      8562      8565      8568      8564      8562      8565      8566
      8564      8562      8565      8567      8564      8562      8565      8568
      8565      8568      8571      8572      8565      8568      8571      8573
      8565      8568      8571      8574      8566      8565      8568      8569
      8566      8565      8568      8570      8566      8565      8568      8571
      8567      8565      8568      8569      8567      8565      8568      8570
      8567      8565      8568      8571      8569      8568      8571      8572
      8569      8568      8571      8573      8569      8568      8571      8574
      8570      8568      8571      8572      8570      8568      8571      8573
      8570      8568      8571      8574      8575      8577      8580      8581
      8575      8577      8580      8582      8575      8577      8580      8583
      8576      8575      8577      8578      8576      8575      8577      8579
      8576      8575      8577      8580      8577      8580      8583      8584
      8577      8580      8583      8585      8577      8580      8583      8586
      8578      8577      8580      8581      8578      8577      8580      8582
      8578      8577      8580      8583      8579      8577      8580      8581
      8579      8577      8580      8582      8579      8577      8580      8583
      8580      8583      8586      8587      8580      8583      8586      8588
      8580      8583      8586      8589      8581      8580      8583      8584
      8581      8580      8583      8585      8581      8580      8583      8586
      8582      8580      8583      8584      8582      8580      8583      8585
      8582      8580      8583      8586      8583      8586      8589      8590
      8583      8586      8589      8591      8583      8586      8589      8592
      8584      8583      8586      8587      8584      8583      8586      8588
      8584      8583      8586      8589      8585      8583      8586      8587
      8585      8583      8586      8588      8585      8583      8586      8589
      8586      8589      8592      8593      8586      8589      8592      8594
      8586      8589      8592      8595      8587      8586      8589      8590
      8587      8586      8589      8591      8587      8586      8589      8592
      8588      8586      8589      8590      8588      8586      8589      8591
      8588      8586      8589      8592      8589      8592      8595      8596
      8589      8592      8595      8597      8589      8592      8595      8598
      8590      8589      8592      8593      8590      8589      8592      8594
      8590      8589      8592      8595      8591      8589      8592      8593
      8591      8589      8592      8594      8591      8589      8592      8595
      8592      8595      8598      8599      8592      8595      8598      8600
      8592      8595      8598      8601      8593      8592      8595      8596
      8593      8592      8595      8597      8593      8592      8595      8598
      8594      8592      8595      8596      8594      8592      8595      8597
      8594      8592      8595      8598      8595      8598      8601      8602
      8595      8598      8601      8603      8595      8598      8601      8604
      8596      8595      8598      8599      8596      8595      8598      8600
      8596      8595      8598      8601      8597      8595      8598      8599
      8597      8595      8598      8600      8597      8595      8598      8601
      8598      8601      8604      8605      8598      8601      8604      8606
      8598      8601      8604      8607      8599      8598      8601      8602
      8599      8598      8601      8603      8599      8598      8601      8604
      8600      8598      8601      8602      8600      8598      8601      8603
      8600      8598      8601      8604      8601      8604      8607      8608
      8601      8604      8607      8609      8601      8604      8607      8610
      8602      8601      8604      8605      8602      8601      8604      8606
      8602      8601      8604      8607      8603      8601      8604      8605
      8603      8601      8604      8606      8603      8601      8604      8607
      8604      8607      8610      8611      8604      8607      8610      8612
      8604      8607      8610      8613      8605      8604      8607      8608
      8605      8604      8607      8609      8605      8604      8607      8610
      8606      8604      8607      8608      8606      8604      8607      8609
      8606      8604      8607      8610      8607      8610      8613      8614
      8607      8610      8613      8615      8607      8610      8613      8616
      8608      8607      8610      8611      8608      8607      8610      8612
      8608      8607      8610      8613      8609      8607      8610      8611
      8609      8607      8610      8612      8609      8607      8610      8613
      8610      8613      8616      8617      8610      8613      8616      8618
      8610      8613      8616      8619      8611      8610      8613      8614
      8611      8610      8613      8615      8611      8610      8613      8616
      8612      8610      8613      8614      8612      8610      8613      8615
      8612      8610      8613      8616      8613      8616      8619      8620
      8613      8616      8619      8621      8613      8616      8619      8622
      8614      8613      8616      8617      8614      8613      8616      8618
      8614      8613      8616      8619      8615      8613      8616      8617
      8615      8613      8616      8618      8615      8613      8616      8619
      8617      8616      8619      8620      8617      8616      8619      8621
      8617      8616      8619      8622      8618      8616      8619      8620
      8618      8616      8619      8621      8618      8616      8619      8622
      8623      8627      8629      8630      8623      8627      8629      8631
      8623      8627      8632      8633      8623      8627      8632      8634
      8623      8627      8632      8638      8624      8623      8627      8628
      8624      8623      8627      8629      8624      8623      8627      8632
      8625      8623      8627      8628      8625      8623      8627      8629
      8625      8623      8627      8632      8626      8623      8627      8628
      8626      8623      8627      8629      8626      8623      8627      8632
      8627      8632      8638      8635      8628      8627      8629      8630
      8628      8627      8629      8631      8628      8627      8632      8633
      8628      8627      8632      8634      8628      8627      8632      8638
      8629      8627      8632      8633      8629      8627      8632      8634
      8629      8627      8632      8638      8630      8629      8627      8632
      8631      8629      8627      8632      8632      8638      8635      8636
      8632      8638      8635      8637      8632      8638      8635      8639
      8633      8632      8638      8635      8634      8632      8638      8635
      8635      8639      8640      8641      8635      8639      8640      8642
      8635      8639      8640      8643      8636      8635      8639      8640
      8637      8635      8639      8640      8638      8635      8639      8640
      8639      8640      8643      8644      8639      8640      8643      8645
      8639      8640      8643      8651      8640      8643      8645      8646
      8640      8643      8651      8652      8640      8643      8651      8653
      8640      8643      8651      8654      8641      8640      8643      8644
      8641      8640      8643      8645      8641      8640      8643      8651
      8642      8640      8643      8644      8642      8640      8643      8645
      8642      8640      8643      8651      8643      8645      8646      8647
      8643      8645      8646      8648      8643      8651      8654      8655
      8644      8643      8645      8646      8644      8643      8651      8652
      8644      8643      8651      8653      8644      8643      8651      8654
      8645      8643      8651      8652      8645      8643      8651      8653
      8645      8643      8651      8654      8645      8646      8648      8649
      8645      8646      8648      8650      8645      8646      8648      8660
      8646      8645      8643      8651      8646      8648      8660      8661
      8646      8648      8660      8662      8646      8648      8660      8663
      8647      8646      8648      8649      8647      8646      8648      8650
      8647      8646      8648      8660      8648      8660      8663      8664
      8648      8660      8663      8665      8648      8660      8663      8666
      8649      8648      8660      8661      8649      8648      8660      8662
      8649      8648      8660      8663      8650      8648      8660      8661
      8650      8648      8660      8662      8650      8648      8660      8663
      8651      8654      8655      8656      8651      8654      8655      8657
      8652      8651      8654      8655      8653      8651      8654      8655
      8654      8655      8657      8658      8654      8655      8657      8659
      8654      8655      8657      8707      8655      8657      8707      8708
      8655      8657      8707      8709      8655      8657      8707      8710
      8656      8655      8657      8658      8656      8655      8657      8659
      8656      8655      8657      8707      8657      8707      8710      8711
      8657      8707      8710      8712      8657      8707      8710      8713
      8658      8657      8707      8708      8658      8657      8707      8709
      8658      8657      8707      8710      8659      8657      8707      8708
      8659      8657      8707      8709      8659      8657      8707      8710
      8660      8663      8666      8667      8660      8663      8666      8668
      8660      8663      8666      8669      8661      8660      8663      8664
      8661      8660      8663      8665      8661      8660      8663      8666
      8662      8660      8663      8664      8662      8660      8663      8665
      8662      8660      8663      8666      8663      8666      8669      8670
      8663      8666      8669      8671      8663      8666      8669      8672
      8664      8663      8666      8667      8664      8663      8666      8668
      8664      8663      8666      8669      8665      8663      8666      8667
      8665      8663      8666      8668      8665      8663      8666      8669
      8666      8669      8672      8673      8666      8669      8672      8674
      8666      8669      8672      8675      8667      8666      8669      8670
      8667      8666      8669      8671      8667      8666      8669      8672
      8668      8666      8669      8670      8668      8666      8669      8671
      8668      8666      8669      8672      8669      8672      8675      8676
      8669      8672      8675      8677      8669      8672      8675      8678
      8670      8669      8672      8673      8670      8669      8672      8674
      8670      8669      8672      8675      8671      8669      8672      8673
      8671      8669      8672      8674      8671      8669      8672      8675
      8672      8675      8678      8679      8672      8675      8678      8680
      8673      8672      8675      8676      8673      8672      8675      8677
      8673      8672      8675      8678      8674      8672      8675      8676
      8674      8672      8675      8677      8674      8672      8675      8678
      8675      8678      8680      8681      8675      8678      8680      8682
      8676      8675      8678      8679      8676      8675      8678      8680
      8677      8675      8678      8679      8677      8675      8678      8680
      8678      8680      8682      8683      8678      8680      8682      8684
      8678      8680      8682      8685      8679      8678      8680      8681
      8679      8678      8680      8682      8680      8682      8685      8686
      8680      8682      8685      8687      8680      8682      8685      8688
      8681      8680      8682      8683      8681      8680      8682      8684
      8681      8680      8682      8685      8682      8685      8688      8689
      8682      8685      8688      8690      8682      8685      8688      8691
      8683      8682      8685      8686      8683      8682      8685      8687
      8683      8682      8685      8688      8684      8682      8685      8686
      8684      8682      8685      8687      8684      8682      8685      8688
      8685      8688      8691      8692      8685      8688      8691      8693
      8685      8688      8691      8694      8686      8685      8688      8689
      8686      8685      8688      8690      8686      8685      8688      8691
      8687      8685      8688      8689      8687      8685      8688      8690
      8687      8685      8688      8691      8688      8691      8694      8695
      8688      8691      8694      8696      8688      8691      8694      8697
      8689      8688      8691      8692      8689      8688      8691      8693
      8689      8688      8691      8694      8690      8688      8691      8692
      8690      8688      8691      8693      8690      8688      8691      8694
      8691      8694      8697      8698      8691      8694      8697      8699
      8691      8694      8697      8700      8692      8691      8694      8695
      8692      8691      8694      8696      8692      8691      8694      8697
      8693      8691      8694      8695      8693      8691      8694      8696
      8693      8691      8694      8697      8694      8697      8700      8701
      8694      8697      8700      8702      8694      8697      8700      8703
      8695      8694      8697      8698      8695      8694      8697      8699
      8695      8694      8697      8700      8696      8694      8697      8698
      8696      8694      8697      8699      8696      8694      8697      8700
      8697      8700      8703      8704      8697      8700      8703      8705
      8697      8700      8703      8706      8698      8697      8700      8701
      8698      8697      8700      8702      8698      8697      8700      8703
      8699      8697      8700      8701      8699      8697      8700      8702
      8699      8697      8700      8703      8701      8700      8703      8704
      8701      8700      8703      8705      8701      8700      8703      8706
      8702      8700      8703      8704      8702      8700      8703      8705
      8702      8700      8703      8706      8707      8710      8713      8714
      8707      8710      8713      8715      8707      8710      8713      8716
      8708      8707      8710      8711      8708      8707      8710      8712
      8708      8707      8710      8713      8709      8707      8710      8711
      8709      8707      8710      8712      8709      8707      8710      8713
      8710      8713      8716      8717      8710      8713      8716      8718
      8710      8713      8716      8719      8711      8710      8713      8714
      8711      8710      8713      8715      8711      8710      8713      8716
      8712      8710      8713      8714      8712      8710      8713      8715
      8712      8710      8713      8716      8713      8716      8719      8720
      8713      8716      8719      8721      8713      8716      8719      8722
      8714      8713      8716      8717      8714      8713      8716      8718
      8714      8713      8716      8719      8715      8713      8716      8717
      8715      8713      8716      8718      8715      8713      8716      8719
      8716      8719      8722      8723      8716      8719      8722      8724
      8716      8719      8722      8725      8717      8716      8719      8720
      8717      8716      8719      8721      8717      8716      8719      8722
      8718      8716      8719      8720      8718      8716      8719      8721
      8718      8716      8719      8722      8719      8722      8725      8726
      8719      8722      8725      8727      8719      8722      8725      8728
      8720      8719      8722      8723      8720      8719      8722      8724
      8720      8719      8722      8725      8721      8719      8722      8723
      8721      8719      8722      8724      8721      8719      8722      8725
      8722      8725      8728      8729      8722      8725      8728      8730
      8722      8725      8728      8731      8723      8722      8725      8726
      8723      8722      8725      8727      8723      8722      8725      8728
      8724      8722      8725      8726      8724      8722      8725      8727
      8724      8722      8725      8728      8725      8728      8731      8732
      8725      8728      8731      8733      8725      8728      8731      8734
      8726      8725      8728      8729      8726      8725      8728      8730
      8726      8725      8728      8731      8727      8725      8728      8729
      8727      8725      8728      8730      8727      8725      8728      8731
      8728      8731      8734      8735      8728      8731      8734      8736
      8728      8731      8734      8737      8729      8728      8731      8732
      8729      8728      8731      8733      8729      8728      8731      8734
      8730      8728      8731      8732      8730      8728      8731      8733
      8730      8728      8731      8734      8731      8734      8737      8738
      8731      8734      8737      8739      8731      8734      8737      8740
      8732      8731      8734      8735      8732      8731      8734      8736
      8732      8731      8734      8737      8733      8731      8734      8735
      8733      8731      8734      8736      8733      8731      8734      8737
      8734      8737      8740      8741      8734      8737      8740      8742
      8734      8737      8740      8743      8735      8734      8737      8738
      8735      8734      8737      8739      8735      8734      8737      8740
      8736      8734      8737      8738      8736      8734      8737      8739
      8736      8734      8737      8740      8737      8740      8743      8744
      8737      8740      8743      8745      8737      8740      8743      8746
      8738      8737      8740      8741      8738      8737      8740      8742
      8738      8737      8740      8743      8739      8737      8740      8741
      8739      8737      8740      8742      8739      8737      8740      8743
      8740      8743      8746      8747      8740      8743      8746      8748
      8740      8743      8746      8749      8741      8740      8743      8744
      8741      8740      8743      8745      8741      8740      8743      8746
      8742      8740      8743      8744      8742      8740      8743      8745
      8742      8740      8743      8746      8744      8743      8746      8747
      8744      8743      8746      8748      8744      8743      8746      8749
      8745      8743      8746      8747      8745      8743      8746      8748
      8745      8743      8746      8749      8750      8754      8756      8757
      8750      8754      8756      8758      8750      8754      8759      8760
      8750      8754      8759      8761      8750      8754      8759      8765
      8751      8750      8754      8755      8751      8750      8754      8756
      8751      8750      8754      8759      8752      8750      8754      8755
      8752      8750      8754      8756      8752      8750      8754      8759
      8753      8750      8754      8755      8753      8750      8754      8756
      8753      8750      8754      8759      8754      8759      8765      8762
      8755      8754      8756      8757      8755      8754      8756      8758
      8755      8754      8759      8760      8755      8754      8759      8761
      8755      8754      8759      8765      8756      8754      8759      8760
      8756      8754      8759      8761      8756      8754      8759      8765
      8757      8756      8754      8759      8758      8756      8754      8759
      8759      8765      8762      8763      8759      8765      8762      8764
      8759      8765      8762      8766      8760      8759      8765      8762
      8761      8759      8765      8762      8762      8766      8767      8768
      8762      8766      8767      8769      8762      8766      8767      8770
      8763      8762      8766      8767      8764      8762      8766      8767
      8765      8762      8766      8767      8766      8767      8770      8771
      8766      8767      8770      8772      8766      8767      8770      8778
      8767      8770      8772      8773      8767      8770      8778      8779
      8767      8770      8778      8780      8767      8770      8778      8781
      8768      8767      8770      8771      8768      8767      8770      8772
      8768      8767      8770      8778      8769      8767      8770      8771
      8769      8767      8770      8772      8769      8767      8770      8778
      8770      8772      8773      8774      8770      8772      8773      8775
      8770      8778      8781      8782      8771      8770      8772      8773
      8771      8770      8778      8779      8771      8770      8778      8780
      8771      8770      8778      8781      8772      8770      8778      8779
      8772      8770      8778      8780      8772      8770      8778      8781
      8772      8773      8775      8776      8772      8773      8775      8777
      8772      8773      8775      8787      8773      8772      8770      8778
      8773      8775      8787      8788      8773      8775      8787      8789
      8773      8775      8787      8790      8774      8773      8775      8776
      8774      8773      8775      8777      8774      8773      8775      8787
      8775      8787      8790      8791      8775      8787      8790      8792
      8775      8787      8790      8793      8776      8775      8787      8788
      8776      8775      8787      8789      8776      8775      8787      8790
      8777      8775      8787      8788      8777      8775      8787      8789
      8777      8775      8787      8790      8778      8781      8782      8783
      8778      8781      8782      8784      8779      8778      8781      8782
      8780      8778      8781      8782      8781      8782      8784      8785
      8781      8782      8784      8786      8781      8782      8784      8834
      8782      8784      8834      8835      8782      8784      8834      8836
      8782      8784      8834      8837      8783      8782      8784      8785
      8783      8782      8784      8786      8783      8782      8784      8834
      8784      8834      8837      8838      8784      8834      8837      8839
      8784      8834      8837      8840      8785      8784      8834      8835
      8785      8784      8834      8836      8785      8784      8834      8837
      8786      8784      8834      8835      8786      8784      8834      8836
      8786      8784      8834      8837      8787      8790      8793      8794
      8787      8790      8793      8795      8787      8790      8793      8796
      8788      8787      8790      8791      8788      8787      8790      8792
      8788      8787      8790      8793      8789      8787      8790      8791
      8789      8787      8790      8792      8789      8787      8790      8793
      8790      8793      8796      8797      8790      8793      8796      8798
      8790      8793      8796      8799      8791      8790      8793      8794
      8791      8790      8793      8795      8791      8790      8793      8796
      8792      8790      8793      8794      8792      8790      8793      8795
      8792      8790      8793      8796      8793      8796      8799      8800
      8793      8796      8799      8801      8793      8796      8799      8802
      8794      8793      8796      8797      8794      8793      8796      8798
      8794      8793      8796      8799      8795      8793      8796      8797
      8795      8793      8796      8798      8795      8793      8796      8799
      8796      8799      8802      8803      8796      8799      8802      8804
      8796      8799      8802      8805      8797      8796      8799      8800
      8797      8796      8799      8801      8797      8796      8799      8802
      8798      8796      8799      8800      8798      8796      8799      8801
      8798      8796      8799      8802      8799      8802      8805      8806
      8799      8802      8805      8807      8800      8799      8802      8803
      8800      8799      8802      8804      8800      8799      8802      8805
      8801      8799      8802      8803      8801      8799      8802      8804
      8801      8799      8802      8805      8802      8805      8807      8808
      8802      8805      8807      8809      8803      8802      8805      8806
      8803      8802      8805      8807      8804      8802      8805      8806
      8804      8802      8805      8807      8805      8807      8809      8810
      8805      8807      8809      8811      8805      8807      8809      8812
      8806      8805      8807      8808      8806      8805      8807      8809
      8807      8809      8812      8813      8807      8809      8812      8814
      8807      8809      8812      8815      8808      8807      8809      8810
      8808      8807      8809      8811      8808      8807      8809      8812
      8809      8812      8815      8816      8809      8812      8815      8817
      8809      8812      8815      8818      8810      8809      8812      8813
      8810      8809      8812      8814      8810      8809      8812      8815
      8811      8809      8812      8813      8811      8809      8812      8814
      8811      8809      8812      8815      8812      8815      8818      8819
      8812      8815      8818      8820      8812      8815      8818      8821
      8813      8812      8815      8816      8813      8812      8815      8817
      8813      8812      8815      8818      8814      8812      8815      8816
      8814      8812      8815      8817      8814      8812      8815      8818
      8815      8818      8821      8822      8815      8818      8821      8823
      8815      8818      8821      8824      8816      8815      8818      8819
      8816      8815      8818      8820      8816      8815      8818      8821
      8817      8815      8818      8819      8817      8815      8818      8820
      8817      8815      8818      8821      8818      8821      8824      8825
      8818      8821      8824      8826      8818      8821      8824      8827
      8819      8818      8821      8822      8819      8818      8821      8823
      8819      8818      8821      8824      8820      8818      8821      8822
      8820      8818      8821      8823      8820      8818      8821      8824
      8821      8824      8827      8828      8821      8824      8827      8829
      8821      8824      8827      8830      8822      8821      8824      8825
      8822      8821      8824      8826      8822      8821      8824      8827
      8823      8821      8824      8825      8823      8821      8824      8826
      8823      8821      8824      8827      8824      8827      8830      8831
      8824      8827      8830      8832      8824      8827      8830      8833
      8825      8824      8827      8828      8825      8824      8827      8829
      8825      8824      8827      8830      8826      8824      8827      8828
      8826      8824      8827      8829      8826      8824      8827      8830
      8828      8827      8830      8831      8828      8827      8830      8832
      8828      8827      8830      8833      8829      8827      8830      8831
      8829      8827      8830      8832      8829      8827      8830      8833
      8834      8837      8840      8841      8834      8837      8840      8842
      8834      8837      8840      8843      8835      8834      8837      8838
      8835      8834      8837      8839      8835      8834      8837      8840
      8836      8834      8837      8838      8836      8834      8837      8839
      8836      8834      8837      8840      8837      8840      8843      8844
      8837      8840      8843      8845      8837      8840      8843      8846
      8838      8837      8840      8841      8838      8837      8840      8842
      8838      8837      8840      8843      8839      8837      8840      8841
      8839      8837      8840      8842      8839      8837      8840      8843
      8840      8843      8846      8847      8840      8843      8846      8848
      8840      8843      8846      8849      8841      8840      8843      8844
      8841      8840      8843      8845      8841      8840      8843      8846
      8842      8840      8843      8844      8842      8840      8843      8845
      8842      8840      8843      8846      8843      8846      8849      8850
      8843      8846      8849      8851      8843      8846      8849      8852
      8844      8843      8846      8847      8844      8843      8846      8848
      8844      8843      8846      8849      8845      8843      8846      8847
      8845      8843      8846      8848      8845      8843      8846      8849
      8846      8849      8852      8853      8846      8849      8852      8854
      8846      8849      8852      8855      8847      8846      8849      8850
      8847      8846      8849      8851      8847      8846      8849      8852
      8848      8846      8849      8850      8848      8846      8849      8851
      8848      8846      8849      8852      8849      8852      8855      8856
      8849      8852      8855      8857      8849      8852      8855      8858
      8850      8849      8852      8853      8850      8849      8852      8854
      8850      8849      8852      8855      8851      8849      8852      8853
      8851      8849      8852      8854      8851      8849      8852      8855
      8852      8855      8858      8859      8852      8855      8858      8860
      8852      8855      8858      8861      8853      8852      8855      8856
      8853      8852      8855      8857      8853      8852      8855      8858
      8854      8852      8855      8856      8854      8852      8855      8857
      8854      8852      8855      8858      8855      8858      8861      8862
      8855      8858      8861      8863      8855      8858      8861      8864
      8856      8855      8858      8859      8856      8855      8858      8860
      8856      8855      8858      8861      8857      8855      8858      8859
      8857      8855      8858      8860      8857      8855      8858      8861
      8858      8861      8864      8865      8858      8861      8864      8866
      8858      8861      8864      8867      8859      8858      8861      8862
      8859      8858      8861      8863      8859      8858      8861      8864
      8860      8858      8861      8862      8860      8858      8861      8863
      8860      8858      8861      8864      8861      8864      8867      8868
      8861      8864      8867      8869      8861      8864      8867      8870
      8862      8861      8864      8865      8862      8861      8864      8866
      8862      8861      8864      8867      8863      8861      8864      8865
      8863      8861      8864      8866      8863      8861      8864      8867
      8864      8867      8870      8871      8864      8867      8870      8872
      8864      8867      8870      8873      8865      8864      8867      8868
      8865      8864      8867      8869      8865      8864      8867      8870
      8866      8864      8867      8868      8866      8864      8867      8869
      8866      8864      8867      8870      8867      8870      8873      8874
      8867      8870      8873      8875      8867      8870      8873      8876
      8868      8867      8870      8871      8868      8867      8870      8872
      8868      8867      8870      8873      8869      8867      8870      8871
      8869      8867      8870      8872      8869      8867      8870      8873
      8871      8870      8873      8874      8871      8870      8873      8875
      8871      8870      8873      8876      8872      8870      8873      8874
      8872      8870      8873      8875      8872      8870      8873      8876
      8877      8878      8893      8894      8877      8878      8893      8895
      8877      8878      8893      8899      8878      8877      8881      8882
      8878      8877      8881      8883      8878      8877      8881      8884
      8878      8877      8885      8886      8878      8877      8885      8887
      8878      8877      8885      8888      8878      8877      8889      8890
      8878      8877      8889      8891      8878      8877      8889      8892
      8878      8893      8899      8896      8879      8878      8877      8881
      8879      8878      8877      8885      8879      8878      8877      8889
      8879      8878      8893      8894      8879      8878      8893      8895
      8879      8878      8893      8899      8880      8878      8877      8881
      8880      8878      8877      8885      8880      8878      8877      8889
      8880      8878      8893      8894      8880      8878      8893      8895
      8880      8878      8893      8899      8881      8877      8878      8893
      8881      8877      8885      8886      8881      8877      8885      8887
      8881      8877      8885      8888      8881      8877      8889      8890
      8881      8877      8889      8891      8881      8877      8889      8892
      8882      8881      8877      8885      8882      8881      8877      8889
      8883      8881      8877      8885      8883      8881      8877      8889
      8884      8881      8877      8885      8884      8881      8877      8889
      8885      8877      8878      8893      8885      8877      8889      8890
      8885      8877      8889      8891      8885      8877      8889      8892
      8886      8885      8877      8889      8887      8885      8877      8889
      8888      8885      8877      8889      8889      8877      8878      8893
      8893      8899      8896      8897      8893      8899      8896      8898
      8893      8899      8896      8900      8894      8893      8899      8896
      8895      8893      8899      8896      8896      8900      8901      8902
      8896      8900      8901      8903      8896      8900      8901      8904
      8897      8896      8900      8901      8898      8896      8900      8901
      8899      8896      8900      8901      8900      8901      8904      8905
      8900      8901      8904      8906      8900      8901      8904      8912
      8901      8904      8906      8907      8901      8904      8912      8913
      8901      8904      8912      8914      8901      8904      8912      8915
      8902      8901      8904      8905      8902      8901      8904      8906
      8902      8901      8904      8912      8903      8901      8904      8905
      8903      8901      8904      8906      8903      8901      8904      8912
      8904      8906      8907      8908      8904      8906      8907      8909
      8904      8912      8915      8916      8905      8904      8906      8907
      8905      8904      8912      8913      8905      8904      8912      8914
      8905      8904      8912      8915      8906      8904      8912      8913
      8906      8904      8912      8914      8906      8904      8912      8915
      8906      8907      8909      8910      8906      8907      8909      8911
      8906      8907      8909      8921      8907      8906      8904      8912
      8907      8909      8921      8922      8907      8909      8921      8923
      8907      8909      8921      8924      8908      8907      8909      8910
      8908      8907      8909      8911      8908      8907      8909      8921
      8909      8921      8924      8925      8909      8921      8924      8926
      8909      8921      8924      8927      8910      8909      8921      8922
      8910      8909      8921      8923      8910      8909      8921      8924
      8911      8909      8921      8922      8911      8909      8921      8923
      8911      8909      8921      8924      8912      8915      8916      8917
      8912      8915      8916      8918      8913      8912      8915      8916
      8914      8912      8915      8916      8915      8916      8918      8919
      8915      8916      8918      8920      8915      8916      8918      8968
      8916      8918      8968      8969      8916      8918      8968      8970
      8916      8918      8968      8971      8917      8916      8918      8919
      8917      8916      8918      8920      8917      8916      8918      8968
      8918      8968      8971      8972      8918      8968      8971      8973
      8918      8968      8971      8974      8919      8918      8968      8969
      8919      8918      8968      8970      8919      8918      8968      8971
      8920      8918      8968      8969      8920      8918      8968      8970
      8920      8918      8968      8971      8921      8924      8927      8928
      8921      8924      8927      8929      8921      8924      8927      8930
      8922      8921      8924      8925      8922      8921      8924      8926
      8922      8921      8924      8927      8923      8921      8924      8925
      8923      8921      8924      8926      8923      8921      8924      8927
      8924      8927      8930      8931      8924      8927      8930      8932
      8924      8927      8930      8933      8925      8924      8927      8928
      8925      8924      8927      8929      8925      8924      8927      8930
      8926      8924      8927      8928      8926      8924      8927      8929
      8926      8924      8927      8930      8927      8930      8933      8934
      8927      8930      8933      8935      8927      8930      8933      8936
      8928      8927      8930      8931      8928      8927      8930      8932
      8928      8927      8930      8933      8929      8927      8930      8931
      8929      8927      8930      8932      8929      8927      8930      8933
      8930      8933      8936      8937      8930      8933      8936      8938
      8930      8933      8936      8939      8931      8930      8933      8934
      8931      8930      8933      8935      8931      8930      8933      8936
      8932      8930      8933      8934      8932      8930      8933      8935
      8932      8930      8933      8936      8933      8936      8939      8940
      8933      8936      8939      8941      8934      8933      8936      8937
      8934      8933      8936      8938      8934      8933      8936      8939
      8935      8933      8936      8937      8935      8933      8936      8938
      8935      8933      8936      8939      8936      8939      8941      8942
      8936      8939      8941      8943      8937      8936      8939      8940
      8937      8936      8939      8941      8938      8936      8939      8940
      8938      8936      8939      8941      8939      8941      8943      8944
      8939      8941      8943      8945      8939      8941      8943      8946
      8940      8939      8941      8942      8940      8939      8941      8943
      8941      8943      8946      8947      8941      8943      8946      8948
      8941      8943      8946      8949      8942      8941      8943      8944
      8942      8941      8943      8945      8942      8941      8943      8946
      8943      8946      8949      8950      8943      8946      8949      8951
      8943      8946      8949      8952      8944      8943      8946      8947
      8944      8943      8946      8948      8944      8943      8946      8949
      8945      8943      8946      8947      8945      8943      8946      8948
      8945      8943      8946      8949      8946      8949      8952      8953
      8946      8949      8952      8954      8946      8949      8952      8955
      8947      8946      8949      8950      8947      8946      8949      8951
      8947      8946      8949      8952      8948      8946      8949      8950
      8948      8946      8949      8951      8948      8946      8949      8952
      8949      8952      8955      8956      8949      8952      8955      8957
      8949      8952      8955      8958      8950      8949      8952      8953
      8950      8949      8952      8954      8950      8949      8952      8955
      8951      8949      8952      8953      8951      8949      8952      8954
      8951      8949      8952      8955      8952      8955      8958      8959
      8952      8955      8958      8960      8952      8955      8958      8961
      8953      8952      8955      8956      8953      8952      8955      8957
      8953      8952      8955      8958      8954      8952      8955      8956
      8954      8952      8955      8957      8954      8952      8955      8958
      8955      8958      8961      8962      8955      8958      8961      8963
      8955      8958      8961      8964      8956      8955      8958      8959
      8956      8955      8958      8960      8956      8955      8958      8961
      8957      8955      8958      8959      8957      8955      8958      8960
      8957      8955      8958      8961      8958      8961      8964      8965
      8958      8961      8964      8966      8958      8961      8964      8967
      8959      8958      8961      8962      8959      8958      8961      8963
      8959      8958      8961      8964      8960      8958      8961      8962
      8960      8958      8961      8963      8960      8958      8961      8964
      8962      8961      8964      8965      8962      8961      8964      8966
      8962      8961      8964      8967      8963      8961      8964      8965
      8963      8961      8964      8966      8963      8961      8964      8967
      8968      8971      8974      8975      8968      8971      8974      8976
      8968      8971      8974      8977      8969      8968      8971      8972
      8969      8968      8971      8973      8969      8968      8971      8974
      8970      8968      8971      8972      8970      8968      8971      8973
      8970      8968      8971      8974      8971      8974      8977      8978
      8971      8974      8977      8979      8971      8974      8977      8980
      8972      8971      8974      8975      8972      8971      8974      8976
      8972      8971      8974      8977      8973      8971      8974      8975
      8973      8971      8974      8976      8973      8971      8974      8977
      8974      8977      8980      8981      8974      8977      8980      8982
      8974      8977      8980      8983      8975      8974      8977      8978
      8975      8974      8977      8979      8975      8974      8977      8980
      8976      8974      8977      8978      8976      8974      8977      8979
      8976      8974      8977      8980      8977      8980      8983      8984
      8977      8980      8983      8985      8977      8980      8983      8986
      8978      8977      8980      8981      8978      8977      8980      8982
      8978      8977      8980      8983      8979      8977      8980      8981
      8979      8977      8980      8982      8979      8977      8980      8983
      8980      8983      8986      8987      8980      8983      8986      8988
      8980      8983      8986      8989      8981      8980      8983      8984
      8981      8980      8983      8985      8981      8980      8983      8986
      8982      8980      8983      8984      8982      8980      8983      8985
      8982      8980      8983      8986      8983      8986      8989      8990
      8983      8986      8989      8991      8983      8986      8989      8992
      8984      8983      8986      8987      8984      8983      8986      8988
      8984      8983      8986      8989      8985      8983      8986      8987
      8985      8983      8986      8988      8985      8983      8986      8989
      8986      8989      8992      8993      8986      8989      8992      8994
      8986      8989      8992      8995      8987      8986      8989      8990
      8987      8986      8989      8991      8987      8986      8989      8992
      8988      8986      8989      8990      8988      8986      8989      8991
      8988      8986      8989      8992      8989      8992      8995      8996
      8989      8992      8995      8997      8989      8992      8995      8998
      8990      8989      8992      8993      8990      8989      8992      8994
      8990      8989      8992      8995      8991      8989      8992      8993
      8991      8989      8992      8994      8991      8989      8992      8995
      8992      8995      8998      8999      8992      8995      8998      9000
      8992      8995      8998      9001      8993      8992      8995      8996
      8993      8992      8995      8997      8993      8992      8995      8998
      8994      8992      8995      8996      8994      8992      8995      8997
      8994      8992      8995      8998      8995      8998      9001      9002
      8995      8998      9001      9003      8995      8998      9001      9004
      8996      8995      8998      8999      8996      8995      8998      9000
      8996      8995      8998      9001      8997      8995      8998      8999
      8997      8995      8998      9000      8997      8995      8998      9001
      8998      9001      9004      9005      8998      9001      9004      9006
      8998      9001      9004      9007      8999      8998      9001      9002
      8999      8998      9001      9003      8999      8998      9001      9004
      9000      8998      9001      9002      9000      8998      9001      9003
      9000      8998      9001      9004      9001      9004      9007      9008
      9001      9004      9007      9009      9001      9004      9007      9010
      9002      9001      9004      9005      9002      9001      9004      9006
      9002      9001      9004      9007      9003      9001      9004      9005
      9003      9001      9004      9006      9003      9001      9004      9007
      9005      9004      9007      9008      9005      9004      9007      9009
      9005      9004      9007      9010      9006      9004      9007      9008
      9006      9004      9007      9009      9006      9004      9007      9010
      9011      9024      9027      9028      9011      9024      9027      9029
      9011      9024      9027      9034      9012      9011      9016      9017
      9012      9011      9016      9018      9012      9011      9016      9019
      9012      9011      9020      9021      9012      9011      9020      9022
      9012      9011      9020      9023      9012      9011      9024      9025
      9012      9011      9024      9026      9012      9011      9024      9027
      9013      9012      9011      9016      9013      9012      9011      9020
      9013      9012      9011      9024      9014      9012      9011      9016
      9014      9012      9011      9020      9014      9012      9011      9024
      9015      9012      9011      9016      9015      9012      9011      9020
      9015      9012      9011      9024      9016      9011      9020      9021
      9016      9011      9020      9022      9016      9011      9020      9023
      9016      9011      9024      9025      9016      9011      9024      9026
      9016      9011      9024      9027      9017      9016      9011      9020
      9017      9016      9011      9024      9018      9016      9011      9020
      9018      9016      9011      9024      9019      9016      9011      9020
      9019      9016      9011      9024      9020      9011      9024      9025
      9020      9011      9024      9026      9020      9011      9024      9027
      9021      9020      9011      9024      9022      9020      9011      9024
      9023      9020      9011      9024      9024      9027      9034      9030
      9025      9024      9027      9028      9025      9024      9027      9029
      9025      9024      9027      9034      9026      9024      9027      9028
      9026      9024      9027      9029      9026      9024      9027      9034
      9027      9034      9030      9031      9027      9034      9030      9032
      9027      9034      9030      9033      9028      9027      9034      9030
      9029      9027      9034      9030      9030      9033      9035      9036
      9030      9033      9035      9037      9030      9033      9035      9040
      9031      9030      9033      9035      9032      9030      9033      9035
      9033      9035      9040      9038      9033      9035      9040      9041
      9033      9035      9040      9042      9034      9030      9033      9035
      9035      9040      9038      9039      9035      9040      9038      9090
      9035      9040      9042      9043      9035      9040      9042      9044
      9035      9040      9042      9046      9036      9035      9040      9038
      9036      9035      9040      9041      9036      9035      9040      9042
      9037      9035      9040      9038      9037      9035      9040      9041
      9037      9035      9040      9042      9038      9040      9042      9043
      9038      9040      9042      9044      9038      9040      9042      9046
      9038      9090      9092      9093      9038      9090      9092      9094
      9038      9090      9092      9095      9039      9038      9040      9041
      9039      9038      9040      9042      9039      9038      9090      9091
      9039      9038      9090      9092      9040      9038      9090      9091
      9040      9038      9090      9092      9040      9042      9044      9045
      9040      9042      9046      9047      9040      9042      9046      9048
      9041      9040      9038      9090      9041      9040      9042      9043
      9041      9040      9042      9044      9041      9040      9042      9046
      9042      9040      9038      9090      9042      9046      9048      9049
      9042      9046      9048      9050      9043      9042      9044      9045
      9043      9042      9046      9047      9043      9042      9046      9048
      9044      9042      9046      9047      9044      9042      9046      9048
      9045      9044      9042      9046      9046      9048      9050      9051
      9046      9048      9050      9052      9046      9048      9050      9053
      9047      9046      9048      9049      9047      9046      9048      9050
      9048      9050      9053      9054      9048      9050      9053      9055
      9048      9050      9053      9056      9049      9048      9050      9051
      9049      9048      9050      9052      9049      9048      9050      9053
      9050      9053      9056      9057      9050      9053      9056      9058
      9050      9053      9056      9059      9051      9050      9053      9054
      9051      9050      9053      9055      9051      9050      9053      9056
      9052      9050      9053      9054      9052      9050      9053      9055
      9052      9050      9053      9056      9053      9056      9059      9060
      9053      9056      9059      9061      9053      9056      9059      9062
      9054      9053      9056      9057      9054      9053      9056      9058
      9054      9053      9056      9059      9055      9053      9056      9057
      9055      9053      9056      9058      9055      9053      9056      9059
      9056      9059      9062      9063      9056      9059      9062      9064
      9056      9059      9062      9065      9057      9056      9059      9060
      9057      9056      9059      9061      9057      9056      9059      9062
      9058      9056      9059      9060      9058      9056      9059      9061
      9058      9056      9059      9062      9059      9062      9065      9066
      9059      9062      9065      9067      9059      9062      9065      9068
      9060      9059      9062      9063      9060      9059      9062      9064
      9060      9059      9062      9065      9061      9059      9062      9063
      9061      9059      9062      9064      9061      9059      9062      9065
      9062      9065      9068      9069      9062      9065      9068      9070
      9062      9065      9068      9071      9063      9062      9065      9066
      9063      9062      9065      9067      9063      9062      9065      9068
      9064      9062      9065      9066      9064      9062      9065      9067
      9064      9062      9065      9068      9065      9068      9071      9072
      9065      9068      9071      9073      9065      9068      9071      9074
      9066      9065      9068      9069      9066      9065      9068      9070
      9066      9065      9068      9071      9067      9065      9068      9069
      9067      9065      9068      9070      9067      9065      9068      9071
      9068      9071      9074      9075      9068      9071      9074      9076
      9068      9071      9074      9077      9069      9068      9071      9072
      9069      9068      9071      9073      9069      9068      9071      9074
      9070      9068      9071      9072      9070      9068      9071      9073
      9070      9068      9071      9074      9071      9074      9077      9078
      9071      9074      9077      9079      9071      9074      9077      9080
      9072      9071      9074      9075      9072      9071      9074      9076
      9072      9071      9074      9077      9073      9071      9074      9075
      9073      9071      9074      9076      9073      9071      9074      9077
      9074      9077      9080      9081      9074      9077      9080      9082
      9074      9077      9080      9083      9075      9074      9077      9078
      9075      9074      9077      9079      9075      9074      9077      9080
      9076      9074      9077      9078      9076      9074      9077      9079
      9076      9074      9077      9080      9077      9080      9083      9084
      9077      9080      9083      9085      9077      9080      9083      9086
      9078      9077      9080      9081      9078      9077      9080      9082
      9078      9077      9080      9083      9079      9077      9080      9081
      9079      9077      9080      9082      9079      9077      9080      9083
      9080      9083      9086      9087      9080      9083      9086      9088
      9080      9083      9086      9089      9081      9080      9083      9084
      9081      9080      9083      9085      9081      9080      9083      9086
      9082      9080      9083      9084      9082      9080      9083      9085
      9082      9080      9083      9086      9084      9083      9086      9087
      9084      9083      9086      9088      9084      9083      9086      9089
      9085      9083      9086      9087      9085      9083      9086      9088
      9085      9083      9086      9089      9090      9092      9095      9096
      9090      9092      9095      9097      9090      9092      9095      9098
      9091      9090      9092      9093      9091      9090      9092      9094
      9091      9090      9092      9095      9092      9095      9098      9099
      9092      9095      9098      9100      9092      9095      9098      9101
      9093      9092      9095      9096      9093      9092      9095      9097
      9093      9092      9095      9098      9094      9092      9095      9096
      9094      9092      9095      9097      9094      9092      9095      9098
      9095      9098      9101      9102      9095      9098      9101      9103
      9095      9098      9101      9104      9096      9095      9098      9099
      9096      9095      9098      9100      9096      9095      9098      9101
      9097      9095      9098      9099      9097      9095      9098      9100
      9097      9095      9098      9101      9098      9101      9104      9105
      9098      9101      9104      9106      9098      9101      9104      9107
      9099      9098      9101      9102      9099      9098      9101      9103
      9099      9098      9101      9104      9100      9098      9101      9102
      9100      9098      9101      9103      9100      9098      9101      9104
      9101      9104      9107      9108      9101      9104      9107      9109
      9101      9104      9107      9110      9102      9101      9104      9105
      9102      9101      9104      9106      9102      9101      9104      9107
      9103      9101      9104      9105      9103      9101      9104      9106
      9103      9101      9104      9107      9104      9107      9110      9111
      9104      9107      9110      9112      9104      9107      9110      9113
      9105      9104      9107      9108      9105      9104      9107      9109
      9105      9104      9107      9110      9106      9104      9107      9108
      9106      9104      9107      9109      9106      9104      9107      9110
      9107      9110      9113      9114      9107      9110      9113      9115
      9107      9110      9113      9116      9108      9107      9110      9111
      9108      9107      9110      9112      9108      9107      9110      9113
      9109      9107      9110      9111      9109      9107      9110      9112
      9109      9107      9110      9113      9110      9113      9116      9117
      9110      9113      9116      9118      9110      9113      9116      9119
      9111      9110      9113      9114      9111      9110      9113      9115
      9111      9110      9113      9116      9112      9110      9113      9114
      9112      9110      9113      9115      9112      9110      9113      9116
      9113      9116      9119      9120      9113      9116      9119      9121
      9113      9116      9119      9122      9114      9113      9116      9117
      9114      9113      9116      9118      9114      9113      9116      9119
      9115      9113      9116      9117      9115      9113      9116      9118
      9115      9113      9116      9119      9116      9119      9122      9123
      9116      9119      9122      9124      9116      9119      9122      9125
      9117      9116      9119      9120      9117      9116      9119      9121
      9117      9116      9119      9122      9118      9116      9119      9120
      9118      9116      9119      9121      9118      9116      9119      9122
      9119      9122      9125      9126      9119      9122      9125      9127
      9119      9122      9125      9128      9120      9119      9122      9123
      9120      9119      9122      9124      9120      9119      9122      9125
      9121      9119      9122      9123      9121      9119      9122      9124
      9121      9119      9122      9125      9122      9125      9128      9129
      9122      9125      9128      9130      9122      9125      9128      9131
      9123      9122      9125      9126      9123      9122      9125      9127
      9123      9122      9125      9128      9124      9122      9125      9126
      9124      9122      9125      9127      9124      9122      9125      9128
      9125      9128      9131      9132      9125      9128      9131      9133
      9125      9128      9131      9134      9126      9125      9128      9129
      9126      9125      9128      9130      9126      9125      9128      9131
      9127      9125      9128      9129      9127      9125      9128      9130
      9127      9125      9128      9131      9128      9131      9134      9135
      9128      9131      9134      9136      9128      9131      9134      9137
      9129      9128      9131      9132      9129      9128      9131      9133
      9129      9128      9131      9134      9130      9128      9131      9132
      9130      9128      9131      9133      9130      9128      9131      9134
      9132      9131      9134      9135      9132      9131      9134      9136
      9132      9131      9134      9137      9133      9131      9134      9135
      9133      9131      9134      9136      9133      9131      9134      9137
      9138      9139      9154      9155      9138      9139      9154      9156
      9138      9139      9154      9160      9139      9138      9142      9143
      9139      9138      9142      9144      9139      9138      9142      9145
      9139      9138      9146      9147      9139      9138      9146      9148
      9139      9138      9146      9149      9139      9138      9150      9151
      9139      9138      9150      9152      9139      9138      9150      9153
      9139      9154      9160      9157      9140      9139      9138      9142
      9140      9139      9138      9146      9140      9139      9138      9150
      9140      9139      9154      9155      9140      9139      9154      9156
      9140      9139      9154      9160      9141      9139      9138      9142
      9141      9139      9138      9146      9141      9139      9138      9150
      9141      9139      9154      9155      9141      9139      9154      9156
      9141      9139      9154      9160      9142      9138      9139      9154
      9142      9138      9146      9147      9142      9138      9146      9148
      9142      9138      9146      9149      9142      9138      9150      9151
      9142      9138      9150      9152      9142      9138      9150      9153
      9143      9142      9138      9146      9143      9142      9138      9150
      9144      9142      9138      9146      9144      9142      9138      9150
      9145      9142      9138      9146      9145      9142      9138      9150
      9146      9138      9139      9154      9146      9138      9150      9151
      9146      9138      9150      9152      9146      9138      9150      9153
      9147      9146      9138      9150      9148      9146      9138      9150
      9149      9146      9138      9150      9150      9138      9139      9154
      9154      9160      9157      9158      9154      9160      9157      9159
      9154      9160      9157      9161      9155      9154      9160      9157
      9156      9154      9160      9157      9157      9161      9162      9163
      9157      9161      9162      9164      9157      9161      9162      9165
      9158      9157      9161      9162      9159      9157      9161      9162
      9160      9157      9161      9162      9161      9162      9165      9166
      9161      9162      9165      9167      9161      9162      9165      9173
      9162      9165      9167      9168      9162      9165      9173      9174
      9162      9165      9173      9175      9162      9165      9173      9176
      9163      9162      9165      9166      9163      9162      9165      9167
      9163      9162      9165      9173      9164      9162      9165      9166
      9164      9162      9165      9167      9164      9162      9165      9173
      9165      9167      9168      9169      9165      9167      9168      9170
      9165      9173      9176      9177      9166      9165      9167      9168
      9166      9165      9173      9174      9166      9165      9173      9175
      9166      9165      9173      9176      9167      9165      9173      9174
      9167      9165      9173      9175      9167      9165      9173      9176
      9167      9168      9170      9171      9167      9168      9170      9172
      9167      9168      9170      9182      9168      9167      9165      9173
      9168      9170      9182      9183      9168      9170      9182      9184
      9168      9170      9182      9185      9169      9168      9170      9171
      9169      9168      9170      9172      9169      9168      9170      9182
      9170      9182      9185      9186      9170      9182      9185      9187
      9170      9182      9185      9188      9171      9170      9182      9183
      9171      9170      9182      9184      9171      9170      9182      9185
      9172      9170      9182      9183      9172      9170      9182      9184
      9172      9170      9182      9185      9173      9176      9177      9178
      9173      9176      9177      9179      9174      9173      9176      9177
      9175      9173      9176      9177      9176      9177      9179      9180
      9176      9177      9179      9181      9176      9177      9179      9229
      9177      9179      9229      9230      9177      9179      9229      9231
      9177      9179      9229      9232      9178      9177      9179      9180
      9178      9177      9179      9181      9178      9177      9179      9229
      9179      9229      9232      9233      9179      9229      9232      9234
      9179      9229      9232      9235      9180      9179      9229      9230
      9180      9179      9229      9231      9180      9179      9229      9232
      9181      9179      9229      9230      9181      9179      9229      9231
      9181      9179      9229      9232      9182      9185      9188      9189
      9182      9185      9188      9190      9182      9185      9188      9191
      9183      9182      9185      9186      9183      9182      9185      9187
      9183      9182      9185      9188      9184      9182      9185      9186
      9184      9182      9185      9187      9184      9182      9185      9188
      9185      9188      9191      9192      9185      9188      9191      9193
      9185      9188      9191      9194      9186      9185      9188      9189
      9186      9185      9188      9190      9186      9185      9188      9191
      9187      9185      9188      9189      9187      9185      9188      9190
      9187      9185      9188      9191      9188      9191      9194      9195
      9188      9191      9194      9196      9188      9191      9194      9197
      9189      9188      9191      9192      9189      9188      9191      9193
      9189      9188      9191      9194      9190      9188      9191      9192
      9190      9188      9191      9193      9190      9188      9191      9194
      9191      9194      9197      9198      9191      9194      9197      9199
      9191      9194      9197      9200      9192      9191      9194      9195
      9192      9191      9194      9196      9192      9191      9194      9197
      9193      9191      9194      9195      9193      9191      9194      9196
      9193      9191      9194      9197      9194      9197      9200      9201
      9194      9197      9200      9202      9195      9194      9197      9198
      9195      9194      9197      9199      9195      9194      9197      9200
      9196      9194      9197      9198      9196      9194      9197      9199
      9196      9194      9197      9200      9197      9200      9202      9203
      9197      9200      9202      9204      9198      9197      9200      9201
      9198      9197      9200      9202      9199      9197      9200      9201
      9199      9197      9200      9202      9200      9202      9204      9205
      9200      9202      9204      9206      9200      9202      9204      9207
      9201      9200      9202      9203      9201      9200      9202      9204
      9202      9204      9207      9208      9202      9204      9207      9209
      9202      9204      9207      9210      9203      9202      9204      9205
      9203      9202      9204      9206      9203      9202      9204      9207
      9204      9207      9210      9211      9204      9207      9210      9212
      9204      9207      9210      9213      9205      9204      9207      9208
      9205      9204      9207      9209      9205      9204      9207      9210
      9206      9204      9207      9208      9206      9204      9207      9209
      9206      9204      9207      9210      9207      9210      9213      9214
      9207      9210      9213      9215      9207      9210      9213      9216
      9208      9207      9210      9211      9208      9207      9210      9212
      9208      9207      9210      9213      9209      9207      9210      9211
      9209      9207      9210      9212      9209      9207      9210      9213
      9210      9213      9216      9217      9210      9213      9216      9218
      9210      9213      9216      9219      9211      9210      9213      9214
      9211      9210      9213      9215      9211      9210      9213      9216
      9212      9210      9213      9214      9212      9210      9213      9215
      9212      9210      9213      9216      9213      9216      9219      9220
      9213      9216      9219      9221      9213      9216      9219      9222
      9214      9213      9216      9217      9214      9213      9216      9218
      9214      9213      9216      9219      9215      9213      9216      9217
      9215      9213      9216      9218      9215      9213      9216      9219
      9216      9219      9222      9223      9216      9219      9222      9224
      9216      9219      9222      9225      9217      9216      9219      9220
      9217      9216      9219      9221      9217      9216      9219      9222
      9218      9216      9219      9220      9218      9216      9219      9221
      9218      9216      9219      9222      9219      9222      9225      9226
      9219      9222      9225      9227      9219      9222      9225      9228
      9220      9219      9222      9223      9220      9219      9222      9224
      9220      9219      9222      9225      9221      9219      9222      9223
      9221      9219      9222      9224      9221      9219      9222      9225
      9223      9222      9225      9226      9223      9222      9225      9227
      9223      9222      9225      9228      9224      9222      9225      9226
      9224      9222      9225      9227      9224      9222      9225      9228
      9229      9232      9235      9236      9229      9232      9235      9237
      9229      9232      9235      9238      9230      9229      9232      9233
      9230      9229      9232      9234      9230      9229      9232      9235
      9231      9229      9232      9233      9231      9229      9232      9234
      9231      9229      9232      9235      9232      9235      9238      9239
      9232      9235      9238      9240      9232      9235      9238      9241
      9233      9232      9235      9236      9233      9232      9235      9237
      9233      9232      9235      9238      9234      9232      9235      9236
      9234      9232      9235      9237      9234      9232      9235      9238
      9235      9238      9241      9242      9235      9238      9241      9243
      9235      9238      9241      9244      9236      9235      9238      9239
      9236      9235      9238      9240      9236      9235      9238      9241
      9237      9235      9238      9239      9237      9235      9238      9240
      9237      9235      9238      9241      9238      9241      9244      9245
      9238      9241      9244      9246      9238      9241      9244      9247
      9239      9238      9241      9242      9239      9238      9241      9243
      9239      9238      9241      9244      9240      9238      9241      9242
      9240      9238      9241      9243      9240      9238      9241      9244
      9241      9244      9247      9248      9241      9244      9247      9249
      9241      9244      9247      9250      9242      9241      9244      9245
      9242      9241      9244      9246      9242      9241      9244      9247
      9243      9241      9244      9245      9243      9241      9244      9246
      9243      9241      9244      9247      9244      9247      9250      9251
      9244      9247      9250      9252      9244      9247      9250      9253
      9245      9244      9247      9248      9245      9244      9247      9249
      9245      9244      9247      9250      9246      9244      9247      9248
      9246      9244      9247      9249      9246      9244      9247      9250
      9247      9250      9253      9254      9247      9250      9253      9255
      9247      9250      9253      9256      9248      9247      9250      9251
      9248      9247      9250      9252      9248      9247      9250      9253
      9249      9247      9250      9251      9249      9247      9250      9252
      9249      9247      9250      9253      9250      9253      9256      9257
      9250      9253      9256      9258      9250      9253      9256      9259
      9251      9250      9253      9254      9251      9250      9253      9255
      9251      9250      9253      9256      9252      9250      9253      9254
      9252      9250      9253      9255      9252      9250      9253      9256
      9253      9256      9259      9260      9253      9256      9259      9261
      9253      9256      9259      9262      9254      9253      9256      9257
      9254      9253      9256      9258      9254      9253      9256      9259
      9255      9253      9256      9257      9255      9253      9256      9258
      9255      9253      9256      9259      9256      9259      9262      9263
      9256      9259      9262      9264      9256      9259      9262      9265
      9257      9256      9259      9260      9257      9256      9259      9261
      9257      9256      9259      9262      9258      9256      9259      9260
      9258      9256      9259      9261      9258      9256      9259      9262
      9259      9262      9265      9266      9259      9262      9265      9267
      9259      9262      9265      9268      9260      9259      9262      9263
      9260      9259      9262      9264      9260      9259      9262      9265
      9261      9259      9262      9263      9261      9259      9262      9264
      9261      9259      9262      9265      9262      9265      9268      9269
      9262      9265      9268      9270      9262      9265      9268      9271
      9263      9262      9265      9266      9263      9262      9265      9267
      9263      9262      9265      9268      9264      9262      9265      9266
      9264      9262      9265      9267      9264      9262      9265      9268
      9266      9265      9268      9269      9266      9265      9268      9270
      9266      9265      9268      9271      9267      9265      9268      9269
      9267      9265      9268      9270      9267      9265      9268      9271
      9272      9285      9288      9289      9272      9285      9288      9290
      9272      9285      9288      9295      9273      9272      9277      9278
      9273      9272      9277      9279      9273      9272      9277      9280
      9273      9272      9281      9282      9273      9272      9281      9283
      9273      9272      9281      9284      9273      9272      9285      9286
      9273      9272      9285      9287      9273      9272      9285      9288
      9274      9273      9272      9277      9274      9273      9272      9281
      9274      9273      9272      9285      9275      9273      9272      9277
      9275      9273      9272      9281      9275      9273      9272      9285
      9276      9273      9272      9277      9276      9273      9272      9281
      9276      9273      9272      9285      9277      9272      9281      9282
      9277      9272      9281      9283      9277      9272      9281      9284
      9277      9272      9285      9286      9277      9272      9285      9287
      9277      9272      9285      9288      9278      9277      9272      9281
      9278      9277      9272      9285      9279      9277      9272      9281
      9279      9277      9272      9285      9280      9277      9272      9281
      9280      9277      9272      9285      9281      9272      9285      9286
      9281      9272      9285      9287      9281      9272      9285      9288
      9282      9281      9272      9285      9283      9281      9272      9285
      9284      9281      9272      9285      9285      9288      9295      9291
      9286      9285      9288      9289      9286      9285      9288      9290
      9286      9285      9288      9295      9287      9285      9288      9289
      9287      9285      9288      9290      9287      9285      9288      9295
      9288      9295      9291      9292      9288      9295      9291      9293
      9288      9295      9291      9294      9289      9288      9295      9291
      9290      9288      9295      9291      9291      9294      9296      9297
      9291      9294      9296      9298      9291      9294      9296      9301
      9292      9291      9294      9296      9293      9291      9294      9296
      9294      9296      9301      9299      9294      9296      9301      9302
      9294      9296      9301      9303      9295      9291      9294      9296
      9296      9301      9299      9300      9296      9301      9299      9351
      9296      9301      9303      9304      9296      9301      9303      9305
      9296      9301      9303      9307      9297      9296      9301      9299
      9297      9296      9301      9302      9297      9296      9301      9303
      9298      9296      9301      9299      9298      9296      9301      9302
      9298      9296      9301      9303      9299      9301      9303      9304
      9299      9301      9303      9305      9299      9301      9303      9307
      9299      9351      9353      9354      9299      9351      9353      9355
      9299      9351      9353      9356      9300      9299      9301      9302
      9300      9299      9301      9303      9300      9299      9351      9352
      9300      9299      9351      9353      9301      9299      9351      9352
      9301      9299      9351      9353      9301      9303      9305      9306
      9301      9303      9307      9308      9301      9303      9307      9309
      9302      9301      9299      9351      9302      9301      9303      9304
      9302      9301      9303      9305      9302      9301      9303      9307
      9303      9301      9299      9351      9303      9307      9309      9310
      9303      9307      9309      9311      9304      9303      9305      9306
      9304      9303      9307      9308      9304      9303      9307      9309
      9305      9303      9307      9308      9305      9303      9307      9309
      9306      9305      9303      9307      9307      9309      9311      9312
      9307      9309      9311      9313      9307      9309      9311      9314
      9308      9307      9309      9310      9308      9307      9309      9311
      9309      9311      9314      9315      9309      9311      9314      9316
      9309      9311      9314      9317      9310      9309      9311      9312
      9310      9309      9311      9313      9310      9309      9311      9314
      9311      9314      9317      9318      9311      9314      9317      9319
      9311      9314      9317      9320      9312      9311      9314      9315
      9312      9311      9314      9316      9312      9311      9314      9317
      9313      9311      9314      9315      9313      9311      9314      9316
      9313      9311      9314      9317      9314      9317      9320      9321
      9314      9317      9320      9322      9314      9317      9320      9323
      9315      9314      9317      9318      9315      9314      9317      9319
      9315      9314      9317      9320      9316      9314      9317      9318
      9316      9314      9317      9319      9316      9314      9317      9320
      9317      9320      9323      9324      9317      9320      9323      9325
      9317      9320      9323      9326      9318      9317      9320      9321
      9318      9317      9320      9322      9318      9317      9320      9323
      9319      9317      9320      9321      9319      9317      9320      9322
      9319      9317      9320      9323      9320      9323      9326      9327
      9320      9323      9326      9328      9320      9323      9326      9329
      9321      9320      9323      9324      9321      9320      9323      9325
      9321      9320      9323      9326      9322      9320      9323      9324
      9322      9320      9323      9325      9322      9320      9323      9326
      9323      9326      9329      9330      9323      9326      9329      9331
      9323      9326      9329      9332      9324      9323      9326      9327
      9324      9323      9326      9328      9324      9323      9326      9329
      9325      9323      9326      9327      9325      9323      9326      9328
      9325      9323      9326      9329      9326      9329      9332      9333
      9326      9329      9332      9334      9326      9329      9332      9335
      9327      9326      9329      9330      9327      9326      9329      9331
      9327      9326      9329      9332      9328      9326      9329      9330
      9328      9326      9329      9331      9328      9326      9329      9332
      9329      9332      9335      9336      9329      9332      9335      9337
      9329      9332      9335      9338      9330      9329      9332      9333
      9330      9329      9332      9334      9330      9329      9332      9335
      9331      9329      9332      9333      9331      9329      9332      9334
      9331      9329      9332      9335      9332      9335      9338      9339
      9332      9335      9338      9340      9332      9335      9338      9341
      9333      9332      9335      9336      9333      9332      9335      9337
      9333      9332      9335      9338      9334      9332      9335      9336
      9334      9332      9335      9337      9334      9332      9335      9338
      9335      9338      9341      9342      9335      9338      9341      9343
      9335      9338      9341      9344      9336      9335      9338      9339
      9336      9335      9338      9340      9336      9335      9338      9341
      9337      9335      9338      9339      9337      9335      9338      9340
      9337      9335      9338      9341      9338      9341      9344      9345
      9338      9341      9344      9346      9338      9341      9344      9347
      9339      9338      9341      9342      9339      9338      9341      9343
      9339      9338      9341      9344      9340      9338      9341      9342
      9340      9338      9341      9343      9340      9338      9341      9344
      9341      9344      9347      9348      9341      9344      9347      9349
      9341      9344      9347      9350      9342      9341      9344      9345
      9342      9341      9344      9346      9342      9341      9344      9347
      9343      9341      9344      9345      9343      9341      9344      9346
      9343      9341      9344      9347      9345      9344      9347      9348
      9345      9344      9347      9349      9345      9344      9347      9350
      9346      9344      9347      9348      9346      9344      9347      9349
      9346      9344      9347      9350      9351      9353      9356      9357
      9351      9353      9356      9358      9351      9353      9356      9359
      9352      9351      9353      9354      9352      9351      9353      9355
      9352      9351      9353      9356      9353      9356      9359      9360
      9353      9356      9359      9361      9353      9356      9359      9362
      9354      9353      9356      9357      9354      9353      9356      9358
      9354      9353      9356      9359      9355      9353      9356      9357
      9355      9353      9356      9358      9355      9353      9356      9359
      9356      9359      9362      9363      9356      9359      9362      9364
      9356      9359      9362      9365      9357      9356      9359      9360
      9357      9356      9359      9361      9357      9356      9359      9362
      9358      9356      9359      9360      9358      9356      9359      9361
      9358      9356      9359      9362      9359      9362      9365      9366
      9359      9362      9365      9367      9359      9362      9365      9368
      9360      9359      9362      9363      9360      9359      9362      9364
      9360      9359      9362      9365      9361      9359      9362      9363
      9361      9359      9362      9364      9361      9359      9362      9365
      9362      9365      9368      9369      9362      9365      9368      9370
      9362      9365      9368      9371      9363      9362      9365      9366
      9363      9362      9365      9367      9363      9362      9365      9368
      9364      9362      9365      9366      9364      9362      9365      9367
      9364      9362      9365      9368      9365      9368      9371      9372
      9365      9368      9371      9373      9365      9368      9371      9374
      9366      9365      9368      9369      9366      9365      9368      9370
      9366      9365      9368      9371      9367      9365      9368      9369
      9367      9365      9368      9370      9367      9365      9368      9371
      9368      9371      9374      9375      9368      9371      9374      9376
      9368      9371      9374      9377      9369      9368      9371      9372
      9369      9368      9371      9373      9369      9368      9371      9374
      9370      9368      9371      9372      9370      9368      9371      9373
      9370      9368      9371      9374      9371      9374      9377      9378
      9371      9374      9377      9379      9371      9374      9377      9380
      9372      9371      9374      9375      9372      9371      9374      9376
      9372      9371      9374      9377      9373      9371      9374      9375
      9373      9371      9374      9376      9373      9371      9374      9377
      9374      9377      9380      9381      9374      9377      9380      9382
      9374      9377      9380      9383      9375      9374      9377      9378
      9375      9374      9377      9379      9375      9374      9377      9380
      9376      9374      9377      9378      9376      9374      9377      9379
      9376      9374      9377      9380      9377      9380      9383      9384
      9377      9380      9383      9385      9377      9380      9383      9386
      9378      9377      9380      9381      9378      9377      9380      9382
      9378      9377      9380      9383      9379      9377      9380      9381
      9379      9377      9380      9382      9379      9377      9380      9383
      9380      9383      9386      9387      9380      9383      9386      9388
      9380      9383      9386      9389      9381      9380      9383      9384
      9381      9380      9383      9385      9381      9380      9383      9386
      9382      9380      9383      9384      9382      9380      9383      9385
      9382      9380      9383      9386      9383      9386      9389      9390
      9383      9386      9389      9391      9383      9386      9389      9392
      9384      9383      9386      9387      9384      9383      9386      9388
      9384      9383      9386      9389      9385      9383      9386      9387
      9385      9383      9386      9388      9385      9383      9386      9389
      9386      9389      9392      9393      9386      9389      9392      9394
      9386      9389      9392      9395      9387      9386      9389      9390
      9387      9386      9389      9391      9387      9386      9389      9392
      9388      9386      9389      9390      9388      9386      9389      9391
      9388      9386      9389      9392      9389      9392      9395      9396
      9389      9392      9395      9397      9389      9392      9395      9398
      9390      9389      9392      9393      9390      9389      9392      9394
      9390      9389      9392      9395      9391      9389      9392      9393
      9391      9389      9392      9394      9391      9389      9392      9395
      9393      9392      9395      9396      9393      9392      9395      9397
      9393      9392      9395      9398      9394      9392      9395      9396
      9394      9392      9395      9397      9394      9392      9395      9398
      9399      9403      9406      9407      9399      9403      9406      9408
      9399      9403      9406      9413      9400      9399      9403      9404
      9400      9399      9403      9405      9400      9399      9403      9406
      9401      9399      9403      9404      9401      9399      9403      9405
      9401      9399      9403      9406      9402      9399      9403      9404
      9402      9399      9403      9405      9402      9399      9403      9406
      9403      9406      9413      9409      9404      9403      9406      9407
      9404      9403      9406      9408      9404      9403      9406      9413
      9405      9403      9406      9407      9405      9403      9406      9408
      9405      9403      9406      9413      9406      9413      9409      9410
      9406      9413      9409      9411      9406      9413      9409      9412
      9407      9406      9413      9409      9408      9406      9413      9409
      9409      9412      9414      9415      9409      9412      9414      9416
      9409      9412      9414      9417      9410      9409      9412      9414
      9411      9409      9412      9414      9412      9414      9417      9418
      9412      9414      9417      9419      9412      9414      9417      9425
      9413      9409      9412      9414      9414      9417      9419      9420
      9414      9417      9425      9426      9414      9417      9425      9427
      9414      9417      9425      9428      9415      9414      9417      9418
      9415      9414      9417      9419      9415      9414      9417      9425
      9416      9414      9417      9418      9416      9414      9417      9419
      9416      9414      9417      9425      9417      9419      9420      9421
      9417      9419      9420      9422      9417      9425      9428      9429
      9418      9417      9419      9420      9418      9417      9425      9426
      9418      9417      9425      9427      9418      9417      9425      9428
      9419      9417      9425      9426      9419      9417      9425      9427
      9419      9417      9425      9428      9419      9420      9422      9423
      9419      9420      9422      9424      9419      9420      9422      9434
      9420      9419      9417      9425      9420      9422      9434      9435
      9420      9422      9434      9436      9420      9422      9434      9437
      9421      9420      9422      9423      9421      9420      9422      9424
      9421      9420      9422      9434      9422      9434      9437      9438
      9422      9434      9437      9439      9422      9434      9437      9440
      9423      9422      9434      9435      9423      9422      9434      9436
      9423      9422      9434      9437      9424      9422      9434      9435
      9424      9422      9434      9436      9424      9422      9434      9437
      9425      9428      9429      9430      9425      9428      9429      9431
      9426      9425      9428      9429      9427      9425      9428      9429
      9428      9429      9431      9432      9428      9429      9431      9433
      9428      9429      9431      9481      9429      9431      9481      9482
      9429      9431      9481      9483      9429      9431      9481      9484
      9430      9429      9431      9432      9430      9429      9431      9433
      9430      9429      9431      9481      9431      9481      9484      9485
      9431      9481      9484      9486      9431      9481      9484      9487
      9432      9431      9481      9482      9432      9431      9481      9483
      9432      9431      9481      9484      9433      9431      9481      9482
      9433      9431      9481      9483      9433      9431      9481      9484
      9434      9437      9440      9441      9434      9437      9440      9442
      9434      9437      9440      9443      9435      9434      9437      9438
      9435      9434      9437      9439      9435      9434      9437      9440
      9436      9434      9437      9438      9436      9434      9437      9439
      9436      9434      9437      9440      9437      9440      9443      9444
      9437      9440      9443      9445      9437      9440      9443      9446
      9438      9437      9440      9441      9438      9437      9440      9442
      9438      9437      9440      9443      9439      9437      9440      9441
      9439      9437      9440      9442      9439      9437      9440      9443
      9440      9443      9446      9447      9440      9443      9446      9448
      9440      9443      9446      9449      9441      9440      9443      9444
      9441      9440      9443      9445      9441      9440      9443      9446
      9442      9440      9443      9444      9442      9440      9443      9445
      9442      9440      9443      9446      9443      9446      9449      9450
      9443      9446      9449      9451      9443      9446      9449      9452
      9444      9443      9446      9447      9444      9443      9446      9448
      9444      9443      9446      9449      9445      9443      9446      9447
      9445      9443      9446      9448      9445      9443      9446      9449
      9446      9449      9452      9453      9446      9449      9452      9454
      9447      9446      9449      9450      9447      9446      9449      9451
      9447      9446      9449      9452      9448      9446      9449      9450
      9448      9446      9449      9451      9448      9446      9449      9452
      9449      9452      9454      9455      9449      9452      9454      9456
      9450      9449      9452      9453      9450      9449      9452      9454
      9451      9449      9452      9453      9451      9449      9452      9454
      9452      9454      9456      9457      9452      9454      9456      9458
      9452      9454      9456      9459      9453      9452      9454      9455
      9453      9452      9454      9456      9454      9456      9459      9460
      9454      9456      9459      9461      9454      9456      9459      9462
      9455      9454      9456      9457      9455      9454      9456      9458
      9455      9454      9456      9459      9456      9459      9462      9463
      9456      9459      9462      9464      9456      9459      9462      9465
      9457      9456      9459      9460      9457      9456      9459      9461
      9457      9456      9459      9462      9458      9456      9459      9460
      9458      9456      9459      9461      9458      9456      9459      9462
      9459      9462      9465      9466      9459      9462      9465      9467
      9459      9462      9465      9468      9460      9459      9462      9463
      9460      9459      9462      9464      9460      9459      9462      9465
      9461      9459      9462      9463      9461      9459      9462      9464
      9461      9459      9462      9465      9462      9465      9468      9469
      9462      9465      9468      9470      9462      9465      9468      9471
      9463      9462      9465      9466      9463      9462      9465      9467
      9463      9462      9465      9468      9464      9462      9465      9466
      9464      9462      9465      9467      9464      9462      9465      9468
      9465      9468      9471      9472      9465      9468      9471      9473
      9465      9468      9471      9474      9466      9465      9468      9469
      9466      9465      9468      9470      9466      9465      9468      9471
      9467      9465      9468      9469      9467      9465      9468      9470
      9467      9465      9468      9471      9468      9471      9474      9475
      9468      9471      9474      9476      9468      9471      9474      9477
      9469      9468      9471      9472      9469      9468      9471      9473
      9469      9468      9471      9474      9470      9468      9471      9472
      9470      9468      9471      9473      9470      9468      9471      9474
      9471      9474      9477      9478      9471      9474      9477      9479
      9471      9474      9477      9480      9472      9471      9474      9475
      9472      9471      9474      9476      9472      9471      9474      9477
      9473      9471      9474      9475      9473      9471      9474      9476
      9473      9471      9474      9477      9475      9474      9477      9478
      9475      9474      9477      9479      9475      9474      9477      9480
      9476      9474      9477      9478      9476      9474      9477      9479
      9476      9474      9477      9480      9481      9484      9487      9488
      9481      9484      9487      9489      9481      9484      9487      9490
      9482      9481      9484      9485      9482      9481      9484      9486
      9482      9481      9484      9487      9483      9481      9484      9485
      9483      9481      9484      9486      9483      9481      9484      9487
      9484      9487      9490      9491      9484      9487      9490      9492
      9484      9487      9490      9493      9485      9484      9487      9488
      9485      9484      9487      9489      9485      9484      9487      9490
      9486      9484      9487      9488      9486      9484      9487      9489
      9486      9484      9487      9490      9487      9490      9493      9494
      9487      9490      9493      9495      9487      9490      9493      9496
      9488      9487      9490      9491      9488      9487      9490      9492
      9488      9487      9490      9493      9489      9487      9490      9491
      9489      9487      9490      9492      9489      9487      9490      9493
      9490      9493      9496      9497      9490      9493      9496      9498
      9490      9493      9496      9499      9491      9490      9493      9494
      9491      9490      9493      9495      9491      9490      9493      9496
      9492      9490      9493      9494      9492      9490      9493      9495
      9492      9490      9493      9496      9493      9496      9499      9500
      9493      9496      9499      9501      9493      9496      9499      9502
      9494      9493      9496      9497      9494      9493      9496      9498
      9494      9493      9496      9499      9495      9493      9496      9497
      9495      9493      9496      9498      9495      9493      9496      9499
      9496      9499      9502      9503      9496      9499      9502      9504
      9496      9499      9502      9505      9497      9496      9499      9500
      9497      9496      9499      9501      9497      9496      9499      9502
      9498      9496      9499      9500      9498      9496      9499      9501
      9498      9496      9499      9502      9499      9502      9505      9506
      9499      9502      9505      9507      9499      9502      9505      9508
      9500      9499      9502      9503      9500      9499      9502      9504
      9500      9499      9502      9505      9501      9499      9502      9503
      9501      9499      9502      9504      9501      9499      9502      9505
      9502      9505      9508      9509      9502      9505      9508      9510
      9502      9505      9508      9511      9503      9502      9505      9506
      9503      9502      9505      9507      9503      9502      9505      9508
      9504      9502      9505      9506      9504      9502      9505      9507
      9504      9502      9505      9508      9505      9508      9511      9512
      9505      9508      9511      9513      9505      9508      9511      9514
      9506      9505      9508      9509      9506      9505      9508      9510
      9506      9505      9508      9511      9507      9505      9508      9509
      9507      9505      9508      9510      9507      9505      9508      9511
      9508      9511      9514      9515      9508      9511      9514      9516
      9508      9511      9514      9517      9509      9508      9511      9512
      9509      9508      9511      9513      9509      9508      9511      9514
      9510      9508      9511      9512      9510      9508      9511      9513
      9510      9508      9511      9514      9511      9514      9517      9518
      9511      9514      9517      9519      9511      9514      9517      9520
      9512      9511      9514      9515      9512      9511      9514      9516
      9512      9511      9514      9517      9513      9511      9514      9515
      9513      9511      9514      9516      9513      9511      9514      9517
      9514      9517      9520      9521      9514      9517      9520      9522
      9514      9517      9520      9523      9515      9514      9517      9518
      9515      9514      9517      9519      9515      9514      9517      9520
      9516      9514      9517      9518      9516      9514      9517      9519
      9516      9514      9517      9520      9518      9517      9520      9521
      9518      9517      9520      9522      9518      9517      9520      9523
      9519      9517      9520      9521      9519      9517      9520      9522
      9519      9517      9520      9523      9524      9528      9530      9531
      9524      9528      9530      9532      9524      9528      9533      9534
      9524      9528      9533      9535      9524      9528      9533      9539
      9525      9524      9528      9529      9525      9524      9528      9530
      9525      9524      9528      9533      9526      9524      9528      9529
      9526      9524      9528      9530      9526      9524      9528      9533
      9527      9524      9528      9529      9527      9524      9528      9530
      9527      9524      9528      9533      9528      9533      9539      9536
      9529      9528      9530      9531      9529      9528      9530      9532
      9529      9528      9533      9534      9529      9528      9533      9535
      9529      9528      9533      9539      9530      9528      9533      9534
      9530      9528      9533      9535      9530      9528      9533      9539
      9531      9530      9528      9533      9532      9530      9528      9533
      9533      9539      9536      9537      9533      9539      9536      9538
      9533      9539      9536      9540      9534      9533      9539      9536
      9535      9533      9539      9536      9536      9540      9541      9542
      9536      9540      9541      9543      9536      9540      9541      9544
      9537      9536      9540      9541      9538      9536      9540      9541
      9539      9536      9540      9541      9540      9541      9544      9545
      9540      9541      9544      9546      9540      9541      9544      9552
      9541      9544      9546      9547      9541      9544      9552      9553
      9541      9544      9552      9554      9541      9544      9552      9555
      9542      9541      9544      9545      9542      9541      9544      9546
      9542      9541      9544      9552      9543      9541      9544      9545
      9543      9541      9544      9546      9543      9541      9544      9552
      9544      9546      9547      9548      9544      9546      9547      9549
      9544      9552      9555      9556      9545      9544      9546      9547
      9545      9544      9552      9553      9545      9544      9552      9554
      9545      9544      9552      9555      9546      9544      9552      9553
      9546      9544      9552      9554      9546      9544      9552      9555
      9546      9547      9549      9550      9546      9547      9549      9551
      9546      9547      9549      9561      9547      9546      9544      9552
      9547      9549      9561      9562      9547      9549      9561      9563
      9547      9549      9561      9564      9548      9547      9549      9550
      9548      9547      9549      9551      9548      9547      9549      9561
      9549      9561      9564      9565      9549      9561      9564      9566
      9549      9561      9564      9567      9550      9549      9561      9562
      9550      9549      9561      9563      9550      9549      9561      9564
      9551      9549      9561      9562      9551      9549      9561      9563
      9551      9549      9561      9564      9552      9555      9556      9557
      9552      9555      9556      9558      9553      9552      9555      9556
      9554      9552      9555      9556      9555      9556      9558      9559
      9555      9556      9558      9560      9555      9556      9558      9608
      9556      9558      9608      9609      9556      9558      9608      9610
      9556      9558      9608      9611      9557      9556      9558      9559
      9557      9556      9558      9560      9557      9556      9558      9608
      9558      9608      9611      9612      9558      9608      9611      9613
      9558      9608      9611      9614      9559      9558      9608      9609
      9559      9558      9608      9610      9559      9558      9608      9611
      9560      9558      9608      9609      9560      9558      9608      9610
      9560      9558      9608      9611      9561      9564      9567      9568
      9561      9564      9567      9569      9561      9564      9567      9570
      9562      9561      9564      9565      9562      9561      9564      9566
      9562      9561      9564      9567      9563      9561      9564      9565
      9563      9561      9564      9566      9563      9561      9564      9567
      9564      9567      9570      9571      9564      9567      9570      9572
      9564      9567      9570      9573      9565      9564      9567      9568
      9565      9564      9567      9569      9565      9564      9567      9570
      9566      9564      9567      9568      9566      9564      9567      9569
      9566      9564      9567      9570      9567      9570      9573      9574
      9567      9570      9573      9575      9567      9570      9573      9576
      9568      9567      9570      9571      9568      9567      9570      9572
      9568      9567      9570      9573      9569      9567      9570      9571
      9569      9567      9570      9572      9569      9567      9570      9573
      9570      9573      9576      9577      9570      9573      9576      9578
      9570      9573      9576      9579      9571      9570      9573      9574
      9571      9570      9573      9575      9571      9570      9573      9576
      9572      9570      9573      9574      9572      9570      9573      9575
      9572      9570      9573      9576      9573      9576      9579      9580
      9573      9576      9579      9581      9574      9573      9576      9577
      9574      9573      9576      9578      9574      9573      9576      9579
      9575      9573      9576      9577      9575      9573      9576      9578
      9575      9573      9576      9579      9576      9579      9581      9582
      9576      9579      9581      9583      9577      9576      9579      9580
      9577      9576      9579      9581      9578      9576      9579      9580
      9578      9576      9579      9581      9579      9581      9583      9584
      9579      9581      9583      9585      9579      9581      9583      9586
      9580      9579      9581      9582      9580      9579      9581      9583
      9581      9583      9586      9587      9581      9583      9586      9588
      9581      9583      9586      9589      9582      9581      9583      9584
      9582      9581      9583      9585      9582      9581      9583      9586
      9583      9586      9589      9590      9583      9586      9589      9591
      9583      9586      9589      9592      9584      9583      9586      9587
      9584      9583      9586      9588      9584      9583      9586      9589
      9585      9583      9586      9587      9585      9583      9586      9588
      9585      9583      9586      9589      9586      9589      9592      9593
      9586      9589      9592      9594      9586      9589      9592      9595
      9587      9586      9589      9590      9587      9586      9589      9591
      9587      9586      9589      9592      9588      9586      9589      9590
      9588      9586      9589      9591      9588      9586      9589      9592
      9589      9592      9595      9596      9589      9592      9595      9597
      9589      9592      9595      9598      9590      9589      9592      9593
      9590      9589      9592      9594      9590      9589      9592      9595
      9591      9589      9592      9593      9591      9589      9592      9594
      9591      9589      9592      9595      9592      9595      9598      9599
      9592      9595      9598      9600      9592      9595      9598      9601
      9593      9592      9595      9596      9593      9592      9595      9597
      9593      9592      9595      9598      9594      9592      9595      9596
      9594      9592      9595      9597      9594      9592      9595      9598
      9595      9598      9601      9602      9595      9598      9601      9603
      9595      9598      9601      9604      9596      9595      9598      9599
      9596      9595      9598      9600      9596      9595      9598      9601
      9597      9595      9598      9599      9597      9595      9598      9600
      9597      9595      9598      9601      9598      9601      9604      9605
      9598      9601      9604      9606      9598      9601      9604      9607
      9599      9598      9601      9602      9599      9598      9601      9603
      9599      9598      9601      9604      9600      9598      9601      9602
      9600      9598      9601      9603      9600      9598      9601      9604
      9602      9601      9604      9605      9602      9601      9604      9606
      9602      9601      9604      9607      9603      9601      9604      9605
      9603      9601      9604      9606      9603      9601      9604      9607
      9608      9611      9614      9615      9608      9611      9614      9616
      9608      9611      9614      9617      9609      9608      9611      9612
      9609      9608      9611      9613      9609      9608      9611      9614
      9610      9608      9611      9612      9610      9608      9611      9613
      9610      9608      9611      9614      9611      9614      9617      9618
      9611      9614      9617      9619      9611      9614      9617      9620
      9612      9611      9614      9615      9612      9611      9614      9616
      9612      9611      9614      9617      9613      9611      9614      9615
      9613      9611      9614      9616      9613      9611      9614      9617
      9614      9617      9620      9621      9614      9617      9620      9622
      9614      9617      9620      9623      9615      9614      9617      9618
      9615      9614      9617      9619      9615      9614      9617      9620
      9616      9614      9617      9618      9616      9614      9617      9619
      9616      9614      9617      9620      9617      9620      9623      9624
      9617      9620      9623      9625      9617      9620      9623      9626
      9618      9617      9620      9621      9618      9617      9620      9622
      9618      9617      9620      9623      9619      9617      9620      9621
      9619      9617      9620      9622      9619      9617      9620      9623
      9620      9623      9626      9627      9620      9623      9626      9628
      9620      9623      9626      9629      9621      9620      9623      9624
      9621      9620      9623      9625      9621      9620      9623      9626
      9622      9620      9623      9624      9622      9620      9623      9625
      9622      9620      9623      9626      9623      9626      9629      9630
      9623      9626      9629      9631      9623      9626      9629      9632
      9624      9623      9626      9627      9624      9623      9626      9628
      9624      9623      9626      9629      9625      9623      9626      9627
      9625      9623      9626      9628      9625      9623      9626      9629
      9626      9629      9632      9633      9626      9629      9632      9634
      9626      9629      9632      9635      9627      9626      9629      9630
      9627      9626      9629      9631      9627      9626      9629      9632
      9628      9626      9629      9630      9628      9626      9629      9631
      9628      9626      9629      9632      9629      9632      9635      9636
      9629      9632      9635      9637      9629      9632      9635      9638
      9630      9629      9632      9633      9630      9629      9632      9634
      9630      9629      9632      9635      9631      9629      9632      9633
      9631      9629      9632      9634      9631      9629      9632      9635
      9632      9635      9638      9639      9632      9635      9638      9640
      9632      9635      9638      9641      9633      9632      9635      9636
      9633      9632      9635      9637      9633      9632      9635      9638
      9634      9632      9635      9636      9634      9632      9635      9637
      9634      9632      9635      9638      9635      9638      9641      9642
      9635      9638      9641      9643      9635      9638      9641      9644
      9636      9635      9638      9639      9636      9635      9638      9640
      9636      9635      9638      9641      9637      9635      9638      9639
      9637      9635      9638      9640      9637      9635      9638      9641
      9638      9641      9644      9645      9638      9641      9644      9646
      9638      9641      9644      9647      9639      9638      9641      9642
      9639      9638      9641      9643      9639      9638      9641      9644
      9640      9638      9641      9642      9640      9638      9641      9643
      9640      9638      9641      9644      9641      9644      9647      9648
      9641      9644      9647      9649      9641      9644      9647      9650
      9642      9641      9644      9645      9642      9641      9644      9646
      9642      9641      9644      9647      9643      9641      9644      9645
      9643      9641      9644      9646      9643      9641      9644      9647
      9645      9644      9647      9648      9645      9644      9647      9649
      9645      9644      9647      9650      9646      9644      9647      9648
      9646      9644      9647      9649      9646      9644      9647      9650
      9651      9652      9667      9668      9651      9652      9667      9669
      9651      9652      9667      9673      9652      9651      9655      9656
      9652      9651      9655      9657      9652      9651      9655      9658
      9652      9651      9659      9660      9652      9651      9659      9661
      9652      9651      9659      9662      9652      9651      9663      9664
      9652      9651      9663      9665      9652      9651      9663      9666
      9652      9667      9673      9670      9653      9652      9651      9655
      9653      9652      9651      9659      9653      9652      9651      9663
      9653      9652      9667      9668      9653      9652      9667      9669
      9653      9652      9667      9673      9654      9652      9651      9655
      9654      9652      9651      9659      9654      9652      9651      9663
      9654      9652      9667      9668      9654      9652      9667      9669
      9654      9652      9667      9673      9655      9651      9652      9667
      9655      9651      9659      9660      9655      9651      9659      9661
      9655      9651      9659      9662      9655      9651      9663      9664
      9655      9651      9663      9665      9655      9651      9663      9666
      9656      9655      9651      9659      9656      9655      9651      9663
      9657      9655      9651      9659      9657      9655      9651      9663
      9658      9655      9651      9659      9658      9655      9651      9663
      9659      9651      9652      9667      9659      9651      9663      9664
      9659      9651      9663      9665      9659      9651      9663      9666
      9660      9659      9651      9663      9661      9659      9651      9663
      9662      9659      9651      9663      9663      9651      9652      9667
      9667      9673      9670      9671      9667      9673      9670      9672
      9667      9673      9670      9674      9668      9667      9673      9670
      9669      9667      9673      9670      9670      9674      9675      9676
      9670      9674      9675      9677      9670      9674      9675      9678
      9671      9670      9674      9675      9672      9670      9674      9675
      9673      9670      9674      9675      9674      9675      9678      9679
      9674      9675      9678      9680      9674      9675      9678      9686
      9675      9678      9680      9681      9675      9678      9686      9687
      9675      9678      9686      9688      9675      9678      9686      9689
      9676      9675      9678      9679      9676      9675      9678      9680
      9676      9675      9678      9686      9677      9675      9678      9679
      9677      9675      9678      9680      9677      9675      9678      9686
      9678      9680      9681      9682      9678      9680      9681      9683
      9678      9686      9689      9690      9679      9678      9680      9681
      9679      9678      9686      9687      9679      9678      9686      9688
      9679      9678      9686      9689      9680      9678      9686      9687
      9680      9678      9686      9688      9680      9678      9686      9689
      9680      9681      9683      9684      9680      9681      9683      9685
      9680      9681      9683      9695      9681      9680      9678      9686
      9681      9683      9695      9696      9681      9683      9695      9697
      9681      9683      9695      9698      9682      9681      9683      9684
      9682      9681      9683      9685      9682      9681      9683      9695
      9683      9695      9698      9699      9683      9695      9698      9700
      9683      9695      9698      9701      9684      9683      9695      9696
      9684      9683      9695      9697      9684      9683      9695      9698
      9685      9683      9695      9696      9685      9683      9695      9697
      9685      9683      9695      9698      9686      9689      9690      9691
      9686      9689      9690      9692      9687      9686      9689      9690
      9688      9686      9689      9690      9689      9690      9692      9693
      9689      9690      9692      9694      9689      9690      9692      9742
      9690      9692      9742      9743      9690      9692      9742      9744
      9690      9692      9742      9745      9691      9690      9692      9693
      9691      9690      9692      9694      9691      9690      9692      9742
      9692      9742      9745      9746      9692      9742      9745      9747
      9692      9742      9745      9748      9693      9692      9742      9743
      9693      9692      9742      9744      9693      9692      9742      9745
      9694      9692      9742      9743      9694      9692      9742      9744
      9694      9692      9742      9745      9695      9698      9701      9702
      9695      9698      9701      9703      9695      9698      9701      9704
      9696      9695      9698      9699      9696      9695      9698      9700
      9696      9695      9698      9701      9697      9695      9698      9699
      9697      9695      9698      9700      9697      9695      9698      9701
      9698      9701      9704      9705      9698      9701      9704      9706
      9698      9701      9704      9707      9699      9698      9701      9702
      9699      9698      9701      9703      9699      9698      9701      9704
      9700      9698      9701      9702      9700      9698      9701      9703
      9700      9698      9701      9704      9701      9704      9707      9708
      9701      9704      9707      9709      9701      9704      9707      9710
      9702      9701      9704      9705      9702      9701      9704      9706
      9702      9701      9704      9707      9703      9701      9704      9705
      9703      9701      9704      9706      9703      9701      9704      9707
      9704      9707      9710      9711      9704      9707      9710      9712
      9704      9707      9710      9713      9705      9704      9707      9708
      9705      9704      9707      9709      9705      9704      9707      9710
      9706      9704      9707      9708      9706      9704      9707      9709
      9706      9704      9707      9710      9707      9710      9713      9714
      9707      9710      9713      9715      9708      9707      9710      9711
      9708      9707      9710      9712      9708      9707      9710      9713
      9709      9707      9710      9711      9709      9707      9710      9712
      9709      9707      9710      9713      9710      9713      9715      9716
      9710      9713      9715      9717      9711      9710      9713      9714
      9711      9710      9713      9715      9712      9710      9713      9714
      9712      9710      9713      9715      9713      9715      9717      9718
      9713      9715      9717      9719      9713      9715      9717      9720
      9714      9713      9715      9716      9714      9713      9715      9717
      9715      9717      9720      9721      9715      9717      9720      9722
      9715      9717      9720      9723      9716      9715      9717      9718
      9716      9715      9717      9719      9716      9715      9717      9720
      9717      9720      9723      9724      9717      9720      9723      9725
      9717      9720      9723      9726      9718      9717      9720      9721
      9718      9717      9720      9722      9718      9717      9720      9723
      9719      9717      9720      9721      9719      9717      9720      9722
      9719      9717      9720      9723      9720      9723      9726      9727
      9720      9723      9726      9728      9720      9723      9726      9729
      9721      9720      9723      9724      9721      9720      9723      9725
      9721      9720      9723      9726      9722      9720      9723      9724
      9722      9720      9723      9725      9722      9720      9723      9726
      9723      9726      9729      9730      9723      9726      9729      9731
      9723      9726      9729      9732      9724      9723      9726      9727
      9724      9723      9726      9728      9724      9723      9726      9729
      9725      9723      9726      9727      9725      9723      9726      9728
      9725      9723      9726      9729      9726      9729      9732      9733
      9726      9729      9732      9734      9726      9729      9732      9735
      9727      9726      9729      9730      9727      9726      9729      9731
      9727      9726      9729      9732      9728      9726      9729      9730
      9728      9726      9729      9731      9728      9726      9729      9732
      9729      9732      9735      9736      9729      9732      9735      9737
      9729      9732      9735      9738      9730      9729      9732      9733
      9730      9729      9732      9734      9730      9729      9732      9735
      9731      9729      9732      9733      9731      9729      9732      9734
      9731      9729      9732      9735      9732      9735      9738      9739
      9732      9735      9738      9740      9732      9735      9738      9741
      9733      9732      9735      9736      9733      9732      9735      9737
      9733      9732      9735      9738      9734      9732      9735      9736
      9734      9732      9735      9737      9734      9732      9735      9738
      9736      9735      9738      9739      9736      9735      9738      9740
      9736      9735      9738      9741      9737      9735      9738      9739
      9737      9735      9738      9740      9737      9735      9738      9741
      9742      9745      9748      9749      9742      9745      9748      9750
      9742      9745      9748      9751      9743      9742      9745      9746
      9743      9742      9745      9747      9743      9742      9745      9748
      9744      9742      9745      9746      9744      9742      9745      9747
      9744      9742      9745      9748      9745      9748      9751      9752
      9745      9748      9751      9753      9745      9748      9751      9754
      9746      9745      9748      9749      9746      9745      9748      9750
      9746      9745      9748      9751      9747      9745      9748      9749
      9747      9745      9748      9750      9747      9745      9748      9751
      9748      9751      9754      9755      9748      9751      9754      9756
      9748      9751      9754      9757      9749      9748      9751      9752
      9749      9748      9751      9753      9749      9748      9751      9754
      9750      9748      9751      9752      9750      9748      9751      9753
      9750      9748      9751      9754      9751      9754      9757      9758
      9751      9754      9757      9759      9751      9754      9757      9760
      9752      9751      9754      9755      9752      9751      9754      9756
      9752      9751      9754      9757      9753      9751      9754      9755
      9753      9751      9754      9756      9753      9751      9754      9757
      9754      9757      9760      9761      9754      9757      9760      9762
      9754      9757      9760      9763      9755      9754      9757      9758
      9755      9754      9757      9759      9755      9754      9757      9760
      9756      9754      9757      9758      9756      9754      9757      9759
      9756      9754      9757      9760      9757      9760      9763      9764
      9757      9760      9763      9765      9757      9760      9763      9766
      9758      9757      9760      9761      9758      9757      9760      9762
      9758      9757      9760      9763      9759      9757      9760      9761
      9759      9757      9760      9762      9759      9757      9760      9763
      9760      9763      9766      9767      9760      9763      9766      9768
      9760      9763      9766      9769      9761      9760      9763      9764
      9761      9760      9763      9765      9761      9760      9763      9766
      9762      9760      9763      9764      9762      9760      9763      9765
      9762      9760      9763      9766      9763      9766      9769      9770
      9763      9766      9769      9771      9763      9766      9769      9772
      9764      9763      9766      9767      9764      9763      9766      9768
      9764      9763      9766      9769      9765      9763      9766      9767
      9765      9763      9766      9768      9765      9763      9766      9769
      9766      9769      9772      9773      9766      9769      9772      9774
      9766      9769      9772      9775      9767      9766      9769      9770
      9767      9766      9769      9771      9767      9766      9769      9772
      9768      9766      9769      9770      9768      9766      9769      9771
      9768      9766      9769      9772      9769      9772      9775      9776
      9769      9772      9775      9777      9769      9772      9775      9778
      9770      9769      9772      9773      9770      9769      9772      9774
      9770      9769      9772      9775      9771      9769      9772      9773
      9771      9769      9772      9774      9771      9769      9772      9775
      9772      9775      9778      9779      9772      9775      9778      9780
      9772      9775      9778      9781      9773      9772      9775      9776
      9773      9772      9775      9777      9773      9772      9775      9778
      9774      9772      9775      9776      9774      9772      9775      9777
      9774      9772      9775      9778      9775      9778      9781      9782
      9775      9778      9781      9783      9775      9778      9781      9784
      9776      9775      9778      9779      9776      9775      9778      9780
      9776      9775      9778      9781      9777      9775      9778      9779
      9777      9775      9778      9780      9777      9775      9778      9781
      9779      9778      9781      9782      9779      9778      9781      9783
      9779      9778      9781      9784      9780      9778      9781      9782
      9780      9778      9781      9783      9780      9778      9781      9784
      9785      9789      9792      9793      9785      9789      9792      9794
      9785      9789      9792      9799      9786      9785      9789      9790
      9786      9785      9789      9791      9786      9785      9789      9792
      9787      9785      9789      9790      9787      9785      9789      9791
      9787      9785      9789      9792      9788      9785      9789      9790
      9788      9785      9789      9791      9788      9785      9789      9792
      9789      9792      9799      9795      9790      9789      9792      9793
      9790      9789      9792      9794      9790      9789      9792      9799
      9791      9789      9792      9793      9791      9789      9792      9794
      9791      9789      9792      9799      9792      9799      9795      9796
      9792      9799      9795      9797      9792      9799      9795      9798
      9793      9792      9799      9795      9794      9792      9799      9795
      9795      9798      9800      9801      9795      9798      9800      9802
      9795      9798      9800      9803      9796      9795      9798      9800
      9797      9795      9798      9800      9798      9800      9803      9804
      9798      9800      9803      9805      9798      9800      9803      9811
      9799      9795      9798      9800      9800      9803      9805      9806
      9800      9803      9811      9812      9800      9803      9811      9813
      9800      9803      9811      9814      9801      9800      9803      9804
      9801      9800      9803      9805      9801      9800      9803      9811
      9802      9800      9803      9804      9802      9800      9803      9805
      9802      9800      9803      9811      9803      9805      9806      9807
      9803      9805      9806      9808      9803      9811      9814      9815
      9804      9803      9805      9806      9804      9803      9811      9812
      9804      9803      9811      9813      9804      9803      9811      9814
      9805      9803      9811      9812      9805      9803      9811      9813
      9805      9803      9811      9814      9805      9806      9808      9809
      9805      9806      9808      9810      9805      9806      9808      9820
      9806      9805      9803      9811      9806      9808      9820      9821
      9806      9808      9820      9822      9806      9808      9820      9823
      9807      9806      9808      9809      9807      9806      9808      9810
      9807      9806      9808      9820      9808      9820      9823      9824
      9808      9820      9823      9825      9808      9820      9823      9826
      9809      9808      9820      9821      9809      9808      9820      9822
      9809      9808      9820      9823      9810      9808      9820      9821
      9810      9808      9820      9822      9810      9808      9820      9823
      9811      9814      9815      9816      9811      9814      9815      9817
      9812      9811      9814      9815      9813      9811      9814      9815
      9814      9815      9817      9818      9814      9815      9817      9819
      9814      9815      9817      9867      9815      9817      9867      9868
      9815      9817      9867      9869      9815      9817      9867      9870
      9816      9815      9817      9818      9816      9815      9817      9819
      9816      9815      9817      9867      9817      9867      9870      9871
      9817      9867      9870      9872      9817      9867      9870      9873
      9818      9817      9867      9868      9818      9817      9867      9869
      9818      9817      9867      9870      9819      9817      9867      9868
      9819      9817      9867      9869      9819      9817      9867      9870
      9820      9823      9826      9827      9820      9823      9826      9828
      9820      9823      9826      9829      9821      9820      9823      9824
      9821      9820      9823      9825      9821      9820      9823      9826
      9822      9820      9823      9824      9822      9820      9823      9825
      9822      9820      9823      9826      9823      9826      9829      9830
      9823      9826      9829      9831      9823      9826      9829      9832
      9824      9823      9826      9827      9824      9823      9826      9828
      9824      9823      9826      9829      9825      9823      9826      9827
      9825      9823      9826      9828      9825      9823      9826      9829
      9826      9829      9832      9833      9826      9829      9832      9834
      9826      9829      9832      9835      9827      9826      9829      9830
      9827      9826      9829      9831      9827      9826      9829      9832
      9828      9826      9829      9830      9828      9826      9829      9831
      9828      9826      9829      9832      9829      9832      9835      9836
      9829      9832      9835      9837      9829      9832      9835      9838
      9830      9829      9832      9833      9830      9829      9832      9834
      9830      9829      9832      9835      9831      9829      9832      9833
      9831      9829      9832      9834      9831      9829      9832      9835
      9832      9835      9838      9839      9832      9835      9838      9840
      9833      9832      9835      9836      9833      9832      9835      9837
      9833      9832      9835      9838      9834      9832      9835      9836
      9834      9832      9835      9837      9834      9832      9835      9838
      9835      9838      9840      9841      9835      9838      9840      9842
      9836      9835      9838      9839      9836      9835      9838      9840
      9837      9835      9838      9839      9837      9835      9838      9840
      9838      9840      9842      9843      9838      9840      9842      9844
      9838      9840      9842      9845      9839      9838      9840      9841
      9839      9838      9840      9842      9840      9842      9845      9846
      9840      9842      9845      9847      9840      9842      9845      9848
      9841      9840      9842      9843      9841      9840      9842      9844
      9841      9840      9842      9845      9842      9845      9848      9849
      9842      9845      9848      9850      9842      9845      9848      9851
      9843      9842      9845      9846      9843      9842      9845      9847
      9843      9842      9845      9848      9844      9842      9845      9846
      9844      9842      9845      9847      9844      9842      9845      9848
      9845      9848      9851      9852      9845      9848      9851      9853
      9845      9848      9851      9854      9846      9845      9848      9849
      9846      9845      9848      9850      9846      9845      9848      9851
      9847      9845      9848      9849      9847      9845      9848      9850
      9847      9845      9848      9851      9848      9851      9854      9855
      9848      9851      9854      9856      9848      9851      9854      9857
      9849      9848      9851      9852      9849      9848      9851      9853
      9849      9848      9851      9854      9850      9848      9851      9852
      9850      9848      9851      9853      9850      9848      9851      9854
      9851      9854      9857      9858      9851      9854      9857      9859
      9851      9854      9857      9860      9852      9851      9854      9855
      9852      9851      9854      9856      9852      9851      9854      9857
      9853      9851      9854      9855      9853      9851      9854      9856
      9853      9851      9854      9857      9854      9857      9860      9861
      9854      9857      9860      9862      9854      9857      9860      9863
      9855      9854      9857      9858      9855      9854      9857      9859
      9855      9854      9857      9860      9856      9854      9857      9858
      9856      9854      9857      9859      9856      9854      9857      9860
      9857      9860      9863      9864      9857      9860      9863      9865
      9857      9860      9863      9866      9858      9857      9860      9861
      9858      9857      9860      9862      9858      9857      9860      9863
      9859      9857      9860      9861      9859      9857      9860      9862
      9859      9857      9860      9863      9861      9860      9863      9864
      9861      9860      9863      9865      9861      9860      9863      9866
      9862      9860      9863      9864      9862      9860      9863      9865
      9862      9860      9863      9866      9867      9870      9873      9874
      9867      9870      9873      9875      9867      9870      9873      9876
      9868      9867      9870      9871      9868      9867      9870      9872
      9868      9867      9870      9873      9869      9867      9870      9871
      9869      9867      9870      9872      9869      9867      9870      9873
      9870      9873      9876      9877      9870      9873      9876      9878
      9870      9873      9876      9879      9871      9870      9873      9874
      9871      9870      9873      9875      9871      9870      9873      9876
      9872      9870      9873      9874      9872      9870      9873      9875
      9872      9870      9873      9876      9873      9876      9879      9880
      9873      9876      9879      9881      9873      9876      9879      9882
      9874      9873      9876      9877      9874      9873      9876      9878
      9874      9873      9876      9879      9875      9873      9876      9877
      9875      9873      9876      9878      9875      9873      9876      9879
      9876      9879      9882      9883      9876      9879      9882      9884
      9876      9879      9882      9885      9877      9876      9879      9880
      9877      9876      9879      9881      9877      9876      9879      9882
      9878      9876      9879      9880      9878      9876      9879      9881
      9878      9876      9879      9882      9879      9882      9885      9886
      9879      9882      9885      9887      9879      9882      9885      9888
      9880      9879      9882      9883      9880      9879      9882      9884
      9880      9879      9882      9885      9881      9879      9882      9883
      9881      9879      9882      9884      9881      9879      9882      9885
      9882      9885      9888      9889      9882      9885      9888      9890
      9882      9885      9888      9891      9883      9882      9885      9886
      9883      9882      9885      9887      9883      9882      9885      9888
      9884      9882      9885      9886      9884      9882      9885      9887
      9884      9882      9885      9888      9885      9888      9891      9892
      9885      9888      9891      9893      9885      9888      9891      9894
      9886      9885      9888      9889      9886      9885      9888      9890
      9886      9885      9888      9891      9887      9885      9888      9889
      9887      9885      9888      9890      9887      9885      9888      9891
      9888      9891      9894      9895      9888      9891      9894      9896
      9888      9891      9894      9897      9889      9888      9891      9892
      9889      9888      9891      9893      9889      9888      9891      9894
      9890      9888      9891      9892      9890      9888      9891      9893
      9890      9888      9891      9894      9891      9894      9897      9898
      9891      9894      9897      9899      9891      9894      9897      9900
      9892      9891      9894      9895      9892      9891      9894      9896
      9892      9891      9894      9897      9893      9891      9894      9895
      9893      9891      9894      9896      9893      9891      9894      9897
      9894      9897      9900      9901      9894      9897      9900      9902
      9894      9897      9900      9903      9895      9894      9897      9898
      9895      9894      9897      9899      9895      9894      9897      9900
      9896      9894      9897      9898      9896      9894      9897      9899
      9896      9894      9897      9900      9897      9900      9903      9904
      9897      9900      9903      9905      9897      9900      9903      9906
      9898      9897      9900      9901      9898      9897      9900      9902
      9898      9897      9900      9903      9899      9897      9900      9901
      9899      9897      9900      9902      9899      9897      9900      9903
      9900      9903      9906      9907      9900      9903      9906      9908
      9900      9903      9906      9909      9901      9900      9903      9904
      9901      9900      9903      9905      9901      9900      9903      9906
      9902      9900      9903      9904      9902      9900      9903      9905
      9902      9900      9903      9906      9904      9903      9906      9907
      9904      9903      9906      9908      9904      9903      9906      9909
      9905      9903      9906      9907      9905      9903      9906      9908
      9905      9903      9906      9909      9910      9911      9926      9927
      9910      9911      9926      9928      9910      9911      9926      9932
      9911      9910      9914      9915      9911      9910      9914      9916
      9911      9910      9914      9917      9911      9910      9918      9919
      9911      9910      9918      9920      9911      9910      9918      9921
      9911      9910      9922      9923      9911      9910      9922      9924
      9911      9910      9922      9925      9911      9926      9932      9929
      9912      9911      9910      9914      9912      9911      9910      9918
      9912      9911      9910      9922      9912      9911      9926      9927
      9912      9911      9926      9928      9912      9911      9926      9932
      9913      9911      9910      9914      9913      9911      9910      9918
      9913      9911      9910      9922      9913      9911      9926      9927
      9913      9911      9926      9928      9913      9911      9926      9932
      9914      9910      9911      9926      9914      9910      9918      9919
      9914      9910      9918      9920      9914      9910      9918      9921
      9914      9910      9922      9923      9914      9910      9922      9924
      9914      9910      9922      9925      9915      9914      9910      9918
      9915      9914      9910      9922      9916      9914      9910      9918
      9916      9914      9910      9922      9917      9914      9910      9918
      9917      9914      9910      9922      9918      9910      9911      9926
      9918      9910      9922      9923      9918      9910      9922      9924
      9918      9910      9922      9925      9919      9918      9910      9922
      9920      9918      9910      9922      9921      9918      9910      9922
      9922      9910      9911      9926      9926      9932      9929      9930
      9926      9932      9929      9931      9926      9932      9929      9933
      9927      9926      9932      9929      9928      9926      9932      9929
      9929      9933      9934      9935      9929      9933      9934      9936
      9929      9933      9934      9937      9930      9929      9933      9934
      9931      9929      9933      9934      9932      9929      9933      9934
      9933      9934      9937      9938      9933      9934      9937      9939
      9933      9934      9937      9945      9934      9937      9939      9940
      9934      9937      9945      9946      9934      9937      9945      9947
      9934      9937      9945      9948      9935      9934      9937      9938
      9935      9934      9937      9939      9935      9934      9937      9945
      9936      9934      9937      9938      9936      9934      9937      9939
      9936      9934      9937      9945      9937      9939      9940      9941
      9937      9939      9940      9942      9937      9945      9948      9949
      9938      9937      9939      9940      9938      9937      9945      9946
      9938      9937      9945      9947      9938      9937      9945      9948
      9939      9937      9945      9946      9939      9937      9945      9947
      9939      9937      9945      9948      9939      9940      9942      9943
      9939      9940      9942      9944      9939      9940      9942      9954
      9940      9939      9937      9945      9940      9942      9954      9955
      9940      9942      9954      9956      9940      9942      9954      9957
      9941      9940      9942      9943      9941      9940      9942      9944
      9941      9940      9942      9954      9942      9954      9957      9958
      9942      9954      9957      9959      9942      9954      9957      9960
      9943      9942      9954      9955      9943      9942      9954      9956
      9943      9942      9954      9957      9944      9942      9954      9955
      9944      9942      9954      9956      9944      9942      9954      9957
      9945      9948      9949      9950      9945      9948      9949      9951
      9946      9945      9948      9949      9947      9945      9948      9949
      9948      9949      9951      9952      9948      9949      9951      9953
      9948      9949      9951     10001      9949      9951     10001     10002
      9949      9951     10001     10003      9949      9951     10001     10004
      9950      9949      9951      9952      9950      9949      9951      9953
      9950      9949      9951     10001      9951     10001     10004     10005
      9951     10001     10004     10006      9951     10001     10004     10007
      9952      9951     10001     10002      9952      9951     10001     10003
      9952      9951     10001     10004      9953      9951     10001     10002
      9953      9951     10001     10003      9953      9951     10001     10004
      9954      9957      9960      9961      9954      9957      9960      9962
      9954      9957      9960      9963      9955      9954      9957      9958
      9955      9954      9957      9959      9955      9954      9957      9960
      9956      9954      9957      9958      9956      9954      9957      9959
      9956      9954      9957      9960      9957      9960      9963      9964
      9957      9960      9963      9965      9957      9960      9963      9966
      9958      9957      9960      9961      9958      9957      9960      9962
      9958      9957      9960      9963      9959      9957      9960      9961
      9959      9957      9960      9962      9959      9957      9960      9963
      9960      9963      9966      9967      9960      9963      9966      9968
      9960      9963      9966      9969      9961      9960      9963      9964
      9961      9960      9963      9965      9961      9960      9963      9966
      9962      9960      9963      9964      9962      9960      9963      9965
      9962      9960      9963      9966      9963      9966      9969      9970
      9963      9966      9969      9971      9963      9966      9969      9972
      9964      9963      9966      9967      9964      9963      9966      9968
      9964      9963      9966      9969      9965      9963      9966      9967
      9965      9963      9966      9968      9965      9963      9966      9969
      9966      9969      9972      9973      9966      9969      9972      9974
      9967      9966      9969      9970      9967      9966      9969      9971
      9967      9966      9969      9972      9968      9966      9969      9970
      9968      9966      9969      9971      9968      9966      9969      9972
      9969      9972      9974      9975      9969      9972      9974      9976
      9970      9969      9972      9973      9970      9969      9972      9974
      9971      9969      9972      9973      9971      9969      9972      9974
      9972      9974      9976      9977      9972      9974      9976      9978
      9972      9974      9976      9979      9973      9972      9974      9975
      9973      9972      9974      9976      9974      9976      9979      9980
      9974      9976      9979      9981      9974      9976      9979      9982
      9975      9974      9976      9977      9975      9974      9976      9978
      9975      9974      9976      9979      9976      9979      9982      9983
      9976      9979      9982      9984      9976      9979      9982      9985
      9977      9976      9979      9980      9977      9976      9979      9981
      9977      9976      9979      9982      9978      9976      9979      9980
      9978      9976      9979      9981      9978      9976      9979      9982
      9979      9982      9985      9986      9979      9982      9985      9987
      9979      9982      9985      9988      9980      9979      9982      9983
      9980      9979      9982      9984      9980      9979      9982      9985
      9981      9979      9982      9983      9981      9979      9982      9984
      9981      9979      9982      9985      9982      9985      9988      9989
      9982      9985      9988      9990      9982      9985      9988      9991
      9983      9982      9985      9986      9983      9982      9985      9987
      9983      9982      9985      9988      9984      9982      9985      9986
      9984      9982      9985      9987      9984      9982      9985      9988
      9985      9988      9991      9992      9985      9988      9991      9993
      9985      9988      9991      9994      9986      9985      9988      9989
      9986      9985      9988      9990      9986      9985      9988      9991
      9987      9985      9988      9989      9987      9985      9988      9990
      9987      9985      9988      9991      9988      9991      9994      9995
      9988      9991      9994      9996      9988      9991      9994      9997
      9989      9988      9991      9992      9989      9988      9991      9993
      9989      9988      9991      9994      9990      9988      9991      9992
      9990      9988      9991      9993      9990      9988      9991      9994
      9991      9994      9997      9998      9991      9994      9997      9999
      9991      9994      9997     10000      9992      9991      9994      9995
      9992      9991      9994      9996      9992      9991      9994      9997
      9993      9991      9994      9995      9993      9991      9994      9996
      9993      9991      9994      9997      9995      9994      9997      9998
      9995      9994      9997      9999      9995      9994      9997     10000
      9996      9994      9997      9998      9996      9994      9997      9999
      9996      9994      9997     10000     10001     10004     10007     10008
     10001     10004     10007     10009     10001     10004     10007     10010
     10002     10001     10004     10005     10002     10001     10004     10006
     10002     10001     10004     10007     10003     10001     10004     10005
     10003     10001     10004     10006     10003     10001     10004     10007
     10004     10007     10010     10011     10004     10007     10010     10012
     10004     10007     10010     10013     10005     10004     10007     10008
     10005     10004     10007     10009     10005     10004     10007     10010
     10006     10004     10007     10008     10006     10004     10007     10009
     10006     10004     10007     10010     10007     10010     10013     10014
     10007     10010     10013     10015     10007     10010     10013     10016
     10008     10007     10010     10011     10008     10007     10010     10012
     10008     10007     10010     10013     10009     10007     10010     10011
     10009     10007     10010     10012     10009     10007     10010     10013
     10010     10013     10016     10017     10010     10013     10016     10018
     10010     10013     10016     10019     10011     10010     10013     10014
     10011     10010     10013     10015     10011     10010     10013     10016
     10012     10010     10013     10014     10012     10010     10013     10015
     10012     10010     10013     10016     10013     10016     10019     10020
     10013     10016     10019     10021     10013     10016     10019     10022
     10014     10013     10016     10017     10014     10013     10016     10018
     10014     10013     10016     10019     10015     10013     10016     10017
     10015     10013     10016     10018     10015     10013     10016     10019
     10016     10019     10022     10023     10016     10019     10022     10024
     10016     10019     10022     10025     10017     10016     10019     10020
     10017     10016     10019     10021     10017     10016     10019     10022
     10018     10016     10019     10020     10018     10016     10019     10021
     10018     10016     10019     10022     10019     10022     10025     10026
     10019     10022     10025     10027     10019     10022     10025     10028
     10020     10019     10022     10023     10020     10019     10022     10024
     10020     10019     10022     10025     10021     10019     10022     10023
     10021     10019     10022     10024     10021     10019     10022     10025
     10022     10025     10028     10029     10022     10025     10028     10030
     10022     10025     10028     10031     10023     10022     10025     10026
     10023     10022     10025     10027     10023     10022     10025     10028
     10024     10022     10025     10026     10024     10022     10025     10027
     10024     10022     10025     10028     10025     10028     10031     10032
     10025     10028     10031     10033     10025     10028     10031     10034
     10026     10025     10028     10029     10026     10025     10028     10030
     10026     10025     10028     10031     10027     10025     10028     10029
     10027     10025     10028     10030     10027     10025     10028     10031
     10028     10031     10034     10035     10028     10031     10034     10036
     10028     10031     10034     10037     10029     10028     10031     10032
     10029     10028     10031     10033     10029     10028     10031     10034
     10030     10028     10031     10032     10030     10028     10031     10033
     10030     10028     10031     10034     10031     10034     10037     10038
     10031     10034     10037     10039     10031     10034     10037     10040
     10032     10031     10034     10035     10032     10031     10034     10036
     10032     10031     10034     10037     10033     10031     10034     10035
     10033     10031     10034     10036     10033     10031     10034     10037
     10034     10037     10040     10041     10034     10037     10040     10042
     10034     10037     10040     10043     10035     10034     10037     10038
     10035     10034     10037     10039     10035     10034     10037     10040
     10036     10034     10037     10038     10036     10034     10037     10039
     10036     10034     10037     10040     10038     10037     10040     10041
     10038     10037     10040     10042     10038     10037     10040     10043
     10039     10037     10040     10041     10039     10037     10040     10042
     10039     10037     10040     10043     10044     10057     10060     10061
     10044     10057     10060     10062     10044     10057     10060     10067
     10045     10044     10049     10050     10045     10044     10049     10051
     10045     10044     10049     10052     10045     10044     10053     10054
     10045     10044     10053     10055     10045     10044     10053     10056
     10045     10044     10057     10058     10045     10044     10057     10059
     10045     10044     10057     10060     10046     10045     10044     10049
     10046     10045     10044     10053     10046     10045     10044     10057
     10047     10045     10044     10049     10047     10045     10044     10053
     10047     10045     10044     10057     10048     10045     10044     10049
     10048     10045     10044     10053     10048     10045     10044     10057
     10049     10044     10053     10054     10049     10044     10053     10055
     10049     10044     10053     10056     10049     10044     10057     10058
     10049     10044     10057     10059     10049     10044     10057     10060
     10050     10049     10044     10053     10050     10049     10044     10057
     10051     10049     10044     10053     10051     10049     10044     10057
     10052     10049     10044     10053     10052     10049     10044     10057
     10053     10044     10057     10058     10053     10044     10057     10059
     10053     10044     10057     10060     10054     10053     10044     10057
     10055     10053     10044     10057     10056     10053     10044     10057
     10057     10060     10067     10063     10058     10057     10060     10061
     10058     10057     10060     10062     10058     10057     10060     10067
     10059     10057     10060     10061     10059     10057     10060     10062
     10059     10057     10060     10067     10060     10067     10063     10064
     10060     10067     10063     10065     10060     10067     10063     10066
     10061     10060     10067     10063     10062     10060     10067     10063
     10063     10066     10068     10069     10063     10066     10068     10070
     10063     10066     10068     10073     10064     10063     10066     10068
     10065     10063     10066     10068     10066     10068     10073     10071
     10066     10068     10073     10074     10066     10068     10073     10075
     10067     10063     10066     10068     10068     10073     10071     10072
     10068     10073     10071     10123     10068     10073     10075     10076
     10068     10073     10075     10077     10068     10073     10075     10079
     10069     10068     10073     10071     10069     10068     10073     10074
     10069     10068     10073     10075     10070     10068     10073     10071
     10070     10068     10073     10074     10070     10068     10073     10075
     10071     10073     10075     10076     10071     10073     10075     10077
     10071     10073     10075     10079     10071     10123     10125     10126
     10071     10123     10125     10127     10071     10123     10125     10128
     10072     10071     10073     10074     10072     10071     10073     10075
     10072     10071     10123     10124     10072     10071     10123     10125
     10073     10071     10123     10124     10073     10071     10123     10125
     10073     10075     10077     10078     10073     10075     10079     10080
     10073     10075     10079     10081     10074     10073     10071     10123
     10074     10073     10075     10076     10074     10073     10075     10077
     10074     10073     10075     10079     10075     10073     10071     10123
     10075     10079     10081     10082     10075     10079     10081     10083
     10076     10075     10077     10078     10076     10075     10079     10080
     10076     10075     10079     10081     10077     10075     10079     10080
     10077     10075     10079     10081     10078     10077     10075     10079
     10079     10081     10083     10084     10079     10081     10083     10085
     10079     10081     10083     10086     10080     10079     10081     10082
     10080     10079     10081     10083     10081     10083     10086     10087
     10081     10083     10086     10088     10081     10083     10086     10089
     10082     10081     10083     10084     10082     10081     10083     10085
     10082     10081     10083     10086     10083     10086     10089     10090
     10083     10086     10089     10091     10083     10086     10089     10092
     10084     10083     10086     10087     10084     10083     10086     10088
     10084     10083     10086     10089     10085     10083     10086     10087
     10085     10083     10086     10088     10085     10083     10086     10089
     10086     10089     10092     10093     10086     10089     10092     10094
     10086     10089     10092     10095     10087     10086     10089     10090
     10087     10086     10089     10091     10087     10086     10089     10092
     10088     10086     10089     10090     10088     10086     10089     10091
     10088     10086     10089     10092     10089     10092     10095     10096
     10089     10092     10095     10097     10089     10092     10095     10098
     10090     10089     10092     10093     10090     10089     10092     10094
     10090     10089     10092     10095     10091     10089     10092     10093
     10091     10089     10092     10094     10091     10089     10092     10095
     10092     10095     10098     10099     10092     10095     10098     10100
     10092     10095     10098     10101     10093     10092     10095     10096
     10093     10092     10095     10097     10093     10092     10095     10098
     10094     10092     10095     10096     10094     10092     10095     10097
     10094     10092     10095     10098     10095     10098     10101     10102
     10095     10098     10101     10103     10095     10098     10101     10104
     10096     10095     10098     10099     10096     10095     10098     10100
     10096     10095     10098     10101     10097     10095     10098     10099
     10097     10095     10098     10100     10097     10095     10098     10101
     10098     10101     10104     10105     10098     10101     10104     10106
     10098     10101     10104     10107     10099     10098     10101     10102
     10099     10098     10101     10103     10099     10098     10101     10104
     10100     10098     10101     10102     10100     10098     10101     10103
     10100     10098     10101     10104     10101     10104     10107     10108
     10101     10104     10107     10109     10101     10104     10107     10110
     10102     10101     10104     10105     10102     10101     10104     10106
     10102     10101     10104     10107     10103     10101     10104     10105
     10103     10101     10104     10106     10103     10101     10104     10107
     10104     10107     10110     10111     10104     10107     10110     10112
     10104     10107     10110     10113     10105     10104     10107     10108
     10105     10104     10107     10109     10105     10104     10107     10110
     10106     10104     10107     10108     10106     10104     10107     10109
     10106     10104     10107     10110     10107     10110     10113     10114
     10107     10110     10113     10115     10107     10110     10113     10116
     10108     10107     10110     10111     10108     10107     10110     10112
     10108     10107     10110     10113     10109     10107     10110     10111
     10109     10107     10110     10112     10109     10107     10110     10113
     10110     10113     10116     10117     10110     10113     10116     10118
     10110     10113     10116     10119     10111     10110     10113     10114
     10111     10110     10113     10115     10111     10110     10113     10116
     10112     10110     10113     10114     10112     10110     10113     10115
     10112     10110     10113     10116     10113     10116     10119     10120
     10113     10116     10119     10121     10113     10116     10119     10122
     10114     10113     10116     10117     10114     10113     10116     10118
     10114     10113     10116     10119     10115     10113     10116     10117
     10115     10113     10116     10118     10115     10113     10116     10119
     10117     10116     10119     10120     10117     10116     10119     10121
     10117     10116     10119     10122     10118     10116     10119     10120
     10118     10116     10119     10121     10118     10116     10119     10122
     10123     10125     10128     10129     10123     10125     10128     10130
     10123     10125     10128     10131     10124     10123     10125     10126
     10124     10123     10125     10127     10124     10123     10125     10128
     10125     10128     10131     10132     10125     10128     10131     10133
     10125     10128     10131     10134     10126     10125     10128     10129
     10126     10125     10128     10130     10126     10125     10128     10131
     10127     10125     10128     10129     10127     10125     10128     10130
     10127     10125     10128     10131     10128     10131     10134     10135
     10128     10131     10134     10136     10128     10131     10134     10137
     10129     10128     10131     10132     10129     10128     10131     10133
     10129     10128     10131     10134     10130     10128     10131     10132
     10130     10128     10131     10133     10130     10128     10131     10134
     10131     10134     10137     10138     10131     10134     10137     10139
     10131     10134     10137     10140     10132     10131     10134     10135
     10132     10131     10134     10136     10132     10131     10134     10137
     10133     10131     10134     10135     10133     10131     10134     10136
     10133     10131     10134     10137     10134     10137     10140     10141
     10134     10137     10140     10142     10134     10137     10140     10143
     10135     10134     10137     10138     10135     10134     10137     10139
     10135     10134     10137     10140     10136     10134     10137     10138
     10136     10134     10137     10139     10136     10134     10137     10140
     10137     10140     10143     10144     10137     10140     10143     10145
     10137     10140     10143     10146     10138     10137     10140     10141
     10138     10137     10140     10142     10138     10137     10140     10143
     10139     10137     10140     10141     10139     10137     10140     10142
     10139     10137     10140     10143     10140     10143     10146     10147
     10140     10143     10146     10148     10140     10143     10146     10149
     10141     10140     10143     10144     10141     10140     10143     10145
     10141     10140     10143     10146     10142     10140     10143     10144
     10142     10140     10143     10145     10142     10140     10143     10146
     10143     10146     10149     10150     10143     10146     10149     10151
     10143     10146     10149     10152     10144     10143     10146     10147
     10144     10143     10146     10148     10144     10143     10146     10149
     10145     10143     10146     10147     10145     10143     10146     10148
     10145     10143     10146     10149     10146     10149     10152     10153
     10146     10149     10152     10154     10146     10149     10152     10155
     10147     10146     10149     10150     10147     10146     10149     10151
     10147     10146     10149     10152     10148     10146     10149     10150
     10148     10146     10149     10151     10148     10146     10149     10152
     10149     10152     10155     10156     10149     10152     10155     10157
     10149     10152     10155     10158     10150     10149     10152     10153
     10150     10149     10152     10154     10150     10149     10152     10155
     10151     10149     10152     10153     10151     10149     10152     10154
     10151     10149     10152     10155     10152     10155     10158     10159
     10152     10155     10158     10160     10152     10155     10158     10161
     10153     10152     10155     10156     10153     10152     10155     10157
     10153     10152     10155     10158     10154     10152     10155     10156
     10154     10152     10155     10157     10154     10152     10155     10158
     10155     10158     10161     10162     10155     10158     10161     10163
     10155     10158     10161     10164     10156     10155     10158     10159
     10156     10155     10158     10160     10156     10155     10158     10161
     10157     10155     10158     10159     10157     10155     10158     10160
     10157     10155     10158     10161     10158     10161     10164     10165
     10158     10161     10164     10166     10158     10161     10164     10167
     10159     10158     10161     10162     10159     10158     10161     10163
     10159     10158     10161     10164     10160     10158     10161     10162
     10160     10158     10161     10163     10160     10158     10161     10164
     10161     10164     10167     10168     10161     10164     10167     10169
     10161     10164     10167     10170     10162     10161     10164     10165
     10162     10161     10164     10166     10162     10161     10164     10167
     10163     10161     10164     10165     10163     10161     10164     10166
     10163     10161     10164     10167     10165     10164     10167     10168
     10165     10164     10167     10169     10165     10164     10167     10170
     10166     10164     10167     10168     10166     10164     10167     10169
     10166     10164     10167     10170     10171     10172     10187     10188
     10171     10172     10187     10189     10171     10172     10187     10193
     10172     10171     10175     10176     10172     10171     10175     10177
     10172     10171     10175     10178     10172     10171     10179     10180
     10172     10171     10179     10181     10172     10171     10179     10182
     10172     10171     10183     10184     10172     10171     10183     10185
     10172     10171     10183     10186     10172     10187     10193     10190
     10173     10172     10171     10175     10173     10172     10171     10179
     10173     10172     10171     10183     10173     10172     10187     10188
     10173     10172     10187     10189     10173     10172     10187     10193
     10174     10172     10171     10175     10174     10172     10171     10179
     10174     10172     10171     10183     10174     10172     10187     10188
     10174     10172     10187     10189     10174     10172     10187     10193
     10175     10171     10172     10187     10175     10171     10179     10180
     10175     10171     10179     10181     10175     10171     10179     10182
     10175     10171     10183     10184     10175     10171     10183     10185
     10175     10171     10183     10186     10176     10175     10171     10179
     10176     10175     10171     10183     10177     10175     10171     10179
     10177     10175     10171     10183     10178     10175     10171     10179
     10178     10175     10171     10183     10179     10171     10172     10187
     10179     10171     10183     10184     10179     10171     10183     10185
     10179     10171     10183     10186     10180     10179     10171     10183
     10181     10179     10171     10183     10182     10179     10171     10183
     10183     10171     10172     10187     10187     10193     10190     10191
     10187     10193     10190     10192     10187     10193     10190     10194
     10188     10187     10193     10190     10189     10187     10193     10190
     10190     10194     10195     10196     10190     10194     10195     10197
     10190     10194     10195     10198     10191     10190     10194     10195
     10192     10190     10194     10195     10193     10190     10194     10195
     10194     10195     10198     10199     10194     10195     10198     10200
     10194     10195     10198     10206     10195     10198     10200     10201
     10195     10198     10206     10207     10195     10198     10206     10208
     10195     10198     10206     10209     10196     10195     10198     10199
     10196     10195     10198     10200     10196     10195     10198     10206
     10197     10195     10198     10199     10197     10195     10198     10200
     10197     10195     10198     10206     10198     10200     10201     10202
     10198     10200     10201     10203     10198     10206     10209     10210
     10199     10198     10200     10201     10199     10198     10206     10207
     10199     10198     10206     10208     10199     10198     10206     10209
     10200     10198     10206     10207     10200     10198     10206     10208
     10200     10198     10206     10209     10200     10201     10203     10204
     10200     10201     10203     10205     10200     10201     10203     10215
     10201     10200     10198     10206     10201     10203     10215     10216
     10201     10203     10215     10217     10201     10203     10215     10218
     10202     10201     10203     10204     10202     10201     10203     10205
     10202     10201     10203     10215     10203     10215     10218     10219
     10203     10215     10218     10220     10203     10215     10218     10221
     10204     10203     10215     10216     10204     10203     10215     10217
     10204     10203     10215     10218     10205     10203     10215     10216
     10205     10203     10215     10217     10205     10203     10215     10218
     10206     10209     10210     10211     10206     10209     10210     10212
     10207     10206     10209     10210     10208     10206     10209     10210
     10209     10210     10212     10213     10209     10210     10212     10214
     10209     10210     10212     10262     10210     10212     10262     10263
     10210     10212     10262     10264     10210     10212     10262     10265
     10211     10210     10212     10213     10211     10210     10212     10214
     10211     10210     10212     10262     10212     10262     10265     10266
     10212     10262     10265     10267     10212     10262     10265     10268
     10213     10212     10262     10263     10213     10212     10262     10264
     10213     10212     10262     10265     10214     10212     10262     10263
     10214     10212     10262     10264     10214     10212     10262     10265
     10215     10218     10221     10222     10215     10218     10221     10223
     10215     10218     10221     10224     10216     10215     10218     10219
     10216     10215     10218     10220     10216     10215     10218     10221
     10217     10215     10218     10219     10217     10215     10218     10220
     10217     10215     10218     10221     10218     10221     10224     10225
     10218     10221     10224     10226     10218     10221     10224     10227
     10219     10218     10221     10222     10219     10218     10221     10223
     10219     10218     10221     10224     10220     10218     10221     10222
     10220     10218     10221     10223     10220     10218     10221     10224
     10221     10224     10227     10228     10221     10224     10227     10229
     10221     10224     10227     10230     10222     10221     10224     10225
     10222     10221     10224     10226     10222     10221     10224     10227
     10223     10221     10224     10225     10223     10221     10224     10226
     10223     10221     10224     10227     10224     10227     10230     10231
     10224     10227     10230     10232     10224     10227     10230     10233
     10225     10224     10227     10228     10225     10224     10227     10229
     10225     10224     10227     10230     10226     10224     10227     10228
     10226     10224     10227     10229     10226     10224     10227     10230
     10227     10230     10233     10234     10227     10230     10233     10235
     10228     10227     10230     10231     10228     10227     10230     10232
     10228     10227     10230     10233     10229     10227     10230     10231
     10229     10227     10230     10232     10229     10227     10230     10233
     10230     10233     10235     10236     10230     10233     10235     10237
     10231     10230     10233     10234     10231     10230     10233     10235
     10232     10230     10233     10234     10232     10230     10233     10235
     10233     10235     10237     10238     10233     10235     10237     10239
     10233     10235     10237     10240     10234     10233     10235     10236
     10234     10233     10235     10237     10235     10237     10240     10241
     10235     10237     10240     10242     10235     10237     10240     10243
     10236     10235     10237     10238     10236     10235     10237     10239
     10236     10235     10237     10240     10237     10240     10243     10244
     10237     10240     10243     10245     10237     10240     10243     10246
     10238     10237     10240     10241     10238     10237     10240     10242
     10238     10237     10240     10243     10239     10237     10240     10241
     10239     10237     10240     10242     10239     10237     10240     10243
     10240     10243     10246     10247     10240     10243     10246     10248
     10240     10243     10246     10249     10241     10240     10243     10244
     10241     10240     10243     10245     10241     10240     10243     10246
     10242     10240     10243     10244     10242     10240     10243     10245
     10242     10240     10243     10246     10243     10246     10249     10250
     10243     10246     10249     10251     10243     10246     10249     10252
     10244     10243     10246     10247     10244     10243     10246     10248
     10244     10243     10246     10249     10245     10243     10246     10247
     10245     10243     10246     10248     10245     10243     10246     10249
     10246     10249     10252     10253     10246     10249     10252     10254
     10246     10249     10252     10255     10247     10246     10249     10250
     10247     10246     10249     10251     10247     10246     10249     10252
     10248     10246     10249     10250     10248     10246     10249     10251
     10248     10246     10249     10252     10249     10252     10255     10256
     10249     10252     10255     10257     10249     10252     10255     10258
     10250     10249     10252     10253     10250     10249     10252     10254
     10250     10249     10252     10255     10251     10249     10252     10253
     10251     10249     10252     10254     10251     10249     10252     10255
     10252     10255     10258     10259     10252     10255     10258     10260
     10252     10255     10258     10261     10253     10252     10255     10256
     10253     10252     10255     10257     10253     10252     10255     10258
     10254     10252     10255     10256     10254     10252     10255     10257
     10254     10252     10255     10258     10256     10255     10258     10259
     10256     10255     10258     10260     10256     10255     10258     10261
     10257     10255     10258     10259     10257     10255     10258     10260
     10257     10255     10258     10261     10262     10265     10268     10269
     10262     10265     10268     10270     10262     10265     10268     10271
     10263     10262     10265     10266     10263     10262     10265     10267
     10263     10262     10265     10268     10264     10262     10265     10266
     10264     10262     10265     10267     10264     10262     10265     10268
     10265     10268     10271     10272     10265     10268     10271     10273
     10265     10268     10271     10274     10266     10265     10268     10269
     10266     10265     10268     10270     10266     10265     10268     10271
     10267     10265     10268     10269     10267     10265     10268     10270
     10267     10265     10268     10271     10268     10271     10274     10275
     10268     10271     10274     10276     10268     10271     10274     10277
     10269     10268     10271     10272     10269     10268     10271     10273
     10269     10268     10271     10274     10270     10268     10271     10272
     10270     10268     10271     10273     10270     10268     10271     10274
     10271     10274     10277     10278     10271     10274     10277     10279
     10271     10274     10277     10280     10272     10271     10274     10275
     10272     10271     10274     10276     10272     10271     10274     10277
     10273     10271     10274     10275     10273     10271     10274     10276
     10273     10271     10274     10277     10274     10277     10280     10281
     10274     10277     10280     10282     10274     10277     10280     10283
     10275     10274     10277     10278     10275     10274     10277     10279
     10275     10274     10277     10280     10276     10274     10277     10278
     10276     10274     10277     10279     10276     10274     10277     10280
     10277     10280     10283     10284     10277     10280     10283     10285
     10277     10280     10283     10286     10278     10277     10280     10281
     10278     10277     10280     10282     10278     10277     10280     10283
     10279     10277     10280     10281     10279     10277     10280     10282
     10279     10277     10280     10283     10280     10283     10286     10287
     10280     10283     10286     10288     10280     10283     10286     10289
     10281     10280     10283     10284     10281     10280     10283     10285
     10281     10280     10283     10286     10282     10280     10283     10284
     10282     10280     10283     10285     10282     10280     10283     10286
     10283     10286     10289     10290     10283     10286     10289     10291
     10283     10286     10289     10292     10284     10283     10286     10287
     10284     10283     10286     10288     10284     10283     10286     10289
     10285     10283     10286     10287     10285     10283     10286     10288
     10285     10283     10286     10289     10286     10289     10292     10293
     10286     10289     10292     10294     10286     10289     10292     10295
     10287     10286     10289     10290     10287     10286     10289     10291
     10287     10286     10289     10292     10288     10286     10289     10290
     10288     10286     10289     10291     10288     10286     10289     10292
     10289     10292     10295     10296     10289     10292     10295     10297
     10289     10292     10295     10298     10290     10289     10292     10293
     10290     10289     10292     10294     10290     10289     10292     10295
     10291     10289     10292     10293     10291     10289     10292     10294
     10291     10289     10292     10295     10292     10295     10298     10299
     10292     10295     10298     10300     10292     10295     10298     10301
     10293     10292     10295     10296     10293     10292     10295     10297
     10293     10292     10295     10298     10294     10292     10295     10296
     10294     10292     10295     10297     10294     10292     10295     10298
     10295     10298     10301     10302     10295     10298     10301     10303
     10295     10298     10301     10304     10296     10295     10298     10299
     10296     10295     10298     10300     10296     10295     10298     10301
     10297     10295     10298     10299     10297     10295     10298     10300
     10297     10295     10298     10301     10299     10298     10301     10302
     10299     10298     10301     10303     10299     10298     10301     10304
     10300     10298     10301     10302     10300     10298     10301     10303
     10300     10298     10301     10304     10305     10309     10312     10313
     10305     10309     10312     10314     10305     10309     10312     10319
     10306     10305     10309     10310     10306     10305     10309     10311
     10306     10305     10309     10312     10307     10305     10309     10310
     10307     10305     10309     10311     10307     10305     10309     10312
     10308     10305     10309     10310     10308     10305     10309     10311
     10308     10305     10309     10312     10309     10312     10319     10315
     10310     10309     10312     10313     10310     10309     10312     10314
     10310     10309     10312     10319     10311     10309     10312     10313
     10311     10309     10312     10314     10311     10309     10312     10319
     10312     10319     10315     10316     10312     10319     10315     10317
     10312     10319     10315     10318     10313     10312     10319     10315
     10314     10312     10319     10315     10315     10318     10320     10321
     10315     10318     10320     10322     10315     10318     10320     10323
     10316     10315     10318     10320     10317     10315     10318     10320
     10318     10320     10323     10324     10318     10320     10323     10325
     10318     10320     10323     10331     10319     10315     10318     10320
     10320     10323     10325     10326     10320     10323     10331     10332
     10320     10323     10331     10333     10320     10323     10331     10334
     10321     10320     10323     10324     10321     10320     10323     10325
     10321     10320     10323     10331     10322     10320     10323     10324
     10322     10320     10323     10325     10322     10320     10323     10331
     10323     10325     10326     10327     10323     10325     10326     10328
     10323     10331     10334     10335     10324     10323     10325     10326
     10324     10323     10331     10332     10324     10323     10331     10333
     10324     10323     10331     10334     10325     10323     10331     10332
     10325     10323     10331     10333     10325     10323     10331     10334
     10325     10326     10328     10329     10325     10326     10328     10330
     10325     10326     10328     10340     10326     10325     10323     10331
     10326     10328     10340     10341     10326     10328     10340     10342
     10326     10328     10340     10343     10327     10326     10328     10329
     10327     10326     10328     10330     10327     10326     10328     10340
     10328     10340     10343     10344     10328     10340     10343     10345
     10328     10340     10343     10346     10329     10328     10340     10341
     10329     10328     10340     10342     10329     10328     10340     10343
     10330     10328     10340     10341     10330     10328     10340     10342
     10330     10328     10340     10343     10331     10334     10335     10336
     10331     10334     10335     10337     10332     10331     10334     10335
     10333     10331     10334     10335     10334     10335     10337     10338
     10334     10335     10337     10339     10334     10335     10337     10387
     10335     10337     10387     10388     10335     10337     10387     10389
     10335     10337     10387     10390     10336     10335     10337     10338
     10336     10335     10337     10339     10336     10335     10337     10387
     10337     10387     10390     10391     10337     10387     10390     10392
     10337     10387     10390     10393     10338     10337     10387     10388
     10338     10337     10387     10389     10338     10337     10387     10390
     10339     10337     10387     10388     10339     10337     10387     10389
     10339     10337     10387     10390     10340     10343     10346     10347
     10340     10343     10346     10348     10340     10343     10346     10349
     10341     10340     10343     10344     10341     10340     10343     10345
     10341     10340     10343     10346     10342     10340     10343     10344
     10342     10340     10343     10345     10342     10340     10343     10346
     10343     10346     10349     10350     10343     10346     10349     10351
     10343     10346     10349     10352     10344     10343     10346     10347
     10344     10343     10346     10348     10344     10343     10346     10349
     10345     10343     10346     10347     10345     10343     10346     10348
     10345     10343     10346     10349     10346     10349     10352     10353
     10346     10349     10352     10354     10346     10349     10352     10355
     10347     10346     10349     10350     10347     10346     10349     10351
     10347     10346     10349     10352     10348     10346     10349     10350
     10348     10346     10349     10351     10348     10346     10349     10352
     10349     10352     10355     10356     10349     10352     10355     10357
     10349     10352     10355     10358     10350     10349     10352     10353
     10350     10349     10352     10354     10350     10349     10352     10355
     10351     10349     10352     10353     10351     10349     10352     10354
     10351     10349     10352     10355     10352     10355     10358     10359
     10352     10355     10358     10360     10353     10352     10355     10356
     10353     10352     10355     10357     10353     10352     10355     10358
     10354     10352     10355     10356     10354     10352     10355     10357
     10354     10352     10355     10358     10355     10358     10360     10361
     10355     10358     10360     10362     10356     10355     10358     10359
     10356     10355     10358     10360     10357     10355     10358     10359
     10357     10355     10358     10360     10358     10360     10362     10363
     10358     10360     10362     10364     10358     10360     10362     10365
     10359     10358     10360     10361     10359     10358     10360     10362
     10360     10362     10365     10366     10360     10362     10365     10367
     10360     10362     10365     10368     10361     10360     10362     10363
     10361     10360     10362     10364     10361     10360     10362     10365
     10362     10365     10368     10369     10362     10365     10368     10370
     10362     10365     10368     10371     10363     10362     10365     10366
     10363     10362     10365     10367     10363     10362     10365     10368
     10364     10362     10365     10366     10364     10362     10365     10367
     10364     10362     10365     10368     10365     10368     10371     10372
     10365     10368     10371     10373     10365     10368     10371     10374
     10366     10365     10368     10369     10366     10365     10368     10370
     10366     10365     10368     10371     10367     10365     10368     10369
     10367     10365     10368     10370     10367     10365     10368     10371
     10368     10371     10374     10375     10368     10371     10374     10376
     10368     10371     10374     10377     10369     10368     10371     10372
     10369     10368     10371     10373     10369     10368     10371     10374
     10370     10368     10371     10372     10370     10368     10371     10373
     10370     10368     10371     10374     10371     10374     10377     10378
     10371     10374     10377     10379     10371     10374     10377     10380
     10372     10371     10374     10375     10372     10371     10374     10376
     10372     10371     10374     10377     10373     10371     10374     10375
     10373     10371     10374     10376     10373     10371     10374     10377
     10374     10377     10380     10381     10374     10377     10380     10382
     10374     10377     10380     10383     10375     10374     10377     10378
     10375     10374     10377     10379     10375     10374     10377     10380
     10376     10374     10377     10378     10376     10374     10377     10379
     10376     10374     10377     10380     10377     10380     10383     10384
     10377     10380     10383     10385     10377     10380     10383     10386
     10378     10377     10380     10381     10378     10377     10380     10382
     10378     10377     10380     10383     10379     10377     10380     10381
     10379     10377     10380     10382     10379     10377     10380     10383
     10381     10380     10383     10384     10381     10380     10383     10385
     10381     10380     10383     10386     10382     10380     10383     10384
     10382     10380     10383     10385     10382     10380     10383     10386
     10387     10390     10393     10394     10387     10390     10393     10395
     10387     10390     10393     10396     10388     10387     10390     10391
     10388     10387     10390     10392     10388     10387     10390     10393
     10389     10387     10390     10391     10389     10387     10390     10392
     10389     10387     10390     10393     10390     10393     10396     10397
     10390     10393     10396     10398     10390     10393     10396     10399
     10391     10390     10393     10394     10391     10390     10393     10395
     10391     10390     10393     10396     10392     10390     10393     10394
     10392     10390     10393     10395     10392     10390     10393     10396
     10393     10396     10399     10400     10393     10396     10399     10401
     10393     10396     10399     10402     10394     10393     10396     10397
     10394     10393     10396     10398     10394     10393     10396     10399
     10395     10393     10396     10397     10395     10393     10396     10398
     10395     10393     10396     10399     10396     10399     10402     10403
     10396     10399     10402     10404     10396     10399     10402     10405
     10397     10396     10399     10400     10397     10396     10399     10401
     10397     10396     10399     10402     10398     10396     10399     10400
     10398     10396     10399     10401     10398     10396     10399     10402
     10399     10402     10405     10406     10399     10402     10405     10407
     10399     10402     10405     10408     10400     10399     10402     10403
     10400     10399     10402     10404     10400     10399     10402     10405
     10401     10399     10402     10403     10401     10399     10402     10404
     10401     10399     10402     10405     10402     10405     10408     10409
     10402     10405     10408     10410     10402     10405     10408     10411
     10403     10402     10405     10406     10403     10402     10405     10407
     10403     10402     10405     10408     10404     10402     10405     10406
     10404     10402     10405     10407     10404     10402     10405     10408
     10405     10408     10411     10412     10405     10408     10411     10413
     10405     10408     10411     10414     10406     10405     10408     10409
     10406     10405     10408     10410     10406     10405     10408     10411
     10407     10405     10408     10409     10407     10405     10408     10410
     10407     10405     10408     10411     10408     10411     10414     10415
     10408     10411     10414     10416     10408     10411     10414     10417
     10409     10408     10411     10412     10409     10408     10411     10413
     10409     10408     10411     10414     10410     10408     10411     10412
     10410     10408     10411     10413     10410     10408     10411     10414
     10411     10414     10417     10418     10411     10414     10417     10419
     10411     10414     10417     10420     10412     10411     10414     10415
     10412     10411     10414     10416     10412     10411     10414     10417
     10413     10411     10414     10415     10413     10411     10414     10416
     10413     10411     10414     10417     10414     10417     10420     10421
     10414     10417     10420     10422     10414     10417     10420     10423
     10415     10414     10417     10418     10415     10414     10417     10419
     10415     10414     10417     10420     10416     10414     10417     10418
     10416     10414     10417     10419     10416     10414     10417     10420
     10417     10420     10423     10424     10417     10420     10423     10425
     10417     10420     10423     10426     10418     10417     10420     10421
     10418     10417     10420     10422     10418     10417     10420     10423
     10419     10417     10420     10421     10419     10417     10420     10422
     10419     10417     10420     10423     10420     10423     10426     10427
     10420     10423     10426     10428     10420     10423     10426     10429
     10421     10420     10423     10424     10421     10420     10423     10425
     10421     10420     10423     10426     10422     10420     10423     10424
     10422     10420     10423     10425     10422     10420     10423     10426
     10424     10423     10426     10427     10424     10423     10426     10428
     10424     10423     10426     10429     10425     10423     10426     10427
     10425     10423     10426     10428     10425     10423     10426     10429
     10430     10434     10437     10438     10430     10434     10437     10439
     10430     10434     10437     10444     10431     10430     10434     10435
     10431     10430     10434     10436     10431     10430     10434     10437
     10432     10430     10434     10435     10432     10430     10434     10436
     10432     10430     10434     10437     10433     10430     10434     10435
     10433     10430     10434     10436     10433     10430     10434     10437
     10434     10437     10444     10440     10435     10434     10437     10438
     10435     10434     10437     10439     10435     10434     10437     10444
     10436     10434     10437     10438     10436     10434     10437     10439
     10436     10434     10437     10444     10437     10444     10440     10441
     10437     10444     10440     10442     10437     10444     10440     10443
     10438     10437     10444     10440     10439     10437     10444     10440
     10440     10443     10445     10446     10440     10443     10445     10447
     10440     10443     10445     10448     10441     10440     10443     10445
     10442     10440     10443     10445     10443     10445     10448     10449
     10443     10445     10448     10450     10443     10445     10448     10456
     10444     10440     10443     10445     10445     10448     10450     10451
     10445     10448     10456     10457     10445     10448     10456     10458
     10445     10448     10456     10459     10446     10445     10448     10449
     10446     10445     10448     10450     10446     10445     10448     10456
     10447     10445     10448     10449     10447     10445     10448     10450
     10447     10445     10448     10456     10448     10450     10451     10452
     10448     10450     10451     10453     10448     10456     10459     10460
     10449     10448     10450     10451     10449     10448     10456     10457
     10449     10448     10456     10458     10449     10448     10456     10459
     10450     10448     10456     10457     10450     10448     10456     10458
     10450     10448     10456     10459     10450     10451     10453     10454
     10450     10451     10453     10455     10450     10451     10453     10465
     10451     10450     10448     10456     10451     10453     10465     10466
     10451     10453     10465     10467     10451     10453     10465     10468
     10452     10451     10453     10454     10452     10451     10453     10455
     10452     10451     10453     10465     10453     10465     10468     10469
     10453     10465     10468     10470     10453     10465     10468     10471
     10454     10453     10465     10466     10454     10453     10465     10467
     10454     10453     10465     10468     10455     10453     10465     10466
     10455     10453     10465     10467     10455     10453     10465     10468
     10456     10459     10460     10461     10456     10459     10460     10462
     10457     10456     10459     10460     10458     10456     10459     10460
     10459     10460     10462     10463     10459     10460     10462     10464
     10459     10460     10462     10512     10460     10462     10512     10513
     10460     10462     10512     10514     10460     10462     10512     10515
     10461     10460     10462     10463     10461     10460     10462     10464
     10461     10460     10462     10512     10462     10512     10515     10516
     10462     10512     10515     10517     10462     10512     10515     10518
     10463     10462     10512     10513     10463     10462     10512     10514
     10463     10462     10512     10515     10464     10462     10512     10513
     10464     10462     10512     10514     10464     10462     10512     10515
     10465     10468     10471     10472     10465     10468     10471     10473
     10465     10468     10471     10474     10466     10465     10468     10469
     10466     10465     10468     10470     10466     10465     10468     10471
     10467     10465     10468     10469     10467     10465     10468     10470
     10467     10465     10468     10471     10468     10471     10474     10475
     10468     10471     10474     10476     10468     10471     10474     10477
     10469     10468     10471     10472     10469     10468     10471     10473
     10469     10468     10471     10474     10470     10468     10471     10472
     10470     10468     10471     10473     10470     10468     10471     10474
     10471     10474     10477     10478     10471     10474     10477     10479
     10471     10474     10477     10480     10472     10471     10474     10475
     10472     10471     10474     10476     10472     10471     10474     10477
     10473     10471     10474     10475     10473     10471     10474     10476
     10473     10471     10474     10477     10474     10477     10480     10481
     10474     10477     10480     10482     10474     10477     10480     10483
     10475     10474     10477     10478     10475     10474     10477     10479
     10475     10474     10477     10480     10476     10474     10477     10478
     10476     10474     10477     10479     10476     10474     10477     10480
     10477     10480     10483     10484     10477     10480     10483     10485
     10478     10477     10480     10481     10478     10477     10480     10482
     10478     10477     10480     10483     10479     10477     10480     10481
     10479     10477     10480     10482     10479     10477     10480     10483
     10480     10483     10485     10486     10480     10483     10485     10487
     10481     10480     10483     10484     10481     10480     10483     10485
     10482     10480     10483     10484     10482     10480     10483     10485
     10483     10485     10487     10488     10483     10485     10487     10489
     10483     10485     10487     10490     10484     10483     10485     10486
     10484     10483     10485     10487     10485     10487     10490     10491
     10485     10487     10490     10492     10485     10487     10490     10493
     10486     10485     10487     10488     10486     10485     10487     10489
     10486     10485     10487     10490     10487     10490     10493     10494
     10487     10490     10493     10495     10487     10490     10493     10496
     10488     10487     10490     10491     10488     10487     10490     10492
     10488     10487     10490     10493     10489     10487     10490     10491
     10489     10487     10490     10492     10489     10487     10490     10493
     10490     10493     10496     10497     10490     10493     10496     10498
     10490     10493     10496     10499     10491     10490     10493     10494
     10491     10490     10493     10495     10491     10490     10493     10496
     10492     10490     10493     10494     10492     10490     10493     10495
     10492     10490     10493     10496     10493     10496     10499     10500
     10493     10496     10499     10501     10493     10496     10499     10502
     10494     10493     10496     10497     10494     10493     10496     10498
     10494     10493     10496     10499     10495     10493     10496     10497
     10495     10493     10496     10498     10495     10493     10496     10499
     10496     10499     10502     10503     10496     10499     10502     10504
     10496     10499     10502     10505     10497     10496     10499     10500
     10497     10496     10499     10501     10497     10496     10499     10502
     10498     10496     10499     10500     10498     10496     10499     10501
     10498     10496     10499     10502     10499     10502     10505     10506
     10499     10502     10505     10507     10499     10502     10505     10508
     10500     10499     10502     10503     10500     10499     10502     10504
     10500     10499     10502     10505     10501     10499     10502     10503
     10501     10499     10502     10504     10501     10499     10502     10505
     10502     10505     10508     10509     10502     10505     10508     10510
     10502     10505     10508     10511     10503     10502     10505     10506
     10503     10502     10505     10507     10503     10502     10505     10508
     10504     10502     10505     10506     10504     10502     10505     10507
     10504     10502     10505     10508     10506     10505     10508     10509
     10506     10505     10508     10510     10506     10505     10508     10511
     10507     10505     10508     10509     10507     10505     10508     10510
     10507     10505     10508     10511     10512     10515     10518     10519
     10512     10515     10518     10520     10512     10515     10518     10521
     10513     10512     10515     10516     10513     10512     10515     10517
     10513     10512     10515     10518     10514     10512     10515     10516
     10514     10512     10515     10517     10514     10512     10515     10518
     10515     10518     10521     10522     10515     10518     10521     10523
     10515     10518     10521     10524     10516     10515     10518     10519
     10516     10515     10518     10520     10516     10515     10518     10521
     10517     10515     10518     10519     10517     10515     10518     10520
     10517     10515     10518     10521     10518     10521     10524     10525
     10518     10521     10524     10526     10518     10521     10524     10527
     10519     10518     10521     10522     10519     10518     10521     10523
     10519     10518     10521     10524     10520     10518     10521     10522
     10520     10518     10521     10523     10520     10518     10521     10524
     10521     10524     10527     10528     10521     10524     10527     10529
     10521     10524     10527     10530     10522     10521     10524     10525
     10522     10521     10524     10526     10522     10521     10524     10527
     10523     10521     10524     10525     10523     10521     10524     10526
     10523     10521     10524     10527     10524     10527     10530     10531
     10524     10527     10530     10532     10524     10527     10530     10533
     10525     10524     10527     10528     10525     10524     10527     10529
     10525     10524     10527     10530     10526     10524     10527     10528
     10526     10524     10527     10529     10526     10524     10527     10530
     10527     10530     10533     10534     10527     10530     10533     10535
     10527     10530     10533     10536     10528     10527     10530     10531
     10528     10527     10530     10532     10528     10527     10530     10533
     10529     10527     10530     10531     10529     10527     10530     10532
     10529     10527     10530     10533     10530     10533     10536     10537
     10530     10533     10536     10538     10530     10533     10536     10539
     10531     10530     10533     10534     10531     10530     10533     10535
     10531     10530     10533     10536     10532     10530     10533     10534
     10532     10530     10533     10535     10532     10530     10533     10536
     10533     10536     10539     10540     10533     10536     10539     10541
     10533     10536     10539     10542     10534     10533     10536     10537
     10534     10533     10536     10538     10534     10533     10536     10539
     10535     10533     10536     10537     10535     10533     10536     10538
     10535     10533     10536     10539     10536     10539     10542     10543
     10536     10539     10542     10544     10536     10539     10542     10545
     10537     10536     10539     10540     10537     10536     10539     10541
     10537     10536     10539     10542     10538     10536     10539     10540
     10538     10536     10539     10541     10538     10536     10539     10542
     10539     10542     10545     10546     10539     10542     10545     10547
     10539     10542     10545     10548     10540     10539     10542     10543
     10540     10539     10542     10544     10540     10539     10542     10545
     10541     10539     10542     10543     10541     10539     10542     10544
     10541     10539     10542     10545     10542     10545     10548     10549
     10542     10545     10548     10550     10542     10545     10548     10551
     10543     10542     10545     10546     10543     10542     10545     10547
     10543     10542     10545     10548     10544     10542     10545     10546
     10544     10542     10545     10547     10544     10542     10545     10548
     10545     10548     10551     10552     10545     10548     10551     10553
     10545     10548     10551     10554     10546     10545     10548     10549
     10546     10545     10548     10550     10546     10545     10548     10551
     10547     10545     10548     10549     10547     10545     10548     10550
     10547     10545     10548     10551     10549     10548     10551     10552
     10549     10548     10551     10553     10549     10548     10551     10554
     10550     10548     10551     10552     10550     10548     10551     10553
     10550     10548     10551     10554     10555     10559     10562     10563
     10555     10559     10562     10564     10555     10559     10562     10569
     10556     10555     10559     10560     10556     10555     10559     10561
     10556     10555     10559     10562     10557     10555     10559     10560
     10557     10555     10559     10561     10557     10555     10559     10562
     10558     10555     10559     10560     10558     10555     10559     10561
     10558     10555     10559     10562     10559     10562     10569     10565
     10560     10559     10562     10563     10560     10559     10562     10564
     10560     10559     10562     10569     10561     10559     10562     10563
     10561     10559     10562     10564     10561     10559     10562     10569
     10562     10569     10565     10566     10562     10569     10565     10567
     10562     10569     10565     10568     10563     10562     10569     10565
     10564     10562     10569     10565     10565     10568     10570     10571
     10565     10568     10570     10572     10565     10568     10570     10573
     10566     10565     10568     10570     10567     10565     10568     10570
     10568     10570     10573     10574     10568     10570     10573     10575
     10568     10570     10573     10581     10569     10565     10568     10570
     10570     10573     10575     10576     10570     10573     10581     10582
     10570     10573     10581     10583     10570     10573     10581     10584
     10571     10570     10573     10574     10571     10570     10573     10575
     10571     10570     10573     10581     10572     10570     10573     10574
     10572     10570     10573     10575     10572     10570     10573     10581
     10573     10575     10576     10577     10573     10575     10576     10578
     10573     10581     10584     10585     10574     10573     10575     10576
     10574     10573     10581     10582     10574     10573     10581     10583
     10574     10573     10581     10584     10575     10573     10581     10582
     10575     10573     10581     10583     10575     10573     10581     10584
     10575     10576     10578     10579     10575     10576     10578     10580
     10575     10576     10578     10590     10576     10575     10573     10581
     10576     10578     10590     10591     10576     10578     10590     10592
     10576     10578     10590     10593     10577     10576     10578     10579
     10577     10576     10578     10580     10577     10576     10578     10590
     10578     10590     10593     10594     10578     10590     10593     10595
     10578     10590     10593     10596     10579     10578     10590     10591
     10579     10578     10590     10592     10579     10578     10590     10593
     10580     10578     10590     10591     10580     10578     10590     10592
     10580     10578     10590     10593     10581     10584     10585     10586
     10581     10584     10585     10587     10582     10581     10584     10585
     10583     10581     10584     10585     10584     10585     10587     10588
     10584     10585     10587     10589     10584     10585     10587     10637
     10585     10587     10637     10638     10585     10587     10637     10639
     10585     10587     10637     10640     10586     10585     10587     10588
     10586     10585     10587     10589     10586     10585     10587     10637
     10587     10637     10640     10641     10587     10637     10640     10642
     10587     10637     10640     10643     10588     10587     10637     10638
     10588     10587     10637     10639     10588     10587     10637     10640
     10589     10587     10637     10638     10589     10587     10637     10639
     10589     10587     10637     10640     10590     10593     10596     10597
     10590     10593     10596     10598     10590     10593     10596     10599
     10591     10590     10593     10594     10591     10590     10593     10595
     10591     10590     10593     10596     10592     10590     10593     10594
     10592     10590     10593     10595     10592     10590     10593     10596
     10593     10596     10599     10600     10593     10596     10599     10601
     10593     10596     10599     10602     10594     10593     10596     10597
     10594     10593     10596     10598     10594     10593     10596     10599
     10595     10593     10596     10597     10595     10593     10596     10598
     10595     10593     10596     10599     10596     10599     10602     10603
     10596     10599     10602     10604     10596     10599     10602     10605
     10597     10596     10599     10600     10597     10596     10599     10601
     10597     10596     10599     10602     10598     10596     10599     10600
     10598     10596     10599     10601     10598     10596     10599     10602
     10599     10602     10605     10606     10599     10602     10605     10607
     10599     10602     10605     10608     10600     10599     10602     10603
     10600     10599     10602     10604     10600     10599     10602     10605
     10601     10599     10602     10603     10601     10599     10602     10604
     10601     10599     10602     10605     10602     10605     10608     10609
     10602     10605     10608     10610     10603     10602     10605     10606
     10603     10602     10605     10607     10603     10602     10605     10608
     10604     10602     10605     10606     10604     10602     10605     10607
     10604     10602     10605     10608     10605     10608     10610     10611
     10605     10608     10610     10612     10606     10605     10608     10609
     10606     10605     10608     10610     10607     10605     10608     10609
     10607     10605     10608     10610     10608     10610     10612     10613
     10608     10610     10612     10614     10608     10610     10612     10615
     10609     10608     10610     10611     10609     10608     10610     10612
     10610     10612     10615     10616     10610     10612     10615     10617
     10610     10612     10615     10618     10611     10610     10612     10613
     10611     10610     10612     10614     10611     10610     10612     10615
     10612     10615     10618     10619     10612     10615     10618     10620
     10612     10615     10618     10621     10613     10612     10615     10616
     10613     10612     10615     10617     10613     10612     10615     10618
     10614     10612     10615     10616     10614     10612     10615     10617
     10614     10612     10615     10618     10615     10618     10621     10622
     10615     10618     10621     10623     10615     10618     10621     10624
     10616     10615     10618     10619     10616     10615     10618     10620
     10616     10615     10618     10621     10617     10615     10618     10619
     10617     10615     10618     10620     10617     10615     10618     10621
     10618     10621     10624     10625     10618     10621     10624     10626
     10618     10621     10624     10627     10619     10618     10621     10622
     10619     10618     10621     10623     10619     10618     10621     10624
     10620     10618     10621     10622     10620     10618     10621     10623
     10620     10618     10621     10624     10621     10624     10627     10628
     10621     10624     10627     10629     10621     10624     10627     10630
     10622     10621     10624     10625     10622     10621     10624     10626
     10622     10621     10624     10627     10623     10621     10624     10625
     10623     10621     10624     10626     10623     10621     10624     10627
     10624     10627     10630     10631     10624     10627     10630     10632
     10624     10627     10630     10633     10625     10624     10627     10628
     10625     10624     10627     10629     10625     10624     10627     10630
     10626     10624     10627     10628     10626     10624     10627     10629
     10626     10624     10627     10630     10627     10630     10633     10634
     10627     10630     10633     10635     10627     10630     10633     10636
     10628     10627     10630     10631     10628     10627     10630     10632
     10628     10627     10630     10633     10629     10627     10630     10631
     10629     10627     10630     10632     10629     10627     10630     10633
     10631     10630     10633     10634     10631     10630     10633     10635
     10631     10630     10633     10636     10632     10630     10633     10634
     10632     10630     10633     10635     10632     10630     10633     10636
     10637     10640     10643     10644     10637     10640     10643     10645
     10637     10640     10643     10646     10638     10637     10640     10641
     10638     10637     10640     10642     10638     10637     10640     10643
     10639     10637     10640     10641     10639     10637     10640     10642
     10639     10637     10640     10643     10640     10643     10646     10647
     10640     10643     10646     10648     10640     10643     10646     10649
     10641     10640     10643     10644     10641     10640     10643     10645
     10641     10640     10643     10646     10642     10640     10643     10644
     10642     10640     10643     10645     10642     10640     10643     10646
     10643     10646     10649     10650     10643     10646     10649     10651
     10643     10646     10649     10652     10644     10643     10646     10647
     10644     10643     10646     10648     10644     10643     10646     10649
     10645     10643     10646     10647     10645     10643     10646     10648
     10645     10643     10646     10649     10646     10649     10652     10653
     10646     10649     10652     10654     10646     10649     10652     10655
     10647     10646     10649     10650     10647     10646     10649     10651
     10647     10646     10649     10652     10648     10646     10649     10650
     10648     10646     10649     10651     10648     10646     10649     10652
     10649     10652     10655     10656     10649     10652     10655     10657
     10649     10652     10655     10658     10650     10649     10652     10653
     10650     10649     10652     10654     10650     10649     10652     10655
     10651     10649     10652     10653     10651     10649     10652     10654
     10651     10649     10652     10655     10652     10655     10658     10659
     10652     10655     10658     10660     10652     10655     10658     10661
     10653     10652     10655     10656     10653     10652     10655     10657
     10653     10652     10655     10658     10654     10652     10655     10656
     10654     10652     10655     10657     10654     10652     10655     10658
     10655     10658     10661     10662     10655     10658     10661     10663
     10655     10658     10661     10664     10656     10655     10658     10659
     10656     10655     10658     10660     10656     10655     10658     10661
     10657     10655     10658     10659     10657     10655     10658     10660
     10657     10655     10658     10661     10658     10661     10664     10665
     10658     10661     10664     10666     10658     10661     10664     10667
     10659     10658     10661     10662     10659     10658     10661     10663
     10659     10658     10661     10664     10660     10658     10661     10662
     10660     10658     10661     10663     10660     10658     10661     10664
     10661     10664     10667     10668     10661     10664     10667     10669
     10661     10664     10667     10670     10662     10661     10664     10665
     10662     10661     10664     10666     10662     10661     10664     10667
     10663     10661     10664     10665     10663     10661     10664     10666
     10663     10661     10664     10667     10664     10667     10670     10671
     10664     10667     10670     10672     10664     10667     10670     10673
     10665     10664     10667     10668     10665     10664     10667     10669
     10665     10664     10667     10670     10666     10664     10667     10668
     10666     10664     10667     10669     10666     10664     10667     10670
     10667     10670     10673     10674     10667     10670     10673     10675
     10667     10670     10673     10676     10668     10667     10670     10671
     10668     10667     10670     10672     10668     10667     10670     10673
     10669     10667     10670     10671     10669     10667     10670     10672
     10669     10667     10670     10673     10670     10673     10676     10677
     10670     10673     10676     10678     10670     10673     10676     10679
     10671     10670     10673     10674     10671     10670     10673     10675
     10671     10670     10673     10676     10672     10670     10673     10674
     10672     10670     10673     10675     10672     10670     10673     10676
     10674     10673     10676     10677     10674     10673     10676     10678
     10674     10673     10676     10679     10675     10673     10676     10677
     10675     10673     10676     10678     10675     10673     10676     10679
     10680     10684     10687     10688     10680     10684     10687     10689
     10680     10684     10687     10694     10681     10680     10684     10685
     10681     10680     10684     10686     10681     10680     10684     10687
     10682     10680     10684     10685     10682     10680     10684     10686
     10682     10680     10684     10687     10683     10680     10684     10685
     10683     10680     10684     10686     10683     10680     10684     10687
     10684     10687     10694     10690     10685     10684     10687     10688
     10685     10684     10687     10689     10685     10684     10687     10694
     10686     10684     10687     10688     10686     10684     10687     10689
     10686     10684     10687     10694     10687     10694     10690     10691
     10687     10694     10690     10692     10687     10694     10690     10693
     10688     10687     10694     10690     10689     10687     10694     10690
     10690     10693     10695     10696     10690     10693     10695     10697
     10690     10693     10695     10698     10691     10690     10693     10695
     10692     10690     10693     10695     10693     10695     10698     10699
     10693     10695     10698     10700     10693     10695     10698     10706
     10694     10690     10693     10695     10695     10698     10700     10701
     10695     10698     10706     10707     10695     10698     10706     10708
     10695     10698     10706     10709     10696     10695     10698     10699
     10696     10695     10698     10700     10696     10695     10698     10706
     10697     10695     10698     10699     10697     10695     10698     10700
     10697     10695     10698     10706     10698     10700     10701     10702
     10698     10700     10701     10703     10698     10706     10709     10710
     10699     10698     10700     10701     10699     10698     10706     10707
     10699     10698     10706     10708     10699     10698     10706     10709
     10700     10698     10706     10707     10700     10698     10706     10708
     10700     10698     10706     10709     10700     10701     10703     10704
     10700     10701     10703     10705     10700     10701     10703     10715
     10701     10700     10698     10706     10701     10703     10715     10716
     10701     10703     10715     10717     10701     10703     10715     10718
     10702     10701     10703     10704     10702     10701     10703     10705
     10702     10701     10703     10715     10703     10715     10718     10719
     10703     10715     10718     10720     10703     10715     10718     10721
     10704     10703     10715     10716     10704     10703     10715     10717
     10704     10703     10715     10718     10705     10703     10715     10716
     10705     10703     10715     10717     10705     10703     10715     10718
     10706     10709     10710     10711     10706     10709     10710     10712
     10707     10706     10709     10710     10708     10706     10709     10710
     10709     10710     10712     10713     10709     10710     10712     10714
     10709     10710     10712     10762     10710     10712     10762     10763
     10710     10712     10762     10764     10710     10712     10762     10765
     10711     10710     10712     10713     10711     10710     10712     10714
     10711     10710     10712     10762     10712     10762     10765     10766
     10712     10762     10765     10767     10712     10762     10765     10768
     10713     10712     10762     10763     10713     10712     10762     10764
     10713     10712     10762     10765     10714     10712     10762     10763
     10714     10712     10762     10764     10714     10712     10762     10765
     10715     10718     10721     10722     10715     10718     10721     10723
     10715     10718     10721     10724     10716     10715     10718     10719
     10716     10715     10718     10720     10716     10715     10718     10721
     10717     10715     10718     10719     10717     10715     10718     10720
     10717     10715     10718     10721     10718     10721     10724     10725
     10718     10721     10724     10726     10718     10721     10724     10727
     10719     10718     10721     10722     10719     10718     10721     10723
     10719     10718     10721     10724     10720     10718     10721     10722
     10720     10718     10721     10723     10720     10718     10721     10724
     10721     10724     10727     10728     10721     10724     10727     10729
     10721     10724     10727     10730     10722     10721     10724     10725
     10722     10721     10724     10726     10722     10721     10724     10727
     10723     10721     10724     10725     10723     10721     10724     10726
     10723     10721     10724     10727     10724     10727     10730     10731
     10724     10727     10730     10732     10724     10727     10730     10733
     10725     10724     10727     10728     10725     10724     10727     10729
     10725     10724     10727     10730     10726     10724     10727     10728
     10726     10724     10727     10729     10726     10724     10727     10730
     10727     10730     10733     10734     10727     10730     10733     10735
     10728     10727     10730     10731     10728     10727     10730     10732
     10728     10727     10730     10733     10729     10727     10730     10731
     10729     10727     10730     10732     10729     10727     10730     10733
     10730     10733     10735     10736     10730     10733     10735     10737
     10731     10730     10733     10734     10731     10730     10733     10735
     10732     10730     10733     10734     10732     10730     10733     10735
     10733     10735     10737     10738     10733     10735     10737     10739
     10733     10735     10737     10740     10734     10733     10735     10736
     10734     10733     10735     10737     10735     10737     10740     10741
     10735     10737     10740     10742     10735     10737     10740     10743
     10736     10735     10737     10738     10736     10735     10737     10739
     10736     10735     10737     10740     10737     10740     10743     10744
     10737     10740     10743     10745     10737     10740     10743     10746
     10738     10737     10740     10741     10738     10737     10740     10742
     10738     10737     10740     10743     10739     10737     10740     10741
     10739     10737     10740     10742     10739     10737     10740     10743
     10740     10743     10746     10747     10740     10743     10746     10748
     10740     10743     10746     10749     10741     10740     10743     10744
     10741     10740     10743     10745     10741     10740     10743     10746
     10742     10740     10743     10744     10742     10740     10743     10745
     10742     10740     10743     10746     10743     10746     10749     10750
     10743     10746     10749     10751     10743     10746     10749     10752
     10744     10743     10746     10747     10744     10743     10746     10748
     10744     10743     10746     10749     10745     10743     10746     10747
     10745     10743     10746     10748     10745     10743     10746     10749
     10746     10749     10752     10753     10746     10749     10752     10754
     10746     10749     10752     10755     10747     10746     10749     10750
     10747     10746     10749     10751     10747     10746     10749     10752
     10748     10746     10749     10750     10748     10746     10749     10751
     10748     10746     10749     10752     10749     10752     10755     10756
     10749     10752     10755     10757     10749     10752     10755     10758
     10750     10749     10752     10753     10750     10749     10752     10754
     10750     10749     10752     10755     10751     10749     10752     10753
     10751     10749     10752     10754     10751     10749     10752     10755
     10752     10755     10758     10759     10752     10755     10758     10760
     10752     10755     10758     10761     10753     10752     10755     10756
     10753     10752     10755     10757     10753     10752     10755     10758
     10754     10752     10755     10756     10754     10752     10755     10757
     10754     10752     10755     10758     10756     10755     10758     10759
     10756     10755     10758     10760     10756     10755     10758     10761
     10757     10755     10758     10759     10757     10755     10758     10760
     10757     10755     10758     10761     10762     10765     10768     10769
     10762     10765     10768     10770     10762     10765     10768     10771
     10763     10762     10765     10766     10763     10762     10765     10767
     10763     10762     10765     10768     10764     10762     10765     10766
     10764     10762     10765     10767     10764     10762     10765     10768
     10765     10768     10771     10772     10765     10768     10771     10773
     10765     10768     10771     10774     10766     10765     10768     10769
     10766     10765     10768     10770     10766     10765     10768     10771
     10767     10765     10768     10769     10767     10765     10768     10770
     10767     10765     10768     10771     10768     10771     10774     10775
     10768     10771     10774     10776     10768     10771     10774     10777
     10769     10768     10771     10772     10769     10768     10771     10773
     10769     10768     10771     10774     10770     10768     10771     10772
     10770     10768     10771     10773     10770     10768     10771     10774
     10771     10774     10777     10778     10771     10774     10777     10779
     10771     10774     10777     10780     10772     10771     10774     10775
     10772     10771     10774     10776     10772     10771     10774     10777
     10773     10771     10774     10775     10773     10771     10774     10776
     10773     10771     10774     10777     10774     10777     10780     10781
     10774     10777     10780     10782     10774     10777     10780     10783
     10775     10774     10777     10778     10775     10774     10777     10779
     10775     10774     10777     10780     10776     10774     10777     10778
     10776     10774     10777     10779     10776     10774     10777     10780
     10777     10780     10783     10784     10777     10780     10783     10785
     10777     10780     10783     10786     10778     10777     10780     10781
     10778     10777     10780     10782     10778     10777     10780     10783
     10779     10777     10780     10781     10779     10777     10780     10782
     10779     10777     10780     10783     10780     10783     10786     10787
     10780     10783     10786     10788     10780     10783     10786     10789
     10781     10780     10783     10784     10781     10780     10783     10785
     10781     10780     10783     10786     10782     10780     10783     10784
     10782     10780     10783     10785     10782     10780     10783     10786
     10783     10786     10789     10790     10783     10786     10789     10791
     10783     10786     10789     10792     10784     10783     10786     10787
     10784     10783     10786     10788     10784     10783     10786     10789
     10785     10783     10786     10787     10785     10783     10786     10788
     10785     10783     10786     10789     10786     10789     10792     10793
     10786     10789     10792     10794     10786     10789     10792     10795
     10787     10786     10789     10790     10787     10786     10789     10791
     10787     10786     10789     10792     10788     10786     10789     10790
     10788     10786     10789     10791     10788     10786     10789     10792
     10789     10792     10795     10796     10789     10792     10795     10797
     10789     10792     10795     10798     10790     10789     10792     10793
     10790     10789     10792     10794     10790     10789     10792     10795
     10791     10789     10792     10793     10791     10789     10792     10794
     10791     10789     10792     10795     10792     10795     10798     10799
     10792     10795     10798     10800     10792     10795     10798     10801
     10793     10792     10795     10796     10793     10792     10795     10797
     10793     10792     10795     10798     10794     10792     10795     10796
     10794     10792     10795     10797     10794     10792     10795     10798
     10795     10798     10801     10802     10795     10798     10801     10803
     10795     10798     10801     10804     10796     10795     10798     10799
     10796     10795     10798     10800     10796     10795     10798     10801
     10797     10795     10798     10799     10797     10795     10798     10800
     10797     10795     10798     10801     10799     10798     10801     10802
     10799     10798     10801     10803     10799     10798     10801     10804
     10800     10798     10801     10802     10800     10798     10801     10803
     10800     10798     10801     10804     10805     10818     10821     10822
     10805     10818     10821     10823     10805     10818     10821     10828
     10806     10805     10810     10811     10806     10805     10810     10812
     10806     10805     10810     10813     10806     10805     10814     10815
     10806     10805     10814     10816     10806     10805     10814     10817
     10806     10805     10818     10819     10806     10805     10818     10820
     10806     10805     10818     10821     10807     10806     10805     10810
     10807     10806     10805     10814     10807     10806     10805     10818
     10808     10806     10805     10810     10808     10806     10805     10814
     10808     10806     10805     10818     10809     10806     10805     10810
     10809     10806     10805     10814     10809     10806     10805     10818
     10810     10805     10814     10815     10810     10805     10814     10816
     10810     10805     10814     10817     10810     10805     10818     10819
     10810     10805     10818     10820     10810     10805     10818     10821
     10811     10810     10805     10814     10811     10810     10805     10818
     10812     10810     10805     10814     10812     10810     10805     10818
     10813     10810     10805     10814     10813     10810     10805     10818
     10814     10805     10818     10819     10814     10805     10818     10820
     10814     10805     10818     10821     10815     10814     10805     10818
     10816     10814     10805     10818     10817     10814     10805     10818
     10818     10821     10828     10824     10819     10818     10821     10822
     10819     10818     10821     10823     10819     10818     10821     10828
     10820     10818     10821     10822     10820     10818     10821     10823
     10820     10818     10821     10828     10821     10828     10824     10825
     10821     10828     10824     10826     10821     10828     10824     10827
     10822     10821     10828     10824     10823     10821     10828     10824
     10824     10827     10829     10830     10824     10827     10829     10831
     10824     10827     10829     10834     10825     10824     10827     10829
     10826     10824     10827     10829     10827     10829     10834     10832
     10827     10829     10834     10835     10827     10829     10834     10836
     10828     10824     10827     10829     10829     10834     10832     10833
     10829     10834     10832     10884     10829     10834     10836     10837
     10829     10834     10836     10838     10829     10834     10836     10840
     10830     10829     10834     10832     10830     10829     10834     10835
     10830     10829     10834     10836     10831     10829     10834     10832
     10831     10829     10834     10835     10831     10829     10834     10836
     10832     10834     10836     10837     10832     10834     10836     10838
     10832     10834     10836     10840     10832     10884     10886     10887
     10832     10884     10886     10888     10832     10884     10886     10889
     10833     10832     10834     10835     10833     10832     10834     10836
     10833     10832     10884     10885     10833     10832     10884     10886
     10834     10832     10884     10885     10834     10832     10884     10886
     10834     10836     10838     10839     10834     10836     10840     10841
     10834     10836     10840     10842     10835     10834     10832     10884
     10835     10834     10836     10837     10835     10834     10836     10838
     10835     10834     10836     10840     10836     10834     10832     10884
     10836     10840     10842     10843     10836     10840     10842     10844
     10837     10836     10838     10839     10837     10836     10840     10841
     10837     10836     10840     10842     10838     10836     10840     10841
     10838     10836     10840     10842     10839     10838     10836     10840
     10840     10842     10844     10845     10840     10842     10844     10846
     10840     10842     10844     10847     10841     10840     10842     10843
     10841     10840     10842     10844     10842     10844     10847     10848
     10842     10844     10847     10849     10842     10844     10847     10850
     10843     10842     10844     10845     10843     10842     10844     10846
     10843     10842     10844     10847     10844     10847     10850     10851
     10844     10847     10850     10852     10844     10847     10850     10853
     10845     10844     10847     10848     10845     10844     10847     10849
     10845     10844     10847     10850     10846     10844     10847     10848
     10846     10844     10847     10849     10846     10844     10847     10850
     10847     10850     10853     10854     10847     10850     10853     10855
     10847     10850     10853     10856     10848     10847     10850     10851
     10848     10847     10850     10852     10848     10847     10850     10853
     10849     10847     10850     10851     10849     10847     10850     10852
     10849     10847     10850     10853     10850     10853     10856     10857
     10850     10853     10856     10858     10850     10853     10856     10859
     10851     10850     10853     10854     10851     10850     10853     10855
     10851     10850     10853     10856     10852     10850     10853     10854
     10852     10850     10853     10855     10852     10850     10853     10856
     10853     10856     10859     10860     10853     10856     10859     10861
     10853     10856     10859     10862     10854     10853     10856     10857
     10854     10853     10856     10858     10854     10853     10856     10859
     10855     10853     10856     10857     10855     10853     10856     10858
     10855     10853     10856     10859     10856     10859     10862     10863
     10856     10859     10862     10864     10856     10859     10862     10865
     10857     10856     10859     10860     10857     10856     10859     10861
     10857     10856     10859     10862     10858     10856     10859     10860
     10858     10856     10859     10861     10858     10856     10859     10862
     10859     10862     10865     10866     10859     10862     10865     10867
     10859     10862     10865     10868     10860     10859     10862     10863
     10860     10859     10862     10864     10860     10859     10862     10865
     10861     10859     10862     10863     10861     10859     10862     10864
     10861     10859     10862     10865     10862     10865     10868     10869
     10862     10865     10868     10870     10862     10865     10868     10871
     10863     10862     10865     10866     10863     10862     10865     10867
     10863     10862     10865     10868     10864     10862     10865     10866
     10864     10862     10865     10867     10864     10862     10865     10868
     10865     10868     10871     10872     10865     10868     10871     10873
     10865     10868     10871     10874     10866     10865     10868     10869
     10866     10865     10868     10870     10866     10865     10868     10871
     10867     10865     10868     10869     10867     10865     10868     10870
     10867     10865     10868     10871     10868     10871     10874     10875
     10868     10871     10874     10876     10868     10871     10874     10877
     10869     10868     10871     10872     10869     10868     10871     10873
     10869     10868     10871     10874     10870     10868     10871     10872
     10870     10868     10871     10873     10870     10868     10871     10874
     10871     10874     10877     10878     10871     10874     10877     10879
     10871     10874     10877     10880     10872     10871     10874     10875
     10872     10871     10874     10876     10872     10871     10874     10877
     10873     10871     10874     10875     10873     10871     10874     10876
     10873     10871     10874     10877     10874     10877     10880     10881
     10874     10877     10880     10882     10874     10877     10880     10883
     10875     10874     10877     10878     10875     10874     10877     10879
     10875     10874     10877     10880     10876     10874     10877     10878
     10876     10874     10877     10879     10876     10874     10877     10880
     10878     10877     10880     10881     10878     10877     10880     10882
     10878     10877     10880     10883     10879     10877     10880     10881
     10879     10877     10880     10882     10879     10877     10880     10883
     10884     10886     10889     10890     10884     10886     10889     10891
     10884     10886     10889     10892     10885     10884     10886     10887
     10885     10884     10886     10888     10885     10884     10886     10889
     10886     10889     10892     10893     10886     10889     10892     10894
     10886     10889     10892     10895     10887     10886     10889     10890
     10887     10886     10889     10891     10887     10886     10889     10892
     10888     10886     10889     10890     10888     10886     10889     10891
     10888     10886     10889     10892     10889     10892     10895     10896
     10889     10892     10895     10897     10889     10892     10895     10898
     10890     10889     10892     10893     10890     10889     10892     10894
     10890     10889     10892     10895     10891     10889     10892     10893
     10891     10889     10892     10894     10891     10889     10892     10895
     10892     10895     10898     10899     10892     10895     10898     10900
     10892     10895     10898     10901     10893     10892     10895     10896
     10893     10892     10895     10897     10893     10892     10895     10898
     10894     10892     10895     10896     10894     10892     10895     10897
     10894     10892     10895     10898     10895     10898     10901     10902
     10895     10898     10901     10903     10895     10898     10901     10904
     10896     10895     10898     10899     10896     10895     10898     10900
     10896     10895     10898     10901     10897     10895     10898     10899
     10897     10895     10898     10900     10897     10895     10898     10901
     10898     10901     10904     10905     10898     10901     10904     10906
     10898     10901     10904     10907     10899     10898     10901     10902
     10899     10898     10901     10903     10899     10898     10901     10904
     10900     10898     10901     10902     10900     10898     10901     10903
     10900     10898     10901     10904     10901     10904     10907     10908
     10901     10904     10907     10909     10901     10904     10907     10910
     10902     10901     10904     10905     10902     10901     10904     10906
     10902     10901     10904     10907     10903     10901     10904     10905
     10903     10901     10904     10906     10903     10901     10904     10907
     10904     10907     10910     10911     10904     10907     10910     10912
     10904     10907     10910     10913     10905     10904     10907     10908
     10905     10904     10907     10909     10905     10904     10907     10910
     10906     10904     10907     10908     10906     10904     10907     10909
     10906     10904     10907     10910     10907     10910     10913     10914
     10907     10910     10913     10915     10907     10910     10913     10916
     10908     10907     10910     10911     10908     10907     10910     10912
     10908     10907     10910     10913     10909     10907     10910     10911
     10909     10907     10910     10912     10909     10907     10910     10913
     10910     10913     10916     10917     10910     10913     10916     10918
     10910     10913     10916     10919     10911     10910     10913     10914
     10911     10910     10913     10915     10911     10910     10913     10916
     10912     10910     10913     10914     10912     10910     10913     10915
     10912     10910     10913     10916     10913     10916     10919     10920
     10913     10916     10919     10921     10913     10916     10919     10922
     10914     10913     10916     10917     10914     10913     10916     10918
     10914     10913     10916     10919     10915     10913     10916     10917
     10915     10913     10916     10918     10915     10913     10916     10919
     10916     10919     10922     10923     10916     10919     10922     10924
     10916     10919     10922     10925     10917     10916     10919     10920
     10917     10916     10919     10921     10917     10916     10919     10922
     10918     10916     10919     10920     10918     10916     10919     10921
     10918     10916     10919     10922     10919     10922     10925     10926
     10919     10922     10925     10927     10919     10922     10925     10928
     10920     10919     10922     10923     10920     10919     10922     10924
     10920     10919     10922     10925     10921     10919     10922     10923
     10921     10919     10922     10924     10921     10919     10922     10925
     10922     10925     10928     10929     10922     10925     10928     10930
     10922     10925     10928     10931     10923     10922     10925     10926
     10923     10922     10925     10927     10923     10922     10925     10928
     10924     10922     10925     10926     10924     10922     10925     10927
     10924     10922     10925     10928     10926     10925     10928     10929
     10926     10925     10928     10930     10926     10925     10928     10931
     10927     10925     10928     10929     10927     10925     10928     10930
     10927     10925     10928     10931     10932     10933     10948     10949
     10932     10933     10948     10950     10932     10933     10948     10954
     10933     10932     10936     10937     10933     10932     10936     10938
     10933     10932     10936     10939     10933     10932     10940     10941
     10933     10932     10940     10942     10933     10932     10940     10943
     10933     10932     10944     10945     10933     10932     10944     10946
     10933     10932     10944     10947     10933     10948     10954     10951
     10934     10933     10932     10936     10934     10933     10932     10940
     10934     10933     10932     10944     10934     10933     10948     10949
     10934     10933     10948     10950     10934     10933     10948     10954
     10935     10933     10932     10936     10935     10933     10932     10940
     10935     10933     10932     10944     10935     10933     10948     10949
     10935     10933     10948     10950     10935     10933     10948     10954
     10936     10932     10933     10948     10936     10932     10940     10941
     10936     10932     10940     10942     10936     10932     10940     10943
     10936     10932     10944     10945     10936     10932     10944     10946
     10936     10932     10944     10947     10937     10936     10932     10940
     10937     10936     10932     10944     10938     10936     10932     10940
     10938     10936     10932     10944     10939     10936     10932     10940
     10939     10936     10932     10944     10940     10932     10933     10948
     10940     10932     10944     10945     10940     10932     10944     10946
     10940     10932     10944     10947     10941     10940     10932     10944
     10942     10940     10932     10944     10943     10940     10932     10944
     10944     10932     10933     10948     10948     10954     10951     10952
     10948     10954     10951     10953     10948     10954     10951     10955
     10949     10948     10954     10951     10950     10948     10954     10951
     10951     10955     10956     10957     10951     10955     10956     10958
     10951     10955     10956     10959     10952     10951     10955     10956
     10953     10951     10955     10956     10954     10951     10955     10956
     10955     10956     10959     10960     10955     10956     10959     10961
     10955     10956     10959     10967     10956     10959     10961     10962
     10956     10959     10967     10968     10956     10959     10967     10969
     10956     10959     10967     10970     10957     10956     10959     10960
     10957     10956     10959     10961     10957     10956     10959     10967
     10958     10956     10959     10960     10958     10956     10959     10961
     10958     10956     10959     10967     10959     10961     10962     10963
     10959     10961     10962     10964     10959     10967     10970     10971
     10960     10959     10961     10962     10960     10959     10967     10968
     10960     10959     10967     10969     10960     10959     10967     10970
     10961     10959     10967     10968     10961     10959     10967     10969
     10961     10959     10967     10970     10961     10962     10964     10965
     10961     10962     10964     10966     10961     10962     10964     10976
     10962     10961     10959     10967     10962     10964     10976     10977
     10962     10964     10976     10978     10962     10964     10976     10979
     10963     10962     10964     10965     10963     10962     10964     10966
     10963     10962     10964     10976     10964     10976     10979     10980
     10964     10976     10979     10981     10964     10976     10979     10982
     10965     10964     10976     10977     10965     10964     10976     10978
     10965     10964     10976     10979     10966     10964     10976     10977
     10966     10964     10976     10978     10966     10964     10976     10979
     10967     10970     10971     10972     10967     10970     10971     10973
     10968     10967     10970     10971     10969     10967     10970     10971
     10970     10971     10973     10974     10970     10971     10973     10975
     10970     10971     10973     11023     10971     10973     11023     11024
     10971     10973     11023     11025     10971     10973     11023     11026
     10972     10971     10973     10974     10972     10971     10973     10975
     10972     10971     10973     11023     10973     11023     11026     11027
     10973     11023     11026     11028     10973     11023     11026     11029
     10974     10973     11023     11024     10974     10973     11023     11025
     10974     10973     11023     11026     10975     10973     11023     11024
     10975     10973     11023     11025     10975     10973     11023     11026
     10976     10979     10982     10983     10976     10979     10982     10984
     10976     10979     10982     10985     10977     10976     10979     10980
     10977     10976     10979     10981     10977     10976     10979     10982
     10978     10976     10979     10980     10978     10976     10979     10981
     10978     10976     10979     10982     10979     10982     10985     10986
     10979     10982     10985     10987     10979     10982     10985     10988
     10980     10979     10982     10983     10980     10979     10982     10984
     10980     10979     10982     10985     10981     10979     10982     10983
     10981     10979     10982     10984     10981     10979     10982     10985
     10982     10985     10988     10989     10982     10985     10988     10990
     10982     10985     10988     10991     10983     10982     10985     10986
     10983     10982     10985     10987     10983     10982     10985     10988
     10984     10982     10985     10986     10984     10982     10985     10987
     10984     10982     10985     10988     10985     10988     10991     10992
     10985     10988     10991     10993     10985     10988     10991     10994
     10986     10985     10988     10989     10986     10985     10988     10990
     10986     10985     10988     10991     10987     10985     10988     10989
     10987     10985     10988     10990     10987     10985     10988     10991
     10988     10991     10994     10995     10988     10991     10994     10996
     10989     10988     10991     10992     10989     10988     10991     10993
     10989     10988     10991     10994     10990     10988     10991     10992
     10990     10988     10991     10993     10990     10988     10991     10994
     10991     10994     10996     10997     10991     10994     10996     10998
     10992     10991     10994     10995     10992     10991     10994     10996
     10993     10991     10994     10995     10993     10991     10994     10996
     10994     10996     10998     10999     10994     10996     10998     11000
     10994     10996     10998     11001     10995     10994     10996     10997
     10995     10994     10996     10998     10996     10998     11001     11002
     10996     10998     11001     11003     10996     10998     11001     11004
     10997     10996     10998     10999     10997     10996     10998     11000
     10997     10996     10998     11001     10998     11001     11004     11005
     10998     11001     11004     11006     10998     11001     11004     11007
     10999     10998     11001     11002     10999     10998     11001     11003
     10999     10998     11001     11004     11000     10998     11001     11002
     11000     10998     11001     11003     11000     10998     11001     11004
     11001     11004     11007     11008     11001     11004     11007     11009
     11001     11004     11007     11010     11002     11001     11004     11005
     11002     11001     11004     11006     11002     11001     11004     11007
     11003     11001     11004     11005     11003     11001     11004     11006
     11003     11001     11004     11007     11004     11007     11010     11011
     11004     11007     11010     11012     11004     11007     11010     11013
     11005     11004     11007     11008     11005     11004     11007     11009
     11005     11004     11007     11010     11006     11004     11007     11008
     11006     11004     11007     11009     11006     11004     11007     11010
     11007     11010     11013     11014     11007     11010     11013     11015
     11007     11010     11013     11016     11008     11007     11010     11011
     11008     11007     11010     11012     11008     11007     11010     11013
     11009     11007     11010     11011     11009     11007     11010     11012
     11009     11007     11010     11013     11010     11013     11016     11017
     11010     11013     11016     11018     11010     11013     11016     11019
     11011     11010     11013     11014     11011     11010     11013     11015
     11011     11010     11013     11016     11012     11010     11013     11014
     11012     11010     11013     11015     11012     11010     11013     11016
     11013     11016     11019     11020     11013     11016     11019     11021
     11013     11016     11019     11022     11014     11013     11016     11017
     11014     11013     11016     11018     11014     11013     11016     11019
     11015     11013     11016     11017     11015     11013     11016     11018
     11015     11013     11016     11019     11017     11016     11019     11020
     11017     11016     11019     11021     11017     11016     11019     11022
     11018     11016     11019     11020     11018     11016     11019     11021
     11018     11016     11019     11022     11023     11026     11029     11030
     11023     11026     11029     11031     11023     11026     11029     11032
     11024     11023     11026     11027     11024     11023     11026     11028
     11024     11023     11026     11029     11025     11023     11026     11027
     11025     11023     11026     11028     11025     11023     11026     11029
     11026     11029     11032     11033     11026     11029     11032     11034
     11026     11029     11032     11035     11027     11026     11029     11030
     11027     11026     11029     11031     11027     11026     11029     11032
     11028     11026     11029     11030     11028     11026     11029     11031
     11028     11026     11029     11032     11029     11032     11035     11036
     11029     11032     11035     11037     11029     11032     11035     11038
     11030     11029     11032     11033     11030     11029     11032     11034
     11030     11029     11032     11035     11031     11029     11032     11033
     11031     11029     11032     11034     11031     11029     11032     11035
     11032     11035     11038     11039     11032     11035     11038     11040
     11032     11035     11038     11041     11033     11032     11035     11036
     11033     11032     11035     11037     11033     11032     11035     11038
     11034     11032     11035     11036     11034     11032     11035     11037
     11034     11032     11035     11038     11035     11038     11041     11042
     11035     11038     11041     11043     11035     11038     11041     11044
     11036     11035     11038     11039     11036     11035     11038     11040
     11036     11035     11038     11041     11037     11035     11038     11039
     11037     11035     11038     11040     11037     11035     11038     11041
     11038     11041     11044     11045     11038     11041     11044     11046
     11038     11041     11044     11047     11039     11038     11041     11042
     11039     11038     11041     11043     11039     11038     11041     11044
     11040     11038     11041     11042     11040     11038     11041     11043
     11040     11038     11041     11044     11041     11044     11047     11048
     11041     11044     11047     11049     11041     11044     11047     11050
     11042     11041     11044     11045     11042     11041     11044     11046
     11042     11041     11044     11047     11043     11041     11044     11045
     11043     11041     11044     11046     11043     11041     11044     11047
     11044     11047     11050     11051     11044     11047     11050     11052
     11044     11047     11050     11053     11045     11044     11047     11048
     11045     11044     11047     11049     11045     11044     11047     11050
     11046     11044     11047     11048     11046     11044     11047     11049
     11046     11044     11047     11050     11047     11050     11053     11054
     11047     11050     11053     11055     11047     11050     11053     11056
     11048     11047     11050     11051     11048     11047     11050     11052
     11048     11047     11050     11053     11049     11047     11050     11051
     11049     11047     11050     11052     11049     11047     11050     11053
     11050     11053     11056     11057     11050     11053     11056     11058
     11050     11053     11056     11059     11051     11050     11053     11054
     11051     11050     11053     11055     11051     11050     11053     11056
     11052     11050     11053     11054     11052     11050     11053     11055
     11052     11050     11053     11056     11053     11056     11059     11060
     11053     11056     11059     11061     11053     11056     11059     11062
     11054     11053     11056     11057     11054     11053     11056     11058
     11054     11053     11056     11059     11055     11053     11056     11057
     11055     11053     11056     11058     11055     11053     11056     11059
     11056     11059     11062     11063     11056     11059     11062     11064
     11056     11059     11062     11065     11057     11056     11059     11060
     11057     11056     11059     11061     11057     11056     11059     11062
     11058     11056     11059     11060     11058     11056     11059     11061
     11058     11056     11059     11062     11060     11059     11062     11063
     11060     11059     11062     11064     11060     11059     11062     11065
     11061     11059     11062     11063     11061     11059     11062     11064
     11061     11059     11062     11065     11066     11070     11073     11074
     11066     11070     11073     11075     11066     11070     11073     11080
     11067     11066     11070     11071     11067     11066     11070     11072
     11067     11066     11070     11073     11068     11066     11070     11071
     11068     11066     11070     11072     11068     11066     11070     11073
     11069     11066     11070     11071     11069     11066     11070     11072
     11069     11066     11070     11073     11070     11073     11080     11076
     11071     11070     11073     11074     11071     11070     11073     11075
     11071     11070     11073     11080     11072     11070     11073     11074
     11072     11070     11073     11075     11072     11070     11073     11080
     11073     11080     11076     11077     11073     11080     11076     11078
     11073     11080     11076     11079     11074     11073     11080     11076
     11075     11073     11080     11076     11076     11079     11081     11082
     11076     11079     11081     11083     11076     11079     11081     11084
     11077     11076     11079     11081     11078     11076     11079     11081
     11079     11081     11084     11085     11079     11081     11084     11086
     11079     11081     11084     11092     11080     11076     11079     11081
     11081     11084     11086     11087     11081     11084     11092     11093
     11081     11084     11092     11094     11081     11084     11092     11095
     11082     11081     11084     11085     11082     11081     11084     11086
     11082     11081     11084     11092     11083     11081     11084     11085
     11083     11081     11084     11086     11083     11081     11084     11092
     11084     11086     11087     11088     11084     11086     11087     11089
     11084     11092     11095     11096     11085     11084     11086     11087
     11085     11084     11092     11093     11085     11084     11092     11094
     11085     11084     11092     11095     11086     11084     11092     11093
     11086     11084     11092     11094     11086     11084     11092     11095
     11086     11087     11089     11090     11086     11087     11089     11091
     11086     11087     11089     11101     11087     11086     11084     11092
     11087     11089     11101     11102     11087     11089     11101     11103
     11087     11089     11101     11104     11088     11087     11089     11090
     11088     11087     11089     11091     11088     11087     11089     11101
     11089     11101     11104     11105     11089     11101     11104     11106
     11089     11101     11104     11107     11090     11089     11101     11102
     11090     11089     11101     11103     11090     11089     11101     11104
     11091     11089     11101     11102     11091     11089     11101     11103
     11091     11089     11101     11104     11092     11095     11096     11097
     11092     11095     11096     11098     11093     11092     11095     11096
     11094     11092     11095     11096     11095     11096     11098     11099
     11095     11096     11098     11100     11095     11096     11098     11148
     11096     11098     11148     11149     11096     11098     11148     11150
     11096     11098     11148     11151     11097     11096     11098     11099
     11097     11096     11098     11100     11097     11096     11098     11148
     11098     11148     11151     11152     11098     11148     11151     11153
     11098     11148     11151     11154     11099     11098     11148     11149
     11099     11098     11148     11150     11099     11098     11148     11151
     11100     11098     11148     11149     11100     11098     11148     11150
     11100     11098     11148     11151     11101     11104     11107     11108
     11101     11104     11107     11109     11101     11104     11107     11110
     11102     11101     11104     11105     11102     11101     11104     11106
     11102     11101     11104     11107     11103     11101     11104     11105
     11103     11101     11104     11106     11103     11101     11104     11107
     11104     11107     11110     11111     11104     11107     11110     11112
     11104     11107     11110     11113     11105     11104     11107     11108
     11105     11104     11107     11109     11105     11104     11107     11110
     11106     11104     11107     11108     11106     11104     11107     11109
     11106     11104     11107     11110     11107     11110     11113     11114
     11107     11110     11113     11115     11107     11110     11113     11116
     11108     11107     11110     11111     11108     11107     11110     11112
     11108     11107     11110     11113     11109     11107     11110     11111
     11109     11107     11110     11112     11109     11107     11110     11113
     11110     11113     11116     11117     11110     11113     11116     11118
     11110     11113     11116     11119     11111     11110     11113     11114
     11111     11110     11113     11115     11111     11110     11113     11116
     11112     11110     11113     11114     11112     11110     11113     11115
     11112     11110     11113     11116     11113     11116     11119     11120
     11113     11116     11119     11121     11114     11113     11116     11117
     11114     11113     11116     11118     11114     11113     11116     11119
     11115     11113     11116     11117     11115     11113     11116     11118
     11115     11113     11116     11119     11116     11119     11121     11122
     11116     11119     11121     11123     11117     11116     11119     11120
     11117     11116     11119     11121     11118     11116     11119     11120
     11118     11116     11119     11121     11119     11121     11123     11124
     11119     11121     11123     11125     11119     11121     11123     11126
     11120     11119     11121     11122     11120     11119     11121     11123
     11121     11123     11126     11127     11121     11123     11126     11128
     11121     11123     11126     11129     11122     11121     11123     11124
     11122     11121     11123     11125     11122     11121     11123     11126
     11123     11126     11129     11130     11123     11126     11129     11131
     11123     11126     11129     11132     11124     11123     11126     11127
     11124     11123     11126     11128     11124     11123     11126     11129
     11125     11123     11126     11127     11125     11123     11126     11128
     11125     11123     11126     11129     11126     11129     11132     11133
     11126     11129     11132     11134     11126     11129     11132     11135
     11127     11126     11129     11130     11127     11126     11129     11131
     11127     11126     11129     11132     11128     11126     11129     11130
     11128     11126     11129     11131     11128     11126     11129     11132
     11129     11132     11135     11136     11129     11132     11135     11137
     11129     11132     11135     11138     11130     11129     11132     11133
     11130     11129     11132     11134     11130     11129     11132     11135
     11131     11129     11132     11133     11131     11129     11132     11134
     11131     11129     11132     11135     11132     11135     11138     11139
     11132     11135     11138     11140     11132     11135     11138     11141
     11133     11132     11135     11136     11133     11132     11135     11137
     11133     11132     11135     11138     11134     11132     11135     11136
     11134     11132     11135     11137     11134     11132     11135     11138
     11135     11138     11141     11142     11135     11138     11141     11143
     11135     11138     11141     11144     11136     11135     11138     11139
     11136     11135     11138     11140     11136     11135     11138     11141
     11137     11135     11138     11139     11137     11135     11138     11140
     11137     11135     11138     11141     11138     11141     11144     11145
     11138     11141     11144     11146     11138     11141     11144     11147
     11139     11138     11141     11142     11139     11138     11141     11143
     11139     11138     11141     11144     11140     11138     11141     11142
     11140     11138     11141     11143     11140     11138     11141     11144
     11142     11141     11144     11145     11142     11141     11144     11146
     11142     11141     11144     11147     11143     11141     11144     11145
     11143     11141     11144     11146     11143     11141     11144     11147
     11148     11151     11154     11155     11148     11151     11154     11156
     11148     11151     11154     11157     11149     11148     11151     11152
     11149     11148     11151     11153     11149     11148     11151     11154
     11150     11148     11151     11152     11150     11148     11151     11153
     11150     11148     11151     11154     11151     11154     11157     11158
     11151     11154     11157     11159     11151     11154     11157     11160
     11152     11151     11154     11155     11152     11151     11154     11156
     11152     11151     11154     11157     11153     11151     11154     11155
     11153     11151     11154     11156     11153     11151     11154     11157
     11154     11157     11160     11161     11154     11157     11160     11162
     11154     11157     11160     11163     11155     11154     11157     11158
     11155     11154     11157     11159     11155     11154     11157     11160
     11156     11154     11157     11158     11156     11154     11157     11159
     11156     11154     11157     11160     11157     11160     11163     11164
     11157     11160     11163     11165     11157     11160     11163     11166
     11158     11157     11160     11161     11158     11157     11160     11162
     11158     11157     11160     11163     11159     11157     11160     11161
     11159     11157     11160     11162     11159     11157     11160     11163
     11160     11163     11166     11167     11160     11163     11166     11168
     11160     11163     11166     11169     11161     11160     11163     11164
     11161     11160     11163     11165     11161     11160     11163     11166
     11162     11160     11163     11164     11162     11160     11163     11165
     11162     11160     11163     11166     11163     11166     11169     11170
     11163     11166     11169     11171     11163     11166     11169     11172
     11164     11163     11166     11167     11164     11163     11166     11168
     11164     11163     11166     11169     11165     11163     11166     11167
     11165     11163     11166     11168     11165     11163     11166     11169
     11166     11169     11172     11173     11166     11169     11172     11174
     11166     11169     11172     11175     11167     11166     11169     11170
     11167     11166     11169     11171     11167     11166     11169     11172
     11168     11166     11169     11170     11168     11166     11169     11171
     11168     11166     11169     11172     11169     11172     11175     11176
     11169     11172     11175     11177     11169     11172     11175     11178
     11170     11169     11172     11173     11170     11169     11172     11174
     11170     11169     11172     11175     11171     11169     11172     11173
     11171     11169     11172     11174     11171     11169     11172     11175
     11172     11175     11178     11179     11172     11175     11178     11180
     11172     11175     11178     11181     11173     11172     11175     11176
     11173     11172     11175     11177     11173     11172     11175     11178
     11174     11172     11175     11176     11174     11172     11175     11177
     11174     11172     11175     11178     11175     11178     11181     11182
     11175     11178     11181     11183     11175     11178     11181     11184
     11176     11175     11178     11179     11176     11175     11178     11180
     11176     11175     11178     11181     11177     11175     11178     11179
     11177     11175     11178     11180     11177     11175     11178     11181
     11178     11181     11184     11185     11178     11181     11184     11186
     11178     11181     11184     11187     11179     11178     11181     11182
     11179     11178     11181     11183     11179     11178     11181     11184
     11180     11178     11181     11182     11180     11178     11181     11183
     11180     11178     11181     11184     11181     11184     11187     11188
     11181     11184     11187     11189     11181     11184     11187     11190
     11182     11181     11184     11185     11182     11181     11184     11186
     11182     11181     11184     11187     11183     11181     11184     11185
     11183     11181     11184     11186     11183     11181     11184     11187
     11185     11184     11187     11188     11185     11184     11187     11189
     11185     11184     11187     11190     11186     11184     11187     11188
     11186     11184     11187     11189     11186     11184     11187     11190
     11191     11192     11207     11208     11191     11192     11207     11209
     11191     11192     11207     11213     11192     11191     11195     11196
     11192     11191     11195     11197     11192     11191     11195     11198
     11192     11191     11199     11200     11192     11191     11199     11201
     11192     11191     11199     11202     11192     11191     11203     11204
     11192     11191     11203     11205     11192     11191     11203     11206
     11192     11207     11213     11210     11193     11192     11191     11195
     11193     11192     11191     11199     11193     11192     11191     11203
     11193     11192     11207     11208     11193     11192     11207     11209
     11193     11192     11207     11213     11194     11192     11191     11195
     11194     11192     11191     11199     11194     11192     11191     11203
     11194     11192     11207     11208     11194     11192     11207     11209
     11194     11192     11207     11213     11195     11191     11192     11207
     11195     11191     11199     11200     11195     11191     11199     11201
     11195     11191     11199     11202     11195     11191     11203     11204
     11195     11191     11203     11205     11195     11191     11203     11206
     11196     11195     11191     11199     11196     11195     11191     11203
     11197     11195     11191     11199     11197     11195     11191     11203
     11198     11195     11191     11199     11198     11195     11191     11203
     11199     11191     11192     11207     11199     11191     11203     11204
     11199     11191     11203     11205     11199     11191     11203     11206
     11200     11199     11191     11203     11201     11199     11191     11203
     11202     11199     11191     11203     11203     11191     11192     11207
     11207     11213     11210     11211     11207     11213     11210     11212
     11207     11213     11210     11214     11208     11207     11213     11210
     11209     11207     11213     11210     11210     11214     11215     11216
     11210     11214     11215     11217     11210     11214     11215     11218
     11211     11210     11214     11215     11212     11210     11214     11215
     11213     11210     11214     11215     11214     11215     11218     11219
     11214     11215     11218     11220     11214     11215     11218     11226
     11215     11218     11220     11221     11215     11218     11226     11227
     11215     11218     11226     11228     11215     11218     11226     11229
     11216     11215     11218     11219     11216     11215     11218     11220
     11216     11215     11218     11226     11217     11215     11218     11219
     11217     11215     11218     11220     11217     11215     11218     11226
     11218     11220     11221     11222     11218     11220     11221     11223
     11218     11226     11229     11230     11219     11218     11220     11221
     11219     11218     11226     11227     11219     11218     11226     11228
     11219     11218     11226     11229     11220     11218     11226     11227
     11220     11218     11226     11228     11220     11218     11226     11229
     11220     11221     11223     11224     11220     11221     11223     11225
     11220     11221     11223     11235     11221     11220     11218     11226
     11221     11223     11235     11236     11221     11223     11235     11237
     11221     11223     11235     11238     11222     11221     11223     11224
     11222     11221     11223     11225     11222     11221     11223     11235
     11223     11235     11238     11239     11223     11235     11238     11240
     11223     11235     11238     11241     11224     11223     11235     11236
     11224     11223     11235     11237     11224     11223     11235     11238
     11225     11223     11235     11236     11225     11223     11235     11237
     11225     11223     11235     11238     11226     11229     11230     11231
     11226     11229     11230     11232     11227     11226     11229     11230
     11228     11226     11229     11230     11229     11230     11232     11233
     11229     11230     11232     11234     11229     11230     11232     11282
     11230     11232     11282     11283     11230     11232     11282     11284
     11230     11232     11282     11285     11231     11230     11232     11233
     11231     11230     11232     11234     11231     11230     11232     11282
     11232     11282     11285     11286     11232     11282     11285     11287
     11232     11282     11285     11288     11233     11232     11282     11283
     11233     11232     11282     11284     11233     11232     11282     11285
     11234     11232     11282     11283     11234     11232     11282     11284
     11234     11232     11282     11285     11235     11238     11241     11242
     11235     11238     11241     11243     11235     11238     11241     11244
     11236     11235     11238     11239     11236     11235     11238     11240
     11236     11235     11238     11241     11237     11235     11238     11239
     11237     11235     11238     11240     11237     11235     11238     11241
     11238     11241     11244     11245     11238     11241     11244     11246
     11238     11241     11244     11247     11239     11238     11241     11242
     11239     11238     11241     11243     11239     11238     11241     11244
     11240     11238     11241     11242     11240     11238     11241     11243
     11240     11238     11241     11244     11241     11244     11247     11248
     11241     11244     11247     11249     11241     11244     11247     11250
     11242     11241     11244     11245     11242     11241     11244     11246
     11242     11241     11244     11247     11243     11241     11244     11245
     11243     11241     11244     11246     11243     11241     11244     11247
     11244     11247     11250     11251     11244     11247     11250     11252
     11244     11247     11250     11253     11245     11244     11247     11248
     11245     11244     11247     11249     11245     11244     11247     11250
     11246     11244     11247     11248     11246     11244     11247     11249
     11246     11244     11247     11250     11247     11250     11253     11254
     11247     11250     11253     11255     11248     11247     11250     11251
     11248     11247     11250     11252     11248     11247     11250     11253
     11249     11247     11250     11251     11249     11247     11250     11252
     11249     11247     11250     11253     11250     11253     11255     11256
     11250     11253     11255     11257     11251     11250     11253     11254
     11251     11250     11253     11255     11252     11250     11253     11254
     11252     11250     11253     11255     11253     11255     11257     11258
     11253     11255     11257     11259     11253     11255     11257     11260
     11254     11253     11255     11256     11254     11253     11255     11257
     11255     11257     11260     11261     11255     11257     11260     11262
     11255     11257     11260     11263     11256     11255     11257     11258
     11256     11255     11257     11259     11256     11255     11257     11260
     11257     11260     11263     11264     11257     11260     11263     11265
     11257     11260     11263     11266     11258     11257     11260     11261
     11258     11257     11260     11262     11258     11257     11260     11263
     11259     11257     11260     11261     11259     11257     11260     11262
     11259     11257     11260     11263     11260     11263     11266     11267
     11260     11263     11266     11268     11260     11263     11266     11269
     11261     11260     11263     11264     11261     11260     11263     11265
     11261     11260     11263     11266     11262     11260     11263     11264
     11262     11260     11263     11265     11262     11260     11263     11266
     11263     11266     11269     11270     11263     11266     11269     11271
     11263     11266     11269     11272     11264     11263     11266     11267
     11264     11263     11266     11268     11264     11263     11266     11269
     11265     11263     11266     11267     11265     11263     11266     11268
     11265     11263     11266     11269     11266     11269     11272     11273
     11266     11269     11272     11274     11266     11269     11272     11275
     11267     11266     11269     11270     11267     11266     11269     11271
     11267     11266     11269     11272     11268     11266     11269     11270
     11268     11266     11269     11271     11268     11266     11269     11272
     11269     11272     11275     11276     11269     11272     11275     11277
     11269     11272     11275     11278     11270     11269     11272     11273
     11270     11269     11272     11274     11270     11269     11272     11275
     11271     11269     11272     11273     11271     11269     11272     11274
     11271     11269     11272     11275     11272     11275     11278     11279
     11272     11275     11278     11280     11272     11275     11278     11281
     11273     11272     11275     11276     11273     11272     11275     11277
     11273     11272     11275     11278     11274     11272     11275     11276
     11274     11272     11275     11277     11274     11272     11275     11278
     11276     11275     11278     11279     11276     11275     11278     11280
     11276     11275     11278     11281     11277     11275     11278     11279
     11277     11275     11278     11280     11277     11275     11278     11281
     11282     11285     11288     11289     11282     11285     11288     11290
     11282     11285     11288     11291     11283     11282     11285     11286
     11283     11282     11285     11287     11283     11282     11285     11288
     11284     11282     11285     11286     11284     11282     11285     11287
     11284     11282     11285     11288     11285     11288     11291     11292
     11285     11288     11291     11293     11285     11288     11291     11294
     11286     11285     11288     11289     11286     11285     11288     11290
     11286     11285     11288     11291     11287     11285     11288     11289
     11287     11285     11288     11290     11287     11285     11288     11291
     11288     11291     11294     11295     11288     11291     11294     11296
     11288     11291     11294     11297     11289     11288     11291     11292
     11289     11288     11291     11293     11289     11288     11291     11294
     11290     11288     11291     11292     11290     11288     11291     11293
     11290     11288     11291     11294     11291     11294     11297     11298
     11291     11294     11297     11299     11291     11294     11297     11300
     11292     11291     11294     11295     11292     11291     11294     11296
     11292     11291     11294     11297     11293     11291     11294     11295
     11293     11291     11294     11296     11293     11291     11294     11297
     11294     11297     11300     11301     11294     11297     11300     11302
     11294     11297     11300     11303     11295     11294     11297     11298
     11295     11294     11297     11299     11295     11294     11297     11300
     11296     11294     11297     11298     11296     11294     11297     11299
     11296     11294     11297     11300     11297     11300     11303     11304
     11297     11300     11303     11305     11297     11300     11303     11306
     11298     11297     11300     11301     11298     11297     11300     11302
     11298     11297     11300     11303     11299     11297     11300     11301
     11299     11297     11300     11302     11299     11297     11300     11303
     11300     11303     11306     11307     11300     11303     11306     11308
     11300     11303     11306     11309     11301     11300     11303     11304
     11301     11300     11303     11305     11301     11300     11303     11306
     11302     11300     11303     11304     11302     11300     11303     11305
     11302     11300     11303     11306     11303     11306     11309     11310
     11303     11306     11309     11311     11303     11306     11309     11312
     11304     11303     11306     11307     11304     11303     11306     11308
     11304     11303     11306     11309     11305     11303     11306     11307
     11305     11303     11306     11308     11305     11303     11306     11309
     11306     11309     11312     11313     11306     11309     11312     11314
     11306     11309     11312     11315     11307     11306     11309     11310
     11307     11306     11309     11311     11307     11306     11309     11312
     11308     11306     11309     11310     11308     11306     11309     11311
     11308     11306     11309     11312     11309     11312     11315     11316
     11309     11312     11315     11317     11309     11312     11315     11318
     11310     11309     11312     11313     11310     11309     11312     11314
     11310     11309     11312     11315     11311     11309     11312     11313
     11311     11309     11312     11314     11311     11309     11312     11315
     11312     11315     11318     11319     11312     11315     11318     11320
     11312     11315     11318     11321     11313     11312     11315     11316
     11313     11312     11315     11317     11313     11312     11315     11318
     11314     11312     11315     11316     11314     11312     11315     11317
     11314     11312     11315     11318     11315     11318     11321     11322
     11315     11318     11321     11323     11315     11318     11321     11324
     11316     11315     11318     11319     11316     11315     11318     11320
     11316     11315     11318     11321     11317     11315     11318     11319
     11317     11315     11318     11320     11317     11315     11318     11321
     11319     11318     11321     11322     11319     11318     11321     11323
     11319     11318     11321     11324     11320     11318     11321     11322
     11320     11318     11321     11323     11320     11318     11321     11324
     11325     11329     11332     11333     11325     11329     11332     11334
     11325     11329     11332     11339     11326     11325     11329     11330
     11326     11325     11329     11331     11326     11325     11329     11332
     11327     11325     11329     11330     11327     11325     11329     11331
     11327     11325     11329     11332     11328     11325     11329     11330
     11328     11325     11329     11331     11328     11325     11329     11332
     11329     11332     11339     11335     11330     11329     11332     11333
     11330     11329     11332     11334     11330     11329     11332     11339
     11331     11329     11332     11333     11331     11329     11332     11334
     11331     11329     11332     11339     11332     11339     11335     11336
     11332     11339     11335     11337     11332     11339     11335     11338
     11333     11332     11339     11335     11334     11332     11339     11335
     11335     11338     11340     11341     11335     11338     11340     11342
     11335     11338     11340     11343     11336     11335     11338     11340
     11337     11335     11338     11340     11338     11340     11343     11344
     11338     11340     11343     11345     11338     11340     11343     11351
     11339     11335     11338     11340     11340     11343     11345     11346
     11340     11343     11351     11352     11340     11343     11351     11353
     11340     11343     11351     11354     11341     11340     11343     11344
     11341     11340     11343     11345     11341     11340     11343     11351
     11342     11340     11343     11344     11342     11340     11343     11345
     11342     11340     11343     11351     11343     11345     11346     11347
     11343     11345     11346     11348     11343     11351     11354     11355
     11344     11343     11345     11346     11344     11343     11351     11352
     11344     11343     11351     11353     11344     11343     11351     11354
     11345     11343     11351     11352     11345     11343     11351     11353
     11345     11343     11351     11354     11345     11346     11348     11349
     11345     11346     11348     11350     11345     11346     11348     11360
     11346     11345     11343     11351     11346     11348     11360     11361
     11346     11348     11360     11362     11346     11348     11360     11363
     11347     11346     11348     11349     11347     11346     11348     11350
     11347     11346     11348     11360     11348     11360     11363     11364
     11348     11360     11363     11365     11348     11360     11363     11366
     11349     11348     11360     11361     11349     11348     11360     11362
     11349     11348     11360     11363     11350     11348     11360     11361
     11350     11348     11360     11362     11350     11348     11360     11363
     11351     11354     11355     11356     11351     11354     11355     11357
     11352     11351     11354     11355     11353     11351     11354     11355
     11354     11355     11357     11358     11354     11355     11357     11359
     11354     11355     11357     11407     11355     11357     11407     11408
     11355     11357     11407     11409     11355     11357     11407     11410
     11356     11355     11357     11358     11356     11355     11357     11359
     11356     11355     11357     11407     11357     11407     11410     11411
     11357     11407     11410     11412     11357     11407     11410     11413
     11358     11357     11407     11408     11358     11357     11407     11409
     11358     11357     11407     11410     11359     11357     11407     11408
     11359     11357     11407     11409     11359     11357     11407     11410
     11360     11363     11366     11367     11360     11363     11366     11368
     11360     11363     11366     11369     11361     11360     11363     11364
     11361     11360     11363     11365     11361     11360     11363     11366
     11362     11360     11363     11364     11362     11360     11363     11365
     11362     11360     11363     11366     11363     11366     11369     11370
     11363     11366     11369     11371     11363     11366     11369     11372
     11364     11363     11366     11367     11364     11363     11366     11368
     11364     11363     11366     11369     11365     11363     11366     11367
     11365     11363     11366     11368     11365     11363     11366     11369
     11366     11369     11372     11373     11366     11369     11372     11374
     11366     11369     11372     11375     11367     11366     11369     11370
     11367     11366     11369     11371     11367     11366     11369     11372
     11368     11366     11369     11370     11368     11366     11369     11371
     11368     11366     11369     11372     11369     11372     11375     11376
     11369     11372     11375     11377     11369     11372     11375     11378
     11370     11369     11372     11373     11370     11369     11372     11374
     11370     11369     11372     11375     11371     11369     11372     11373
     11371     11369     11372     11374     11371     11369     11372     11375
     11372     11375     11378     11379     11372     11375     11378     11380
     11373     11372     11375     11376     11373     11372     11375     11377
     11373     11372     11375     11378     11374     11372     11375     11376
     11374     11372     11375     11377     11374     11372     11375     11378
     11375     11378     11380     11381     11375     11378     11380     11382
     11376     11375     11378     11379     11376     11375     11378     11380
     11377     11375     11378     11379     11377     11375     11378     11380
     11378     11380     11382     11383     11378     11380     11382     11384
     11378     11380     11382     11385     11379     11378     11380     11381
     11379     11378     11380     11382     11380     11382     11385     11386
     11380     11382     11385     11387     11380     11382     11385     11388
     11381     11380     11382     11383     11381     11380     11382     11384
     11381     11380     11382     11385     11382     11385     11388     11389
     11382     11385     11388     11390     11382     11385     11388     11391
     11383     11382     11385     11386     11383     11382     11385     11387
     11383     11382     11385     11388     11384     11382     11385     11386
     11384     11382     11385     11387     11384     11382     11385     11388
     11385     11388     11391     11392     11385     11388     11391     11393
     11385     11388     11391     11394     11386     11385     11388     11389
     11386     11385     11388     11390     11386     11385     11388     11391
     11387     11385     11388     11389     11387     11385     11388     11390
     11387     11385     11388     11391     11388     11391     11394     11395
     11388     11391     11394     11396     11388     11391     11394     11397
     11389     11388     11391     11392     11389     11388     11391     11393
     11389     11388     11391     11394     11390     11388     11391     11392
     11390     11388     11391     11393     11390     11388     11391     11394
     11391     11394     11397     11398     11391     11394     11397     11399
     11391     11394     11397     11400     11392     11391     11394     11395
     11392     11391     11394     11396     11392     11391     11394     11397
     11393     11391     11394     11395     11393     11391     11394     11396
     11393     11391     11394     11397     11394     11397     11400     11401
     11394     11397     11400     11402     11394     11397     11400     11403
     11395     11394     11397     11398     11395     11394     11397     11399
     11395     11394     11397     11400     11396     11394     11397     11398
     11396     11394     11397     11399     11396     11394     11397     11400
     11397     11400     11403     11404     11397     11400     11403     11405
     11397     11400     11403     11406     11398     11397     11400     11401
     11398     11397     11400     11402     11398     11397     11400     11403
     11399     11397     11400     11401     11399     11397     11400     11402
     11399     11397     11400     11403     11401     11400     11403     11404
     11401     11400     11403     11405     11401     11400     11403     11406
     11402     11400     11403     11404     11402     11400     11403     11405
     11402     11400     11403     11406     11407     11410     11413     11414
     11407     11410     11413     11415     11407     11410     11413     11416
     11408     11407     11410     11411     11408     11407     11410     11412
     11408     11407     11410     11413     11409     11407     11410     11411
     11409     11407     11410     11412     11409     11407     11410     11413
     11410     11413     11416     11417     11410     11413     11416     11418
     11410     11413     11416     11419     11411     11410     11413     11414
     11411     11410     11413     11415     11411     11410     11413     11416
     11412     11410     11413     11414     11412     11410     11413     11415
     11412     11410     11413     11416     11413     11416     11419     11420
     11413     11416     11419     11421     11413     11416     11419     11422
     11414     11413     11416     11417     11414     11413     11416     11418
     11414     11413     11416     11419     11415     11413     11416     11417
     11415     11413     11416     11418     11415     11413     11416     11419
     11416     11419     11422     11423     11416     11419     11422     11424
     11416     11419     11422     11425     11417     11416     11419     11420
     11417     11416     11419     11421     11417     11416     11419     11422
     11418     11416     11419     11420     11418     11416     11419     11421
     11418     11416     11419     11422     11419     11422     11425     11426
     11419     11422     11425     11427     11419     11422     11425     11428
     11420     11419     11422     11423     11420     11419     11422     11424
     11420     11419     11422     11425     11421     11419     11422     11423
     11421     11419     11422     11424     11421     11419     11422     11425
     11422     11425     11428     11429     11422     11425     11428     11430
     11422     11425     11428     11431     11423     11422     11425     11426
     11423     11422     11425     11427     11423     11422     11425     11428
     11424     11422     11425     11426     11424     11422     11425     11427
     11424     11422     11425     11428     11425     11428     11431     11432
     11425     11428     11431     11433     11425     11428     11431     11434
     11426     11425     11428     11429     11426     11425     11428     11430
     11426     11425     11428     11431     11427     11425     11428     11429
     11427     11425     11428     11430     11427     11425     11428     11431
     11428     11431     11434     11435     11428     11431     11434     11436
     11428     11431     11434     11437     11429     11428     11431     11432
     11429     11428     11431     11433     11429     11428     11431     11434
     11430     11428     11431     11432     11430     11428     11431     11433
     11430     11428     11431     11434     11431     11434     11437     11438
     11431     11434     11437     11439     11431     11434     11437     11440
     11432     11431     11434     11435     11432     11431     11434     11436
     11432     11431     11434     11437     11433     11431     11434     11435
     11433     11431     11434     11436     11433     11431     11434     11437
     11434     11437     11440     11441     11434     11437     11440     11442
     11434     11437     11440     11443     11435     11434     11437     11438
     11435     11434     11437     11439     11435     11434     11437     11440
     11436     11434     11437     11438     11436     11434     11437     11439
     11436     11434     11437     11440     11437     11440     11443     11444
     11437     11440     11443     11445     11437     11440     11443     11446
     11438     11437     11440     11441     11438     11437     11440     11442
     11438     11437     11440     11443     11439     11437     11440     11441
     11439     11437     11440     11442     11439     11437     11440     11443
     11440     11443     11446     11447     11440     11443     11446     11448
     11440     11443     11446     11449     11441     11440     11443     11444
     11441     11440     11443     11445     11441     11440     11443     11446
     11442     11440     11443     11444     11442     11440     11443     11445
     11442     11440     11443     11446     11444     11443     11446     11447
     11444     11443     11446     11448     11444     11443     11446     11449
     11445     11443     11446     11447     11445     11443     11446     11448
     11445     11443     11446     11449     11450     11454     11457     11458
     11450     11454     11457     11459     11450     11454     11457     11464
     11451     11450     11454     11455     11451     11450     11454     11456
     11451     11450     11454     11457     11452     11450     11454     11455
     11452     11450     11454     11456     11452     11450     11454     11457
     11453     11450     11454     11455     11453     11450     11454     11456
     11453     11450     11454     11457     11454     11457     11464     11460
     11455     11454     11457     11458     11455     11454     11457     11459
     11455     11454     11457     11464     11456     11454     11457     11458
     11456     11454     11457     11459     11456     11454     11457     11464
     11457     11464     11460     11461     11457     11464     11460     11462
     11457     11464     11460     11463     11458     11457     11464     11460
     11459     11457     11464     11460     11460     11463     11465     11466
     11460     11463     11465     11467     11460     11463     11465     11468
     11461     11460     11463     11465     11462     11460     11463     11465
     11463     11465     11468     11469     11463     11465     11468     11470
     11463     11465     11468     11476     11464     11460     11463     11465
     11465     11468     11470     11471     11465     11468     11476     11477
     11465     11468     11476     11478     11465     11468     11476     11479
     11466     11465     11468     11469     11466     11465     11468     11470
     11466     11465     11468     11476     11467     11465     11468     11469
     11467     11465     11468     11470     11467     11465     11468     11476
     11468     11470     11471     11472     11468     11470     11471     11473
     11468     11476     11479     11480     11469     11468     11470     11471
     11469     11468     11476     11477     11469     11468     11476     11478
     11469     11468     11476     11479     11470     11468     11476     11477
     11470     11468     11476     11478     11470     11468     11476     11479
     11470     11471     11473     11474     11470     11471     11473     11475
     11470     11471     11473     11485     11471     11470     11468     11476
     11471     11473     11485     11486     11471     11473     11485     11487
     11471     11473     11485     11488     11472     11471     11473     11474
     11472     11471     11473     11475     11472     11471     11473     11485
     11473     11485     11488     11489     11473     11485     11488     11490
     11473     11485     11488     11491     11474     11473     11485     11486
     11474     11473     11485     11487     11474     11473     11485     11488
     11475     11473     11485     11486     11475     11473     11485     11487
     11475     11473     11485     11488     11476     11479     11480     11481
     11476     11479     11480     11482     11477     11476     11479     11480
     11478     11476     11479     11480     11479     11480     11482     11483
     11479     11480     11482     11484     11479     11480     11482     11532
     11480     11482     11532     11533     11480     11482     11532     11534
     11480     11482     11532     11535     11481     11480     11482     11483
     11481     11480     11482     11484     11481     11480     11482     11532
     11482     11532     11535     11536     11482     11532     11535     11537
     11482     11532     11535     11538     11483     11482     11532     11533
     11483     11482     11532     11534     11483     11482     11532     11535
     11484     11482     11532     11533     11484     11482     11532     11534
     11484     11482     11532     11535     11485     11488     11491     11492
     11485     11488     11491     11493     11485     11488     11491     11494
     11486     11485     11488     11489     11486     11485     11488     11490
     11486     11485     11488     11491     11487     11485     11488     11489
     11487     11485     11488     11490     11487     11485     11488     11491
     11488     11491     11494     11495     11488     11491     11494     11496
     11488     11491     11494     11497     11489     11488     11491     11492
     11489     11488     11491     11493     11489     11488     11491     11494
     11490     11488     11491     11492     11490     11488     11491     11493
     11490     11488     11491     11494     11491     11494     11497     11498
     11491     11494     11497     11499     11491     11494     11497     11500
     11492     11491     11494     11495     11492     11491     11494     11496
     11492     11491     11494     11497     11493     11491     11494     11495
     11493     11491     11494     11496     11493     11491     11494     11497
     11494     11497     11500     11501     11494     11497     11500     11502
     11494     11497     11500     11503     11495     11494     11497     11498
     11495     11494     11497     11499     11495     11494     11497     11500
     11496     11494     11497     11498     11496     11494     11497     11499
     11496     11494     11497     11500     11497     11500     11503     11504
     11497     11500     11503     11505     11498     11497     11500     11501
     11498     11497     11500     11502     11498     11497     11500     11503
     11499     11497     11500     11501     11499     11497     11500     11502
     11499     11497     11500     11503     11500     11503     11505     11506
     11500     11503     11505     11507     11501     11500     11503     11504
     11501     11500     11503     11505     11502     11500     11503     11504
     11502     11500     11503     11505     11503     11505     11507     11508
     11503     11505     11507     11509     11503     11505     11507     11510
     11504     11503     11505     11506     11504     11503     11505     11507
     11505     11507     11510     11511     11505     11507     11510     11512
     11505     11507     11510     11513     11506     11505     11507     11508
     11506     11505     11507     11509     11506     11505     11507     11510
     11507     11510     11513     11514     11507     11510     11513     11515
     11507     11510     11513     11516     11508     11507     11510     11511
     11508     11507     11510     11512     11508     11507     11510     11513
     11509     11507     11510     11511     11509     11507     11510     11512
     11509     11507     11510     11513     11510     11513     11516     11517
     11510     11513     11516     11518     11510     11513     11516     11519
     11511     11510     11513     11514     11511     11510     11513     11515
     11511     11510     11513     11516     11512     11510     11513     11514
     11512     11510     11513     11515     11512     11510     11513     11516
     11513     11516     11519     11520     11513     11516     11519     11521
     11513     11516     11519     11522     11514     11513     11516     11517
     11514     11513     11516     11518     11514     11513     11516     11519
     11515     11513     11516     11517     11515     11513     11516     11518
     11515     11513     11516     11519     11516     11519     11522     11523
     11516     11519     11522     11524     11516     11519     11522     11525
     11517     11516     11519     11520     11517     11516     11519     11521
     11517     11516     11519     11522     11518     11516     11519     11520
     11518     11516     11519     11521     11518     11516     11519     11522
     11519     11522     11525     11526     11519     11522     11525     11527
     11519     11522     11525     11528     11520     11519     11522     11523
     11520     11519     11522     11524     11520     11519     11522     11525
     11521     11519     11522     11523     11521     11519     11522     11524
     11521     11519     11522     11525     11522     11525     11528     11529
     11522     11525     11528     11530     11522     11525     11528     11531
     11523     11522     11525     11526     11523     11522     11525     11527
     11523     11522     11525     11528     11524     11522     11525     11526
     11524     11522     11525     11527     11524     11522     11525     11528
     11526     11525     11528     11529     11526     11525     11528     11530
     11526     11525     11528     11531     11527     11525     11528     11529
     11527     11525     11528     11530     11527     11525     11528     11531
     11532     11535     11538     11539     11532     11535     11538     11540
     11532     11535     11538     11541     11533     11532     11535     11536
     11533     11532     11535     11537     11533     11532     11535     11538
     11534     11532     11535     11536     11534     11532     11535     11537
     11534     11532     11535     11538     11535     11538     11541     11542
     11535     11538     11541     11543     11535     11538     11541     11544
     11536     11535     11538     11539     11536     11535     11538     11540
     11536     11535     11538     11541     11537     11535     11538     11539
     11537     11535     11538     11540     11537     11535     11538     11541
     11538     11541     11544     11545     11538     11541     11544     11546
     11538     11541     11544     11547     11539     11538     11541     11542
     11539     11538     11541     11543     11539     11538     11541     11544
     11540     11538     11541     11542     11540     11538     11541     11543
     11540     11538     11541     11544     11541     11544     11547     11548
     11541     11544     11547     11549     11541     11544     11547     11550
     11542     11541     11544     11545     11542     11541     11544     11546
     11542     11541     11544     11547     11543     11541     11544     11545
     11543     11541     11544     11546     11543     11541     11544     11547
     11544     11547     11550     11551     11544     11547     11550     11552
     11544     11547     11550     11553     11545     11544     11547     11548
     11545     11544     11547     11549     11545     11544     11547     11550
     11546     11544     11547     11548     11546     11544     11547     11549
     11546     11544     11547     11550     11547     11550     11553     11554
     11547     11550     11553     11555     11547     11550     11553     11556
     11548     11547     11550     11551     11548     11547     11550     11552
     11548     11547     11550     11553     11549     11547     11550     11551
     11549     11547     11550     11552     11549     11547     11550     11553
     11550     11553     11556     11557     11550     11553     11556     11558
     11550     11553     11556     11559     11551     11550     11553     11554
     11551     11550     11553     11555     11551     11550     11553     11556
     11552     11550     11553     11554     11552     11550     11553     11555
     11552     11550     11553     11556     11553     11556     11559     11560
     11553     11556     11559     11561     11553     11556     11559     11562
     11554     11553     11556     11557     11554     11553     11556     11558
     11554     11553     11556     11559     11555     11553     11556     11557
     11555     11553     11556     11558     11555     11553     11556     11559
     11556     11559     11562     11563     11556     11559     11562     11564
     11556     11559     11562     11565     11557     11556     11559     11560
     11557     11556     11559     11561     11557     11556     11559     11562
     11558     11556     11559     11560     11558     11556     11559     11561
     11558     11556     11559     11562     11559     11562     11565     11566
     11559     11562     11565     11567     11559     11562     11565     11568
     11560     11559     11562     11563     11560     11559     11562     11564
     11560     11559     11562     11565     11561     11559     11562     11563
     11561     11559     11562     11564     11561     11559     11562     11565
     11562     11565     11568     11569     11562     11565     11568     11570
     11562     11565     11568     11571     11563     11562     11565     11566
     11563     11562     11565     11567     11563     11562     11565     11568
     11564     11562     11565     11566     11564     11562     11565     11567
     11564     11562     11565     11568     11565     11568     11571     11572
     11565     11568     11571     11573     11565     11568     11571     11574
     11566     11565     11568     11569     11566     11565     11568     11570
     11566     11565     11568     11571     11567     11565     11568     11569
     11567     11565     11568     11570     11567     11565     11568     11571
     11569     11568     11571     11572     11569     11568     11571     11573
     11569     11568     11571     11574     11570     11568     11571     11572
     11570     11568     11571     11573     11570     11568     11571     11574
     11575     11588     11591     11592     11575     11588     11591     11593
     11575     11588     11591     11598     11576     11575     11580     11581
     11576     11575     11580     11582     11576     11575     11580     11583
     11576     11575     11584     11585     11576     11575     11584     11586
     11576     11575     11584     11587     11576     11575     11588     11589
     11576     11575     11588     11590     11576     11575     11588     11591
     11577     11576     11575     11580     11577     11576     11575     11584
     11577     11576     11575     11588     11578     11576     11575     11580
     11578     11576     11575     11584     11578     11576     11575     11588
     11579     11576     11575     11580     11579     11576     11575     11584
     11579     11576     11575     11588     11580     11575     11584     11585
     11580     11575     11584     11586     11580     11575     11584     11587
     11580     11575     11588     11589     11580     11575     11588     11590
     11580     11575     11588     11591     11581     11580     11575     11584
     11581     11580     11575     11588     11582     11580     11575     11584
     11582     11580     11575     11588     11583     11580     11575     11584
     11583     11580     11575     11588     11584     11575     11588     11589
     11584     11575     11588     11590     11584     11575     11588     11591
     11585     11584     11575     11588     11586     11584     11575     11588
     11587     11584     11575     11588     11588     11591     11598     11594
     11589     11588     11591     11592     11589     11588     11591     11593
     11589     11588     11591     11598     11590     11588     11591     11592
     11590     11588     11591     11593     11590     11588     11591     11598
     11591     11598     11594     11595     11591     11598     11594     11596
     11591     11598     11594     11597     11592     11591     11598     11594
     11593     11591     11598     11594     11594     11597     11599     11600
     11594     11597     11599     11601     11594     11597     11599     11604
     11595     11594     11597     11599     11596     11594     11597     11599
     11597     11599     11604     11602     11597     11599     11604     11605
     11597     11599     11604     11606     11598     11594     11597     11599
     11599     11604     11602     11603     11599     11604     11602     11654
     11599     11604     11606     11607     11599     11604     11606     11608
     11599     11604     11606     11610     11600     11599     11604     11602
     11600     11599     11604     11605     11600     11599     11604     11606
     11601     11599     11604     11602     11601     11599     11604     11605
     11601     11599     11604     11606     11602     11604     11606     11607
     11602     11604     11606     11608     11602     11604     11606     11610
     11602     11654     11656     11657     11602     11654     11656     11658
     11602     11654     11656     11659     11603     11602     11604     11605
     11603     11602     11604     11606     11603     11602     11654     11655
     11603     11602     11654     11656     11604     11602     11654     11655
     11604     11602     11654     11656     11604     11606     11608     11609
     11604     11606     11610     11611     11604     11606     11610     11612
     11605     11604     11602     11654     11605     11604     11606     11607
     11605     11604     11606     11608     11605     11604     11606     11610
     11606     11604     11602     11654     11606     11610     11612     11613
     11606     11610     11612     11614     11607     11606     11608     11609
     11607     11606     11610     11611     11607     11606     11610     11612
     11608     11606     11610     11611     11608     11606     11610     11612
     11609     11608     11606     11610     11610     11612     11614     11615
     11610     11612     11614     11616     11610     11612     11614     11617
     11611     11610     11612     11613     11611     11610     11612     11614
     11612     11614     11617     11618     11612     11614     11617     11619
     11612     11614     11617     11620     11613     11612     11614     11615
     11613     11612     11614     11616     11613     11612     11614     11617
     11614     11617     11620     11621     11614     11617     11620     11622
     11614     11617     11620     11623     11615     11614     11617     11618
     11615     11614     11617     11619     11615     11614     11617     11620
     11616     11614     11617     11618     11616     11614     11617     11619
     11616     11614     11617     11620     11617     11620     11623     11624
     11617     11620     11623     11625     11617     11620     11623     11626
     11618     11617     11620     11621     11618     11617     11620     11622
     11618     11617     11620     11623     11619     11617     11620     11621
     11619     11617     11620     11622     11619     11617     11620     11623
     11620     11623     11626     11627     11620     11623     11626     11628
     11620     11623     11626     11629     11621     11620     11623     11624
     11621     11620     11623     11625     11621     11620     11623     11626
     11622     11620     11623     11624     11622     11620     11623     11625
     11622     11620     11623     11626     11623     11626     11629     11630
     11623     11626     11629     11631     11623     11626     11629     11632
     11624     11623     11626     11627     11624     11623     11626     11628
     11624     11623     11626     11629     11625     11623     11626     11627
     11625     11623     11626     11628     11625     11623     11626     11629
     11626     11629     11632     11633     11626     11629     11632     11634
     11626     11629     11632     11635     11627     11626     11629     11630
     11627     11626     11629     11631     11627     11626     11629     11632
     11628     11626     11629     11630     11628     11626     11629     11631
     11628     11626     11629     11632     11629     11632     11635     11636
     11629     11632     11635     11637     11629     11632     11635     11638
     11630     11629     11632     11633     11630     11629     11632     11634
     11630     11629     11632     11635     11631     11629     11632     11633
     11631     11629     11632     11634     11631     11629     11632     11635
     11632     11635     11638     11639     11632     11635     11638     11640
     11632     11635     11638     11641     11633     11632     11635     11636
     11633     11632     11635     11637     11633     11632     11635     11638
     11634     11632     11635     11636     11634     11632     11635     11637
     11634     11632     11635     11638     11635     11638     11641     11642
     11635     11638     11641     11643     11635     11638     11641     11644
     11636     11635     11638     11639     11636     11635     11638     11640
     11636     11635     11638     11641     11637     11635     11638     11639
     11637     11635     11638     11640     11637     11635     11638     11641
     11638     11641     11644     11645     11638     11641     11644     11646
     11638     11641     11644     11647     11639     11638     11641     11642
     11639     11638     11641     11643     11639     11638     11641     11644
     11640     11638     11641     11642     11640     11638     11641     11643
     11640     11638     11641     11644     11641     11644     11647     11648
     11641     11644     11647     11649     11641     11644     11647     11650
     11642     11641     11644     11645     11642     11641     11644     11646
     11642     11641     11644     11647     11643     11641     11644     11645
     11643     11641     11644     11646     11643     11641     11644     11647
     11644     11647     11650     11651     11644     11647     11650     11652
     11644     11647     11650     11653     11645     11644     11647     11648
     11645     11644     11647     11649     11645     11644     11647     11650
     11646     11644     11647     11648     11646     11644     11647     11649
     11646     11644     11647     11650     11648     11647     11650     11651
     11648     11647     11650     11652     11648     11647     11650     11653
     11649     11647     11650     11651     11649     11647     11650     11652
     11649     11647     11650     11653     11654     11656     11659     11660
     11654     11656     11659     11661     11654     11656     11659     11662
     11655     11654     11656     11657     11655     11654     11656     11658
     11655     11654     11656     11659     11656     11659     11662     11663
     11656     11659     11662     11664     11656     11659     11662     11665
     11657     11656     11659     11660     11657     11656     11659     11661
     11657     11656     11659     11662     11658     11656     11659     11660
     11658     11656     11659     11661     11658     11656     11659     11662
     11659     11662     11665     11666     11659     11662     11665     11667
     11659     11662     11665     11668     11660     11659     11662     11663
     11660     11659     11662     11664     11660     11659     11662     11665
     11661     11659     11662     11663     11661     11659     11662     11664
     11661     11659     11662     11665     11662     11665     11668     11669
     11662     11665     11668     11670     11662     11665     11668     11671
     11663     11662     11665     11666     11663     11662     11665     11667
     11663     11662     11665     11668     11664     11662     11665     11666
     11664     11662     11665     11667     11664     11662     11665     11668
     11665     11668     11671     11672     11665     11668     11671     11673
     11665     11668     11671     11674     11666     11665     11668     11669
     11666     11665     11668     11670     11666     11665     11668     11671
     11667     11665     11668     11669     11667     11665     11668     11670
     11667     11665     11668     11671     11668     11671     11674     11675
     11668     11671     11674     11676     11668     11671     11674     11677
     11669     11668     11671     11672     11669     11668     11671     11673
     11669     11668     11671     11674     11670     11668     11671     11672
     11670     11668     11671     11673     11670     11668     11671     11674
     11671     11674     11677     11678     11671     11674     11677     11679
     11671     11674     11677     11680     11672     11671     11674     11675
     11672     11671     11674     11676     11672     11671     11674     11677
     11673     11671     11674     11675     11673     11671     11674     11676
     11673     11671     11674     11677     11674     11677     11680     11681
     11674     11677     11680     11682     11674     11677     11680     11683
     11675     11674     11677     11678     11675     11674     11677     11679
     11675     11674     11677     11680     11676     11674     11677     11678
     11676     11674     11677     11679     11676     11674     11677     11680
     11677     11680     11683     11684     11677     11680     11683     11685
     11677     11680     11683     11686     11678     11677     11680     11681
     11678     11677     11680     11682     11678     11677     11680     11683
     11679     11677     11680     11681     11679     11677     11680     11682
     11679     11677     11680     11683     11680     11683     11686     11687
     11680     11683     11686     11688     11680     11683     11686     11689
     11681     11680     11683     11684     11681     11680     11683     11685
     11681     11680     11683     11686     11682     11680     11683     11684
     11682     11680     11683     11685     11682     11680     11683     11686
     11683     11686     11689     11690     11683     11686     11689     11691
     11683     11686     11689     11692     11684     11683     11686     11687
     11684     11683     11686     11688     11684     11683     11686     11689
     11685     11683     11686     11687     11685     11683     11686     11688
     11685     11683     11686     11689     11686     11689     11692     11693
     11686     11689     11692     11694     11686     11689     11692     11695
     11687     11686     11689     11690     11687     11686     11689     11691
     11687     11686     11689     11692     11688     11686     11689     11690
     11688     11686     11689     11691     11688     11686     11689     11692
     11689     11692     11695     11696     11689     11692     11695     11697
     11689     11692     11695     11698     11690     11689     11692     11693
     11690     11689     11692     11694     11690     11689     11692     11695
     11691     11689     11692     11693     11691     11689     11692     11694
     11691     11689     11692     11695     11692     11695     11698     11699
     11692     11695     11698     11700     11692     11695     11698     11701
     11693     11692     11695     11696     11693     11692     11695     11697
     11693     11692     11695     11698     11694     11692     11695     11696
     11694     11692     11695     11697     11694     11692     11695     11698
     11696     11695     11698     11699     11696     11695     11698     11700
     11696     11695     11698     11701     11697     11695     11698     11699
     11697     11695     11698     11700     11697     11695     11698     11701
     11702     11703     11718     11719     11702     11703     11718     11720
     11702     11703     11718     11724     11703     11702     11706     11707
     11703     11702     11706     11708     11703     11702     11706     11709
     11703     11702     11710     11711     11703     11702     11710     11712
     11703     11702     11710     11713     11703     11702     11714     11715
     11703     11702     11714     11716     11703     11702     11714     11717
     11703     11718     11724     11721     11704     11703     11702     11706
     11704     11703     11702     11710     11704     11703     11702     11714
     11704     11703     11718     11719     11704     11703     11718     11720
     11704     11703     11718     11724     11705     11703     11702     11706
     11705     11703     11702     11710     11705     11703     11702     11714
     11705     11703     11718     11719     11705     11703     11718     11720
     11705     11703     11718     11724     11706     11702     11703     11718
     11706     11702     11710     11711     11706     11702     11710     11712
     11706     11702     11710     11713     11706     11702     11714     11715
     11706     11702     11714     11716     11706     11702     11714     11717
     11707     11706     11702     11710     11707     11706     11702     11714
     11708     11706     11702     11710     11708     11706     11702     11714
     11709     11706     11702     11710     11709     11706     11702     11714
     11710     11702     11703     11718     11710     11702     11714     11715
     11710     11702     11714     11716     11710     11702     11714     11717
     11711     11710     11702     11714     11712     11710     11702     11714
     11713     11710     11702     11714     11714     11702     11703     11718
     11718     11724     11721     11722     11718     11724     11721     11723
     11718     11724     11721     11725     11719     11718     11724     11721
     11720     11718     11724     11721     11721     11725     11726     11727
     11721     11725     11726     11728     11721     11725     11726     11729
     11722     11721     11725     11726     11723     11721     11725     11726
     11724     11721     11725     11726     11725     11726     11729     11730
     11725     11726     11729     11731     11725     11726     11729     11737
     11726     11729     11731     11732     11726     11729     11737     11738
     11726     11729     11737     11739     11726     11729     11737     11740
     11727     11726     11729     11730     11727     11726     11729     11731
     11727     11726     11729     11737     11728     11726     11729     11730
     11728     11726     11729     11731     11728     11726     11729     11737
     11729     11731     11732     11733     11729     11731     11732     11734
     11729     11737     11740     11741     11730     11729     11731     11732
     11730     11729     11737     11738     11730     11729     11737     11739
     11730     11729     11737     11740     11731     11729     11737     11738
     11731     11729     11737     11739     11731     11729     11737     11740
     11731     11732     11734     11735     11731     11732     11734     11736
     11731     11732     11734     11746     11732     11731     11729     11737
     11732     11734     11746     11747     11732     11734     11746     11748
     11732     11734     11746     11749     11733     11732     11734     11735
     11733     11732     11734     11736     11733     11732     11734     11746
     11734     11746     11749     11750     11734     11746     11749     11751
     11734     11746     11749     11752     11735     11734     11746     11747
     11735     11734     11746     11748     11735     11734     11746     11749
     11736     11734     11746     11747     11736     11734     11746     11748
     11736     11734     11746     11749     11737     11740     11741     11742
     11737     11740     11741     11743     11738     11737     11740     11741
     11739     11737     11740     11741     11740     11741     11743     11744
     11740     11741     11743     11745     11740     11741     11743     11793
     11741     11743     11793     11794     11741     11743     11793     11795
     11741     11743     11793     11796     11742     11741     11743     11744
     11742     11741     11743     11745     11742     11741     11743     11793
     11743     11793     11796     11797     11743     11793     11796     11798
     11743     11793     11796     11799     11744     11743     11793     11794
     11744     11743     11793     11795     11744     11743     11793     11796
     11745     11743     11793     11794     11745     11743     11793     11795
     11745     11743     11793     11796     11746     11749     11752     11753
     11746     11749     11752     11754     11746     11749     11752     11755
     11747     11746     11749     11750     11747     11746     11749     11751
     11747     11746     11749     11752     11748     11746     11749     11750
     11748     11746     11749     11751     11748     11746     11749     11752
     11749     11752     11755     11756     11749     11752     11755     11757
     11749     11752     11755     11758     11750     11749     11752     11753
     11750     11749     11752     11754     11750     11749     11752     11755
     11751     11749     11752     11753     11751     11749     11752     11754
     11751     11749     11752     11755     11752     11755     11758     11759
     11752     11755     11758     11760     11752     11755     11758     11761
     11753     11752     11755     11756     11753     11752     11755     11757
     11753     11752     11755     11758     11754     11752     11755     11756
     11754     11752     11755     11757     11754     11752     11755     11758
     11755     11758     11761     11762     11755     11758     11761     11763
     11755     11758     11761     11764     11756     11755     11758     11759
     11756     11755     11758     11760     11756     11755     11758     11761
     11757     11755     11758     11759     11757     11755     11758     11760
     11757     11755     11758     11761     11758     11761     11764     11765
     11758     11761     11764     11766     11759     11758     11761     11762
     11759     11758     11761     11763     11759     11758     11761     11764
     11760     11758     11761     11762     11760     11758     11761     11763
     11760     11758     11761     11764     11761     11764     11766     11767
     11761     11764     11766     11768     11762     11761     11764     11765
     11762     11761     11764     11766     11763     11761     11764     11765
     11763     11761     11764     11766     11764     11766     11768     11769
     11764     11766     11768     11770     11764     11766     11768     11771
     11765     11764     11766     11767     11765     11764     11766     11768
     11766     11768     11771     11772     11766     11768     11771     11773
     11766     11768     11771     11774     11767     11766     11768     11769
     11767     11766     11768     11770     11767     11766     11768     11771
     11768     11771     11774     11775     11768     11771     11774     11776
     11768     11771     11774     11777     11769     11768     11771     11772
     11769     11768     11771     11773     11769     11768     11771     11774
     11770     11768     11771     11772     11770     11768     11771     11773
     11770     11768     11771     11774     11771     11774     11777     11778
     11771     11774     11777     11779     11771     11774     11777     11780
     11772     11771     11774     11775     11772     11771     11774     11776
     11772     11771     11774     11777     11773     11771     11774     11775
     11773     11771     11774     11776     11773     11771     11774     11777
     11774     11777     11780     11781     11774     11777     11780     11782
     11774     11777     11780     11783     11775     11774     11777     11778
     11775     11774     11777     11779     11775     11774     11777     11780
     11776     11774     11777     11778     11776     11774     11777     11779
     11776     11774     11777     11780     11777     11780     11783     11784
     11777     11780     11783     11785     11777     11780     11783     11786
     11778     11777     11780     11781     11778     11777     11780     11782
     11778     11777     11780     11783     11779     11777     11780     11781
     11779     11777     11780     11782     11779     11777     11780     11783
     11780     11783     11786     11787     11780     11783     11786     11788
     11780     11783     11786     11789     11781     11780     11783     11784
     11781     11780     11783     11785     11781     11780     11783     11786
     11782     11780     11783     11784     11782     11780     11783     11785
     11782     11780     11783     11786     11783     11786     11789     11790
     11783     11786     11789     11791     11783     11786     11789     11792
     11784     11783     11786     11787     11784     11783     11786     11788
     11784     11783     11786     11789     11785     11783     11786     11787
     11785     11783     11786     11788     11785     11783     11786     11789
     11787     11786     11789     11790     11787     11786     11789     11791
     11787     11786     11789     11792     11788     11786     11789     11790
     11788     11786     11789     11791     11788     11786     11789     11792
     11793     11796     11799     11800     11793     11796     11799     11801
     11793     11796     11799     11802     11794     11793     11796     11797
     11794     11793     11796     11798     11794     11793     11796     11799
     11795     11793     11796     11797     11795     11793     11796     11798
     11795     11793     11796     11799     11796     11799     11802     11803
     11796     11799     11802     11804     11796     11799     11802     11805
     11797     11796     11799     11800     11797     11796     11799     11801
     11797     11796     11799     11802     11798     11796     11799     11800
     11798     11796     11799     11801     11798     11796     11799     11802
     11799     11802     11805     11806     11799     11802     11805     11807
     11799     11802     11805     11808     11800     11799     11802     11803
     11800     11799     11802     11804     11800     11799     11802     11805
     11801     11799     11802     11803     11801     11799     11802     11804
     11801     11799     11802     11805     11802     11805     11808     11809
     11802     11805     11808     11810     11802     11805     11808     11811
     11803     11802     11805     11806     11803     11802     11805     11807
     11803     11802     11805     11808     11804     11802     11805     11806
     11804     11802     11805     11807     11804     11802     11805     11808
     11805     11808     11811     11812     11805     11808     11811     11813
     11805     11808     11811     11814     11806     11805     11808     11809
     11806     11805     11808     11810     11806     11805     11808     11811
     11807     11805     11808     11809     11807     11805     11808     11810
     11807     11805     11808     11811     11808     11811     11814     11815
     11808     11811     11814     11816     11808     11811     11814     11817
     11809     11808     11811     11812     11809     11808     11811     11813
     11809     11808     11811     11814     11810     11808     11811     11812
     11810     11808     11811     11813     11810     11808     11811     11814
     11811     11814     11817     11818     11811     11814     11817     11819
     11811     11814     11817     11820     11812     11811     11814     11815
     11812     11811     11814     11816     11812     11811     11814     11817
     11813     11811     11814     11815     11813     11811     11814     11816
     11813     11811     11814     11817     11814     11817     11820     11821
     11814     11817     11820     11822     11814     11817     11820     11823
     11815     11814     11817     11818     11815     11814     11817     11819
     11815     11814     11817     11820     11816     11814     11817     11818
     11816     11814     11817     11819     11816     11814     11817     11820
     11817     11820     11823     11824     11817     11820     11823     11825
     11817     11820     11823     11826     11818     11817     11820     11821
     11818     11817     11820     11822     11818     11817     11820     11823
     11819     11817     11820     11821     11819     11817     11820     11822
     11819     11817     11820     11823     11820     11823     11826     11827
     11820     11823     11826     11828     11820     11823     11826     11829
     11821     11820     11823     11824     11821     11820     11823     11825
     11821     11820     11823     11826     11822     11820     11823     11824
     11822     11820     11823     11825     11822     11820     11823     11826
     11823     11826     11829     11830     11823     11826     11829     11831
     11823     11826     11829     11832     11824     11823     11826     11827
     11824     11823     11826     11828     11824     11823     11826     11829
     11825     11823     11826     11827     11825     11823     11826     11828
     11825     11823     11826     11829     11826     11829     11832     11833
     11826     11829     11832     11834     11826     11829     11832     11835
     11827     11826     11829     11830     11827     11826     11829     11831
     11827     11826     11829     11832     11828     11826     11829     11830
     11828     11826     11829     11831     11828     11826     11829     11832
     11830     11829     11832     11833     11830     11829     11832     11834
     11830     11829     11832     11835     11831     11829     11832     11833
     11831     11829     11832     11834     11831     11829     11832     11835
     11836     11840     11843     11844     11836     11840     11843     11845
     11836     11840     11843     11850     11837     11836     11840     11841
     11837     11836     11840     11842     11837     11836     11840     11843
     11838     11836     11840     11841     11838     11836     11840     11842
     11838     11836     11840     11843     11839     11836     11840     11841
     11839     11836     11840     11842     11839     11836     11840     11843
     11840     11843     11850     11846     11841     11840     11843     11844
     11841     11840     11843     11845     11841     11840     11843     11850
     11842     11840     11843     11844     11842     11840     11843     11845
     11842     11840     11843     11850     11843     11850     11846     11847
     11843     11850     11846     11848     11843     11850     11846     11849
     11844     11843     11850     11846     11845     11843     11850     11846
     11846     11849     11851     11852     11846     11849     11851     11853
     11846     11849     11851     11854     11847     11846     11849     11851
     11848     11846     11849     11851     11849     11851     11854     11855
     11849     11851     11854     11856     11849     11851     11854     11862
     11850     11846     11849     11851     11851     11854     11856     11857
     11851     11854     11862     11863     11851     11854     11862     11864
     11851     11854     11862     11865     11852     11851     11854     11855
     11852     11851     11854     11856     11852     11851     11854     11862
     11853     11851     11854     11855     11853     11851     11854     11856
     11853     11851     11854     11862     11854     11856     11857     11858
     11854     11856     11857     11859     11854     11862     11865     11866
     11855     11854     11856     11857     11855     11854     11862     11863
     11855     11854     11862     11864     11855     11854     11862     11865
     11856     11854     11862     11863     11856     11854     11862     11864
     11856     11854     11862     11865     11856     11857     11859     11860
     11856     11857     11859     11861     11856     11857     11859     11871
     11857     11856     11854     11862     11857     11859     11871     11872
     11857     11859     11871     11873     11857     11859     11871     11874
     11858     11857     11859     11860     11858     11857     11859     11861
     11858     11857     11859     11871     11859     11871     11874     11875
     11859     11871     11874     11876     11859     11871     11874     11877
     11860     11859     11871     11872     11860     11859     11871     11873
     11860     11859     11871     11874     11861     11859     11871     11872
     11861     11859     11871     11873     11861     11859     11871     11874
     11862     11865     11866     11867     11862     11865     11866     11868
     11863     11862     11865     11866     11864     11862     11865     11866
     11865     11866     11868     11869     11865     11866     11868     11870
     11865     11866     11868     11918     11866     11868     11918     11919
     11866     11868     11918     11920     11866     11868     11918     11921
     11867     11866     11868     11869     11867     11866     11868     11870
     11867     11866     11868     11918     11868     11918     11921     11922
     11868     11918     11921     11923     11868     11918     11921     11924
     11869     11868     11918     11919     11869     11868     11918     11920
     11869     11868     11918     11921     11870     11868     11918     11919
     11870     11868     11918     11920     11870     11868     11918     11921
     11871     11874     11877     11878     11871     11874     11877     11879
     11871     11874     11877     11880     11872     11871     11874     11875
     11872     11871     11874     11876     11872     11871     11874     11877
     11873     11871     11874     11875     11873     11871     11874     11876
     11873     11871     11874     11877     11874     11877     11880     11881
     11874     11877     11880     11882     11874     11877     11880     11883
     11875     11874     11877     11878     11875     11874     11877     11879
     11875     11874     11877     11880     11876     11874     11877     11878
     11876     11874     11877     11879     11876     11874     11877     11880
     11877     11880     11883     11884     11877     11880     11883     11885
     11877     11880     11883     11886     11878     11877     11880     11881
     11878     11877     11880     11882     11878     11877     11880     11883
     11879     11877     11880     11881     11879     11877     11880     11882
     11879     11877     11880     11883     11880     11883     11886     11887
     11880     11883     11886     11888     11880     11883     11886     11889
     11881     11880     11883     11884     11881     11880     11883     11885
     11881     11880     11883     11886     11882     11880     11883     11884
     11882     11880     11883     11885     11882     11880     11883     11886
     11883     11886     11889     11890     11883     11886     11889     11891
     11884     11883     11886     11887     11884     11883     11886     11888
     11884     11883     11886     11889     11885     11883     11886     11887
     11885     11883     11886     11888     11885     11883     11886     11889
     11886     11889     11891     11892     11886     11889     11891     11893
     11887     11886     11889     11890     11887     11886     11889     11891
     11888     11886     11889     11890     11888     11886     11889     11891
     11889     11891     11893     11894     11889     11891     11893     11895
     11889     11891     11893     11896     11890     11889     11891     11892
     11890     11889     11891     11893     11891     11893     11896     11897
     11891     11893     11896     11898     11891     11893     11896     11899
     11892     11891     11893     11894     11892     11891     11893     11895
     11892     11891     11893     11896     11893     11896     11899     11900
     11893     11896     11899     11901     11893     11896     11899     11902
     11894     11893     11896     11897     11894     11893     11896     11898
     11894     11893     11896     11899     11895     11893     11896     11897
     11895     11893     11896     11898     11895     11893     11896     11899
     11896     11899     11902     11903     11896     11899     11902     11904
     11896     11899     11902     11905     11897     11896     11899     11900
     11897     11896     11899     11901     11897     11896     11899     11902
     11898     11896     11899     11900     11898     11896     11899     11901
     11898     11896     11899     11902     11899     11902     11905     11906
     11899     11902     11905     11907     11899     11902     11905     11908
     11900     11899     11902     11903     11900     11899     11902     11904
     11900     11899     11902     11905     11901     11899     11902     11903
     11901     11899     11902     11904     11901     11899     11902     11905
     11902     11905     11908     11909     11902     11905     11908     11910
     11902     11905     11908     11911     11903     11902     11905     11906
     11903     11902     11905     11907     11903     11902     11905     11908
     11904     11902     11905     11906     11904     11902     11905     11907
     11904     11902     11905     11908     11905     11908     11911     11912
     11905     11908     11911     11913     11905     11908     11911     11914
     11906     11905     11908     11909     11906     11905     11908     11910
     11906     11905     11908     11911     11907     11905     11908     11909
     11907     11905     11908     11910     11907     11905     11908     11911
     11908     11911     11914     11915     11908     11911     11914     11916
     11908     11911     11914     11917     11909     11908     11911     11912
     11909     11908     11911     11913     11909     11908     11911     11914
     11910     11908     11911     11912     11910     11908     11911     11913
     11910     11908     11911     11914     11912     11911     11914     11915
     11912     11911     11914     11916     11912     11911     11914     11917
     11913     11911     11914     11915     11913     11911     11914     11916
     11913     11911     11914     11917     11918     11921     11924     11925
     11918     11921     11924     11926     11918     11921     11924     11927
     11919     11918     11921     11922     11919     11918     11921     11923
     11919     11918     11921     11924     11920     11918     11921     11922
     11920     11918     11921     11923     11920     11918     11921     11924
     11921     11924     11927     11928     11921     11924     11927     11929
     11921     11924     11927     11930     11922     11921     11924     11925
     11922     11921     11924     11926     11922     11921     11924     11927
     11923     11921     11924     11925     11923     11921     11924     11926
     11923     11921     11924     11927     11924     11927     11930     11931
     11924     11927     11930     11932     11924     11927     11930     11933
     11925     11924     11927     11928     11925     11924     11927     11929
     11925     11924     11927     11930     11926     11924     11927     11928
     11926     11924     11927     11929     11926     11924     11927     11930
     11927     11930     11933     11934     11927     11930     11933     11935
     11927     11930     11933     11936     11928     11927     11930     11931
     11928     11927     11930     11932     11928     11927     11930     11933
     11929     11927     11930     11931     11929     11927     11930     11932
     11929     11927     11930     11933     11930     11933     11936     11937
     11930     11933     11936     11938     11930     11933     11936     11939
     11931     11930     11933     11934     11931     11930     11933     11935
     11931     11930     11933     11936     11932     11930     11933     11934
     11932     11930     11933     11935     11932     11930     11933     11936
     11933     11936     11939     11940     11933     11936     11939     11941
     11933     11936     11939     11942     11934     11933     11936     11937
     11934     11933     11936     11938     11934     11933     11936     11939
     11935     11933     11936     11937     11935     11933     11936     11938
     11935     11933     11936     11939     11936     11939     11942     11943
     11936     11939     11942     11944     11936     11939     11942     11945
     11937     11936     11939     11940     11937     11936     11939     11941
     11937     11936     11939     11942     11938     11936     11939     11940
     11938     11936     11939     11941     11938     11936     11939     11942
     11939     11942     11945     11946     11939     11942     11945     11947
     11939     11942     11945     11948     11940     11939     11942     11943
     11940     11939     11942     11944     11940     11939     11942     11945
     11941     11939     11942     11943     11941     11939     11942     11944
     11941     11939     11942     11945     11942     11945     11948     11949
     11942     11945     11948     11950     11942     11945     11948     11951
     11943     11942     11945     11946     11943     11942     11945     11947
     11943     11942     11945     11948     11944     11942     11945     11946
     11944     11942     11945     11947     11944     11942     11945     11948
     11945     11948     11951     11952     11945     11948     11951     11953
     11945     11948     11951     11954     11946     11945     11948     11949
     11946     11945     11948     11950     11946     11945     11948     11951
     11947     11945     11948     11949     11947     11945     11948     11950
     11947     11945     11948     11951     11948     11951     11954     11955
     11948     11951     11954     11956     11948     11951     11954     11957
     11949     11948     11951     11952     11949     11948     11951     11953
     11949     11948     11951     11954     11950     11948     11951     11952
     11950     11948     11951     11953     11950     11948     11951     11954
     11951     11954     11957     11958     11951     11954     11957     11959
     11951     11954     11957     11960     11952     11951     11954     11955
     11952     11951     11954     11956     11952     11951     11954     11957
     11953     11951     11954     11955     11953     11951     11954     11956
     11953     11951     11954     11957     11955     11954     11957     11958
     11955     11954     11957     11959     11955     11954     11957     11960
     11956     11954     11957     11958     11956     11954     11957     11959
     11956     11954     11957     11960     11961     11962     11977     11978
     11961     11962     11977     11979     11961     11962     11977     11983
     11962     11961     11965     11966     11962     11961     11965     11967
     11962     11961     11965     11968     11962     11961     11969     11970
     11962     11961     11969     11971     11962     11961     11969     11972
     11962     11961     11973     11974     11962     11961     11973     11975
     11962     11961     11973     11976     11962     11977     11983     11980
     11963     11962     11961     11965     11963     11962     11961     11969
     11963     11962     11961     11973     11963     11962     11977     11978
     11963     11962     11977     11979     11963     11962     11977     11983
     11964     11962     11961     11965     11964     11962     11961     11969
     11964     11962     11961     11973     11964     11962     11977     11978
     11964     11962     11977     11979     11964     11962     11977     11983
     11965     11961     11962     11977     11965     11961     11969     11970
     11965     11961     11969     11971     11965     11961     11969     11972
     11965     11961     11973     11974     11965     11961     11973     11975
     11965     11961     11973     11976     11966     11965     11961     11969
     11966     11965     11961     11973     11967     11965     11961     11969
     11967     11965     11961     11973     11968     11965     11961     11969
     11968     11965     11961     11973     11969     11961     11962     11977
     11969     11961     11973     11974     11969     11961     11973     11975
     11969     11961     11973     11976     11970     11969     11961     11973
     11971     11969     11961     11973     11972     11969     11961     11973
     11973     11961     11962     11977     11977     11983     11980     11981
     11977     11983     11980     11982     11977     11983     11980     11984
     11978     11977     11983     11980     11979     11977     11983     11980
     11980     11984     11985     11986     11980     11984     11985     11987
     11980     11984     11985     11988     11981     11980     11984     11985
     11982     11980     11984     11985     11983     11980     11984     11985
     11984     11985     11988     11989     11984     11985     11988     11990
     11984     11985     11988     11996     11985     11988     11990     11991
     11985     11988     11996     11997     11985     11988     11996     11998
     11985     11988     11996     11999     11986     11985     11988     11989
     11986     11985     11988     11990     11986     11985     11988     11996
     11987     11985     11988     11989     11987     11985     11988     11990
     11987     11985     11988     11996     11988     11990     11991     11992
     11988     11990     11991     11993     11988     11996     11999     12000
     11989     11988     11990     11991     11989     11988     11996     11997
     11989     11988     11996     11998     11989     11988     11996     11999
     11990     11988     11996     11997     11990     11988     11996     11998
     11990     11988     11996     11999     11990     11991     11993     11994
     11990     11991     11993     11995     11990     11991     11993     12005
     11991     11990     11988     11996     11991     11993     12005     12006
     11991     11993     12005     12007     11991     11993     12005     12008
     11992     11991     11993     11994     11992     11991     11993     11995
     11992     11991     11993     12005     11993     12005     12008     12009
     11993     12005     12008     12010     11993     12005     12008     12011
     11994     11993     12005     12006     11994     11993     12005     12007
     11994     11993     12005     12008     11995     11993     12005     12006
     11995     11993     12005     12007     11995     11993     12005     12008
     11996     11999     12000     12001     11996     11999     12000     12002
     11997     11996     11999     12000     11998     11996     11999     12000
     11999     12000     12002     12003     11999     12000     12002     12004
     11999     12000     12002     12052     12000     12002     12052     12053
     12000     12002     12052     12054     12000     12002     12052     12055
     12001     12000     12002     12003     12001     12000     12002     12004
     12001     12000     12002     12052     12002     12052     12055     12056
     12002     12052     12055     12057     12002     12052     12055     12058
     12003     12002     12052     12053     12003     12002     12052     12054
     12003     12002     12052     12055     12004     12002     12052     12053
     12004     12002     12052     12054     12004     12002     12052     12055
     12005     12008     12011     12012     12005     12008     12011     12013
     12005     12008     12011     12014     12006     12005     12008     12009
     12006     12005     12008     12010     12006     12005     12008     12011
     12007     12005     12008     12009     12007     12005     12008     12010
     12007     12005     12008     12011     12008     12011     12014     12015
     12008     12011     12014     12016     12008     12011     12014     12017
     12009     12008     12011     12012     12009     12008     12011     12013
     12009     12008     12011     12014     12010     12008     12011     12012
     12010     12008     12011     12013     12010     12008     12011     12014
     12011     12014     12017     12018     12011     12014     12017     12019
     12011     12014     12017     12020     12012     12011     12014     12015
     12012     12011     12014     12016     12012     12011     12014     12017
     12013     12011     12014     12015     12013     12011     12014     12016
     12013     12011     12014     12017     12014     12017     12020     12021
     12014     12017     12020     12022     12014     12017     12020     12023
     12015     12014     12017     12018     12015     12014     12017     12019
     12015     12014     12017     12020     12016     12014     12017     12018
     12016     12014     12017     12019     12016     12014     12017     12020
     12017     12020     12023     12024     12017     12020     12023     12025
     12018     12017     12020     12021     12018     12017     12020     12022
     12018     12017     12020     12023     12019     12017     12020     12021
     12019     12017     12020     12022     12019     12017     12020     12023
     12020     12023     12025     12026     12020     12023     12025     12027
     12021     12020     12023     12024     12021     12020     12023     12025
     12022     12020     12023     12024     12022     12020     12023     12025
     12023     12025     12027     12028     12023     12025     12027     12029
     12023     12025     12027     12030     12024     12023     12025     12026
     12024     12023     12025     12027     12025     12027     12030     12031
     12025     12027     12030     12032     12025     12027     12030     12033
     12026     12025     12027     12028     12026     12025     12027     12029
     12026     12025     12027     12030     12027     12030     12033     12034
     12027     12030     12033     12035     12027     12030     12033     12036
     12028     12027     12030     12031     12028     12027     12030     12032
     12028     12027     12030     12033     12029     12027     12030     12031
     12029     12027     12030     12032     12029     12027     12030     12033
     12030     12033     12036     12037     12030     12033     12036     12038
     12030     12033     12036     12039     12031     12030     12033     12034
     12031     12030     12033     12035     12031     12030     12033     12036
     12032     12030     12033     12034     12032     12030     12033     12035
     12032     12030     12033     12036     12033     12036     12039     12040
     12033     12036     12039     12041     12033     12036     12039     12042
     12034     12033     12036     12037     12034     12033     12036     12038
     12034     12033     12036     12039     12035     12033     12036     12037
     12035     12033     12036     12038     12035     12033     12036     12039
     12036     12039     12042     12043     12036     12039     12042     12044
     12036     12039     12042     12045     12037     12036     12039     12040
     12037     12036     12039     12041     12037     12036     12039     12042
     12038     12036     12039     12040     12038     12036     12039     12041
     12038     12036     12039     12042     12039     12042     12045     12046
     12039     12042     12045     12047     12039     12042     12045     12048
     12040     12039     12042     12043     12040     12039     12042     12044
     12040     12039     12042     12045     12041     12039     12042     12043
     12041     12039     12042     12044     12041     12039     12042     12045
     12042     12045     12048     12049     12042     12045     12048     12050
     12042     12045     12048     12051     12043     12042     12045     12046
     12043     12042     12045     12047     12043     12042     12045     12048
     12044     12042     12045     12046     12044     12042     12045     12047
     12044     12042     12045     12048     12046     12045     12048     12049
     12046     12045     12048     12050     12046     12045     12048     12051
     12047     12045     12048     12049     12047     12045     12048     12050
     12047     12045     12048     12051     12052     12055     12058     12059
     12052     12055     12058     12060     12052     12055     12058     12061
     12053     12052     12055     12056     12053     12052     12055     12057
     12053     12052     12055     12058     12054     12052     12055     12056
     12054     12052     12055     12057     12054     12052     12055     12058
     12055     12058     12061     12062     12055     12058     12061     12063
     12055     12058     12061     12064     12056     12055     12058     12059
     12056     12055     12058     12060     12056     12055     12058     12061
     12057     12055     12058     12059     12057     12055     12058     12060
     12057     12055     12058     12061     12058     12061     12064     12065
     12058     12061     12064     12066     12058     12061     12064     12067
     12059     12058     12061     12062     12059     12058     12061     12063
     12059     12058     12061     12064     12060     12058     12061     12062
     12060     12058     12061     12063     12060     12058     12061     12064
     12061     12064     12067     12068     12061     12064     12067     12069
     12061     12064     12067     12070     12062     12061     12064     12065
     12062     12061     12064     12066     12062     12061     12064     12067
     12063     12061     12064     12065     12063     12061     12064     12066
     12063     12061     12064     12067     12064     12067     12070     12071
     12064     12067     12070     12072     12064     12067     12070     12073
     12065     12064     12067     12068     12065     12064     12067     12069
     12065     12064     12067     12070     12066     12064     12067     12068
     12066     12064     12067     12069     12066     12064     12067     12070
     12067     12070     12073     12074     12067     12070     12073     12075
     12067     12070     12073     12076     12068     12067     12070     12071
     12068     12067     12070     12072     12068     12067     12070     12073
     12069     12067     12070     12071     12069     12067     12070     12072
     12069     12067     12070     12073     12070     12073     12076     12077
     12070     12073     12076     12078     12070     12073     12076     12079
     12071     12070     12073     12074     12071     12070     12073     12075
     12071     12070     12073     12076     12072     12070     12073     12074
     12072     12070     12073     12075     12072     12070     12073     12076
     12073     12076     12079     12080     12073     12076     12079     12081
     12073     12076     12079     12082     12074     12073     12076     12077
     12074     12073     12076     12078     12074     12073     12076     12079
     12075     12073     12076     12077     12075     12073     12076     12078
     12075     12073     12076     12079     12076     12079     12082     12083
     12076     12079     12082     12084     12076     12079     12082     12085
     12077     12076     12079     12080     12077     12076     12079     12081
     12077     12076     12079     12082     12078     12076     12079     12080
     12078     12076     12079     12081     12078     12076     12079     12082
     12079     12082     12085     12086     12079     12082     12085     12087
     12079     12082     12085     12088     12080     12079     12082     12083
     12080     12079     12082     12084     12080     12079     12082     12085
     12081     12079     12082     12083     12081     12079     12082     12084
     12081     12079     12082     12085     12082     12085     12088     12089
     12082     12085     12088     12090     12082     12085     12088     12091
     12083     12082     12085     12086     12083     12082     12085     12087
     12083     12082     12085     12088     12084     12082     12085     12086
     12084     12082     12085     12087     12084     12082     12085     12088
     12085     12088     12091     12092     12085     12088     12091     12093
     12085     12088     12091     12094     12086     12085     12088     12089
     12086     12085     12088     12090     12086     12085     12088     12091
     12087     12085     12088     12089     12087     12085     12088     12090
     12087     12085     12088     12091     12089     12088     12091     12092
     12089     12088     12091     12093     12089     12088     12091     12094
     12090     12088     12091     12092     12090     12088     12091     12093
     12090     12088     12091     12094     12095     12108     12111     12112
     12095     12108     12111     12113     12095     12108     12111     12118
     12096     12095     12100     12101     12096     12095     12100     12102
     12096     12095     12100     12103     12096     12095     12104     12105
     12096     12095     12104     12106     12096     12095     12104     12107
     12096     12095     12108     12109     12096     12095     12108     12110
     12096     12095     12108     12111     12097     12096     12095     12100
     12097     12096     12095     12104     12097     12096     12095     12108
     12098     12096     12095     12100     12098     12096     12095     12104
     12098     12096     12095     12108     12099     12096     12095     12100
     12099     12096     12095     12104     12099     12096     12095     12108
     12100     12095     12104     12105     12100     12095     12104     12106
     12100     12095     12104     12107     12100     12095     12108     12109
     12100     12095     12108     12110     12100     12095     12108     12111
     12101     12100     12095     12104     12101     12100     12095     12108
     12102     12100     12095     12104     12102     12100     12095     12108
     12103     12100     12095     12104     12103     12100     12095     12108
     12104     12095     12108     12109     12104     12095     12108     12110
     12104     12095     12108     12111     12105     12104     12095     12108
     12106     12104     12095     12108     12107     12104     12095     12108
     12108     12111     12118     12114     12109     12108     12111     12112
     12109     12108     12111     12113     12109     12108     12111     12118
     12110     12108     12111     12112     12110     12108     12111     12113
     12110     12108     12111     12118     12111     12118     12114     12115
     12111     12118     12114     12116     12111     12118     12114     12117
     12112     12111     12118     12114     12113     12111     12118     12114
     12114     12117     12119     12120     12114     12117     12119     12121
     12114     12117     12119     12124     12115     12114     12117     12119
     12116     12114     12117     12119     12117     12119     12124     12122
     12117     12119     12124     12125     12117     12119     12124     12126
     12118     12114     12117     12119     12119     12124     12122     12123
     12119     12124     12122     12174     12119     12124     12126     12127
     12119     12124     12126     12128     12119     12124     12126     12130
     12120     12119     12124     12122     12120     12119     12124     12125
     12120     12119     12124     12126     12121     12119     12124     12122
     12121     12119     12124     12125     12121     12119     12124     12126
     12122     12124     12126     12127     12122     12124     12126     12128
     12122     12124     12126     12130     12122     12174     12176     12177
     12122     12174     12176     12178     12122     12174     12176     12179
     12123     12122     12124     12125     12123     12122     12124     12126
     12123     12122     12174     12175     12123     12122     12174     12176
     12124     12122     12174     12175     12124     12122     12174     12176
     12124     12126     12128     12129     12124     12126     12130     12131
     12124     12126     12130     12132     12125     12124     12122     12174
     12125     12124     12126     12127     12125     12124     12126     12128
     12125     12124     12126     12130     12126     12124     12122     12174
     12126     12130     12132     12133     12126     12130     12132     12134
     12127     12126     12128     12129     12127     12126     12130     12131
     12127     12126     12130     12132     12128     12126     12130     12131
     12128     12126     12130     12132     12129     12128     12126     12130
     12130     12132     12134     12135     12130     12132     12134     12136
     12130     12132     12134     12137     12131     12130     12132     12133
     12131     12130     12132     12134     12132     12134     12137     12138
     12132     12134     12137     12139     12132     12134     12137     12140
     12133     12132     12134     12135     12133     12132     12134     12136
     12133     12132     12134     12137     12134     12137     12140     12141
     12134     12137     12140     12142     12134     12137     12140     12143
     12135     12134     12137     12138     12135     12134     12137     12139
     12135     12134     12137     12140     12136     12134     12137     12138
     12136     12134     12137     12139     12136     12134     12137     12140
     12137     12140     12143     12144     12137     12140     12143     12145
     12137     12140     12143     12146     12138     12137     12140     12141
     12138     12137     12140     12142     12138     12137     12140     12143
     12139     12137     12140     12141     12139     12137     12140     12142
     12139     12137     12140     12143     12140     12143     12146     12147
     12140     12143     12146     12148     12140     12143     12146     12149
     12141     12140     12143     12144     12141     12140     12143     12145
     12141     12140     12143     12146     12142     12140     12143     12144
     12142     12140     12143     12145     12142     12140     12143     12146
     12143     12146     12149     12150     12143     12146     12149     12151
     12143     12146     12149     12152     12144     12143     12146     12147
     12144     12143     12146     12148     12144     12143     12146     12149
     12145     12143     12146     12147     12145     12143     12146     12148
     12145     12143     12146     12149     12146     12149     12152     12153
     12146     12149     12152     12154     12146     12149     12152     12155
     12147     12146     12149     12150     12147     12146     12149     12151
     12147     12146     12149     12152     12148     12146     12149     12150
     12148     12146     12149     12151     12148     12146     12149     12152
     12149     12152     12155     12156     12149     12152     12155     12157
     12149     12152     12155     12158     12150     12149     12152     12153
     12150     12149     12152     12154     12150     12149     12152     12155
     12151     12149     12152     12153     12151     12149     12152     12154
     12151     12149     12152     12155     12152     12155     12158     12159
     12152     12155     12158     12160     12152     12155     12158     12161
     12153     12152     12155     12156     12153     12152     12155     12157
     12153     12152     12155     12158     12154     12152     12155     12156
     12154     12152     12155     12157     12154     12152     12155     12158
     12155     12158     12161     12162     12155     12158     12161     12163
     12155     12158     12161     12164     12156     12155     12158     12159
     12156     12155     12158     12160     12156     12155     12158     12161
     12157     12155     12158     12159     12157     12155     12158     12160
     12157     12155     12158     12161     12158     12161     12164     12165
     12158     12161     12164     12166     12158     12161     12164     12167
     12159     12158     12161     12162     12159     12158     12161     12163
     12159     12158     12161     12164     12160     12158     12161     12162
     12160     12158     12161     12163     12160     12158     12161     12164
     12161     12164     12167     12168     12161     12164     12167     12169
     12161     12164     12167     12170     12162     12161     12164     12165
     12162     12161     12164     12166     12162     12161     12164     12167
     12163     12161     12164     12165     12163     12161     12164     12166
     12163     12161     12164     12167     12164     12167     12170     12171
     12164     12167     12170     12172     12164     12167     12170     12173
     12165     12164     12167     12168     12165     12164     12167     12169
     12165     12164     12167     12170     12166     12164     12167     12168
     12166     12164     12167     12169     12166     12164     12167     12170
     12168     12167     12170     12171     12168     12167     12170     12172
     12168     12167     12170     12173     12169     12167     12170     12171
     12169     12167     12170     12172     12169     12167     12170     12173
     12174     12176     12179     12180     12174     12176     12179     12181
     12174     12176     12179     12182     12175     12174     12176     12177
     12175     12174     12176     12178     12175     12174     12176     12179
     12176     12179     12182     12183     12176     12179     12182     12184
     12176     12179     12182     12185     12177     12176     12179     12180
     12177     12176     12179     12181     12177     12176     12179     12182
     12178     12176     12179     12180     12178     12176     12179     12181
     12178     12176     12179     12182     12179     12182     12185     12186
     12179     12182     12185     12187     12179     12182     12185     12188
     12180     12179     12182     12183     12180     12179     12182     12184
     12180     12179     12182     12185     12181     12179     12182     12183
     12181     12179     12182     12184     12181     12179     12182     12185
     12182     12185     12188     12189     12182     12185     12188     12190
     12182     12185     12188     12191     12183     12182     12185     12186
     12183     12182     12185     12187     12183     12182     12185     12188
     12184     12182     12185     12186     12184     12182     12185     12187
     12184     12182     12185     12188     12185     12188     12191     12192
     12185     12188     12191     12193     12185     12188     12191     12194
     12186     12185     12188     12189     12186     12185     12188     12190
     12186     12185     12188     12191     12187     12185     12188     12189
     12187     12185     12188     12190     12187     12185     12188     12191
     12188     12191     12194     12195     12188     12191     12194     12196
     12188     12191     12194     12197     12189     12188     12191     12192
     12189     12188     12191     12193     12189     12188     12191     12194
     12190     12188     12191     12192     12190     12188     12191     12193
     12190     12188     12191     12194     12191     12194     12197     12198
     12191     12194     12197     12199     12191     12194     12197     12200
     12192     12191     12194     12195     12192     12191     12194     12196
     12192     12191     12194     12197     12193     12191     12194     12195
     12193     12191     12194     12196     12193     12191     12194     12197
     12194     12197     12200     12201     12194     12197     12200     12202
     12194     12197     12200     12203     12195     12194     12197     12198
     12195     12194     12197     12199     12195     12194     12197     12200
     12196     12194     12197     12198     12196     12194     12197     12199
     12196     12194     12197     12200     12197     12200     12203     12204
     12197     12200     12203     12205     12197     12200     12203     12206
     12198     12197     12200     12201     12198     12197     12200     12202
     12198     12197     12200     12203     12199     12197     12200     12201
     12199     12197     12200     12202     12199     12197     12200     12203
     12200     12203     12206     12207     12200     12203     12206     12208
     12200     12203     12206     12209     12201     12200     12203     12204
     12201     12200     12203     12205     12201     12200     12203     12206
     12202     12200     12203     12204     12202     12200     12203     12205
     12202     12200     12203     12206     12203     12206     12209     12210
     12203     12206     12209     12211     12203     12206     12209     12212
     12204     12203     12206     12207     12204     12203     12206     12208
     12204     12203     12206     12209     12205     12203     12206     12207
     12205     12203     12206     12208     12205     12203     12206     12209
     12206     12209     12212     12213     12206     12209     12212     12214
     12206     12209     12212     12215     12207     12206     12209     12210
     12207     12206     12209     12211     12207     12206     12209     12212
     12208     12206     12209     12210     12208     12206     12209     12211
     12208     12206     12209     12212     12209     12212     12215     12216
     12209     12212     12215     12217     12209     12212     12215     12218
     12210     12209     12212     12213     12210     12209     12212     12214
     12210     12209     12212     12215     12211     12209     12212     12213
     12211     12209     12212     12214     12211     12209     12212     12215
     12212     12215     12218     12219     12212     12215     12218     12220
     12212     12215     12218     12221     12213     12212     12215     12216
     12213     12212     12215     12217     12213     12212     12215     12218
     12214     12212     12215     12216     12214     12212     12215     12217
     12214     12212     12215     12218     12216     12215     12218     12219
     12216     12215     12218     12220     12216     12215     12218     12221
     12217     12215     12218     12219     12217     12215     12218     12220
     12217     12215     12218     12221     12222     12223     12238     12239
     12222     12223     12238     12240     12222     12223     12238     12244
     12223     12222     12226     12227     12223     12222     12226     12228
     12223     12222     12226     12229     12223     12222     12230     12231
     12223     12222     12230     12232     12223     12222     12230     12233
     12223     12222     12234     12235     12223     12222     12234     12236
     12223     12222     12234     12237     12223     12238     12244     12241
     12224     12223     12222     12226     12224     12223     12222     12230
     12224     12223     12222     12234     12224     12223     12238     12239
     12224     12223     12238     12240     12224     12223     12238     12244
     12225     12223     12222     12226     12225     12223     12222     12230
     12225     12223     12222     12234     12225     12223     12238     12239
     12225     12223     12238     12240     12225     12223     12238     12244
     12226     12222     12223     12238     12226     12222     12230     12231
     12226     12222     12230     12232     12226     12222     12230     12233
     12226     12222     12234     12235     12226     12222     12234     12236
     12226     12222     12234     12237     12227     12226     12222     12230
     12227     12226     12222     12234     12228     12226     12222     12230
     12228     12226     12222     12234     12229     12226     12222     12230
     12229     12226     12222     12234     12230     12222     12223     12238
     12230     12222     12234     12235     12230     12222     12234     12236
     12230     12222     12234     12237     12231     12230     12222     12234
     12232     12230     12222     12234     12233     12230     12222     12234
     12234     12222     12223     12238     12238     12244     12241     12242
     12238     12244     12241     12243     12238     12244     12241     12245
     12239     12238     12244     12241     12240     12238     12244     12241
     12241     12245     12246     12247     12241     12245     12246     12248
     12241     12245     12246     12249     12242     12241     12245     12246
     12243     12241     12245     12246     12244     12241     12245     12246
     12245     12246     12249     12250     12245     12246     12249     12251
     12245     12246     12249     12257     12246     12249     12251     12252
     12246     12249     12257     12258     12246     12249     12257     12259
     12246     12249     12257     12260     12247     12246     12249     12250
     12247     12246     12249     12251     12247     12246     12249     12257
     12248     12246     12249     12250     12248     12246     12249     12251
     12248     12246     12249     12257     12249     12251     12252     12253
     12249     12251     12252     12254     12249     12257     12260     12261
     12250     12249     12251     12252     12250     12249     12257     12258
     12250     12249     12257     12259     12250     12249     12257     12260
     12251     12249     12257     12258     12251     12249     12257     12259
     12251     12249     12257     12260     12251     12252     12254     12255
     12251     12252     12254     12256     12251     12252     12254     12266
     12252     12251     12249     12257     12252     12254     12266     12267
     12252     12254     12266     12268     12252     12254     12266     12269
     12253     12252     12254     12255     12253     12252     12254     12256
     12253     12252     12254     12266     12254     12266     12269     12270
     12254     12266     12269     12271     12254     12266     12269     12272
     12255     12254     12266     12267     12255     12254     12266     12268
     12255     12254     12266     12269     12256     12254     12266     12267
     12256     12254     12266     12268     12256     12254     12266     12269
     12257     12260     12261     12262     12257     12260     12261     12263
     12258     12257     12260     12261     12259     12257     12260     12261
     12260     12261     12263     12264     12260     12261     12263     12265
     12260     12261     12263     12313     12261     12263     12313     12314
     12261     12263     12313     12315     12261     12263     12313     12316
     12262     12261     12263     12264     12262     12261     12263     12265
     12262     12261     12263     12313     12263     12313     12316     12317
     12263     12313     12316     12318     12263     12313     12316     12319
     12264     12263     12313     12314     12264     12263     12313     12315
     12264     12263     12313     12316     12265     12263     12313     12314
     12265     12263     12313     12315     12265     12263     12313     12316
     12266     12269     12272     12273     12266     12269     12272     12274
     12266     12269     12272     12275     12267     12266     12269     12270
     12267     12266     12269     12271     12267     12266     12269     12272
     12268     12266     12269     12270     12268     12266     12269     12271
     12268     12266     12269     12272     12269     12272     12275     12276
     12269     12272     12275     12277     12269     12272     12275     12278
     12270     12269     12272     12273     12270     12269     12272     12274
     12270     12269     12272     12275     12271     12269     12272     12273
     12271     12269     12272     12274     12271     12269     12272     12275
     12272     12275     12278     12279     12272     12275     12278     12280
     12272     12275     12278     12281     12273     12272     12275     12276
     12273     12272     12275     12277     12273     12272     12275     12278
     12274     12272     12275     12276     12274     12272     12275     12277
     12274     12272     12275     12278     12275     12278     12281     12282
     12275     12278     12281     12283     12275     12278     12281     12284
     12276     12275     12278     12279     12276     12275     12278     12280
     12276     12275     12278     12281     12277     12275     12278     12279
     12277     12275     12278     12280     12277     12275     12278     12281
     12278     12281     12284     12285     12278     12281     12284     12286
     12279     12278     12281     12282     12279     12278     12281     12283
     12279     12278     12281     12284     12280     12278     12281     12282
     12280     12278     12281     12283     12280     12278     12281     12284
     12281     12284     12286     12287     12281     12284     12286     12288
     12282     12281     12284     12285     12282     12281     12284     12286
     12283     12281     12284     12285     12283     12281     12284     12286
     12284     12286     12288     12289     12284     12286     12288     12290
     12284     12286     12288     12291     12285     12284     12286     12287
     12285     12284     12286     12288     12286     12288     12291     12292
     12286     12288     12291     12293     12286     12288     12291     12294
     12287     12286     12288     12289     12287     12286     12288     12290
     12287     12286     12288     12291     12288     12291     12294     12295
     12288     12291     12294     12296     12288     12291     12294     12297
     12289     12288     12291     12292     12289     12288     12291     12293
     12289     12288     12291     12294     12290     12288     12291     12292
     12290     12288     12291     12293     12290     12288     12291     12294
     12291     12294     12297     12298     12291     12294     12297     12299
     12291     12294     12297     12300     12292     12291     12294     12295
     12292     12291     12294     12296     12292     12291     12294     12297
     12293     12291     12294     12295     12293     12291     12294     12296
     12293     12291     12294     12297     12294     12297     12300     12301
     12294     12297     12300     12302     12294     12297     12300     12303
     12295     12294     12297     12298     12295     12294     12297     12299
     12295     12294     12297     12300     12296     12294     12297     12298
     12296     12294     12297     12299     12296     12294     12297     12300
     12297     12300     12303     12304     12297     12300     12303     12305
     12297     12300     12303     12306     12298     12297     12300     12301
     12298     12297     12300     12302     12298     12297     12300     12303
     12299     12297     12300     12301     12299     12297     12300     12302
     12299     12297     12300     12303     12300     12303     12306     12307
     12300     12303     12306     12308     12300     12303     12306     12309
     12301     12300     12303     12304     12301     12300     12303     12305
     12301     12300     12303     12306     12302     12300     12303     12304
     12302     12300     12303     12305     12302     12300     12303     12306
     12303     12306     12309     12310     12303     12306     12309     12311
     12303     12306     12309     12312     12304     12303     12306     12307
     12304     12303     12306     12308     12304     12303     12306     12309
     12305     12303     12306     12307     12305     12303     12306     12308
     12305     12303     12306     12309     12307     12306     12309     12310
     12307     12306     12309     12311     12307     12306     12309     12312
     12308     12306     12309     12310     12308     12306     12309     12311
     12308     12306     12309     12312     12313     12316     12319     12320
     12313     12316     12319     12321     12313     12316     12319     12322
     12314     12313     12316     12317     12314     12313     12316     12318
     12314     12313     12316     12319     12315     12313     12316     12317
     12315     12313     12316     12318     12315     12313     12316     12319
     12316     12319     12322     12323     12316     12319     12322     12324
     12316     12319     12322     12325     12317     12316     12319     12320
     12317     12316     12319     12321     12317     12316     12319     12322
     12318     12316     12319     12320     12318     12316     12319     12321
     12318     12316     12319     12322     12319     12322     12325     12326
     12319     12322     12325     12327     12319     12322     12325     12328
     12320     12319     12322     12323     12320     12319     12322     12324
     12320     12319     12322     12325     12321     12319     12322     12323
     12321     12319     12322     12324     12321     12319     12322     12325
     12322     12325     12328     12329     12322     12325     12328     12330
     12322     12325     12328     12331     12323     12322     12325     12326
     12323     12322     12325     12327     12323     12322     12325     12328
     12324     12322     12325     12326     12324     12322     12325     12327
     12324     12322     12325     12328     12325     12328     12331     12332
     12325     12328     12331     12333     12325     12328     12331     12334
     12326     12325     12328     12329     12326     12325     12328     12330
     12326     12325     12328     12331     12327     12325     12328     12329
     12327     12325     12328     12330     12327     12325     12328     12331
     12328     12331     12334     12335     12328     12331     12334     12336
     12328     12331     12334     12337     12329     12328     12331     12332
     12329     12328     12331     12333     12329     12328     12331     12334
     12330     12328     12331     12332     12330     12328     12331     12333
     12330     12328     12331     12334     12331     12334     12337     12338
     12331     12334     12337     12339     12331     12334     12337     12340
     12332     12331     12334     12335     12332     12331     12334     12336
     12332     12331     12334     12337     12333     12331     12334     12335
     12333     12331     12334     12336     12333     12331     12334     12337
     12334     12337     12340     12341     12334     12337     12340     12342
     12334     12337     12340     12343     12335     12334     12337     12338
     12335     12334     12337     12339     12335     12334     12337     12340
     12336     12334     12337     12338     12336     12334     12337     12339
     12336     12334     12337     12340     12337     12340     12343     12344
     12337     12340     12343     12345     12337     12340     12343     12346
     12338     12337     12340     12341     12338     12337     12340     12342
     12338     12337     12340     12343     12339     12337     12340     12341
     12339     12337     12340     12342     12339     12337     12340     12343
     12340     12343     12346     12347     12340     12343     12346     12348
     12340     12343     12346     12349     12341     12340     12343     12344
     12341     12340     12343     12345     12341     12340     12343     12346
     12342     12340     12343     12344     12342     12340     12343     12345
     12342     12340     12343     12346     12343     12346     12349     12350
     12343     12346     12349     12351     12343     12346     12349     12352
     12344     12343     12346     12347     12344     12343     12346     12348
     12344     12343     12346     12349     12345     12343     12346     12347
     12345     12343     12346     12348     12345     12343     12346     12349
     12346     12349     12352     12353     12346     12349     12352     12354
     12346     12349     12352     12355     12347     12346     12349     12350
     12347     12346     12349     12351     12347     12346     12349     12352
     12348     12346     12349     12350     12348     12346     12349     12351
     12348     12346     12349     12352     12350     12349     12352     12353
     12350     12349     12352     12354     12350     12349     12352     12355
     12351     12349     12352     12353     12351     12349     12352     12354
     12351     12349     12352     12355     12356     12360     12362     12363
     12356     12360     12362     12364     12356     12360     12365     12366
     12356     12360     12365     12367     12356     12360     12365     12371
     12357     12356     12360     12361     12357     12356     12360     12362
     12357     12356     12360     12365     12358     12356     12360     12361
     12358     12356     12360     12362     12358     12356     12360     12365
     12359     12356     12360     12361     12359     12356     12360     12362
     12359     12356     12360     12365     12360     12365     12371     12368
     12361     12360     12362     12363     12361     12360     12362     12364
     12361     12360     12365     12366     12361     12360     12365     12367
     12361     12360     12365     12371     12362     12360     12365     12366
     12362     12360     12365     12367     12362     12360     12365     12371
     12363     12362     12360     12365     12364     12362     12360     12365
     12365     12371     12368     12369     12365     12371     12368     12370
     12365     12371     12368     12372     12366     12365     12371     12368
     12367     12365     12371     12368     12368     12372     12373     12374
     12368     12372     12373     12375     12368     12372     12373     12376
     12369     12368     12372     12373     12370     12368     12372     12373
     12371     12368     12372     12373     12372     12373     12376     12377
     12372     12373     12376     12378     12372     12373     12376     12384
     12373     12376     12378     12379     12373     12376     12384     12385
     12373     12376     12384     12386     12373     12376     12384     12387
     12374     12373     12376     12377     12374     12373     12376     12378
     12374     12373     12376     12384     12375     12373     12376     12377
     12375     12373     12376     12378     12375     12373     12376     12384
     12376     12378     12379     12380     12376     12378     12379     12381
     12376     12384     12387     12388     12377     12376     12378     12379
     12377     12376     12384     12385     12377     12376     12384     12386
     12377     12376     12384     12387     12378     12376     12384     12385
     12378     12376     12384     12386     12378     12376     12384     12387
     12378     12379     12381     12382     12378     12379     12381     12383
     12378     12379     12381     12393     12379     12378     12376     12384
     12379     12381     12393     12394     12379     12381     12393     12395
     12379     12381     12393     12396     12380     12379     12381     12382
     12380     12379     12381     12383     12380     12379     12381     12393
     12381     12393     12396     12397     12381     12393     12396     12398
     12381     12393     12396     12399     12382     12381     12393     12394
     12382     12381     12393     12395     12382     12381     12393     12396
     12383     12381     12393     12394     12383     12381     12393     12395
     12383     12381     12393     12396     12384     12387     12388     12389
     12384     12387     12388     12390     12385     12384     12387     12388
     12386     12384     12387     12388     12387     12388     12390     12391
     12387     12388     12390     12392     12387     12388     12390     12440
     12388     12390     12440     12441     12388     12390     12440     12442
     12388     12390     12440     12443     12389     12388     12390     12391
     12389     12388     12390     12392     12389     12388     12390     12440
     12390     12440     12443     12444     12390     12440     12443     12445
     12390     12440     12443     12446     12391     12390     12440     12441
     12391     12390     12440     12442     12391     12390     12440     12443
     12392     12390     12440     12441     12392     12390     12440     12442
     12392     12390     12440     12443     12393     12396     12399     12400
     12393     12396     12399     12401     12393     12396     12399     12402
     12394     12393     12396     12397     12394     12393     12396     12398
     12394     12393     12396     12399     12395     12393     12396     12397
     12395     12393     12396     12398     12395     12393     12396     12399
     12396     12399     12402     12403     12396     12399     12402     12404
     12396     12399     12402     12405     12397     12396     12399     12400
     12397     12396     12399     12401     12397     12396     12399     12402
     12398     12396     12399     12400     12398     12396     12399     12401
     12398     12396     12399     12402     12399     12402     12405     12406
     12399     12402     12405     12407     12399     12402     12405     12408
     12400     12399     12402     12403     12400     12399     12402     12404
     12400     12399     12402     12405     12401     12399     12402     12403
     12401     12399     12402     12404     12401     12399     12402     12405
     12402     12405     12408     12409     12402     12405     12408     12410
     12402     12405     12408     12411     12403     12402     12405     12406
     12403     12402     12405     12407     12403     12402     12405     12408
     12404     12402     12405     12406     12404     12402     12405     12407
     12404     12402     12405     12408     12405     12408     12411     12412
     12405     12408     12411     12413     12406     12405     12408     12409
     12406     12405     12408     12410     12406     12405     12408     12411
     12407     12405     12408     12409     12407     12405     12408     12410
     12407     12405     12408     12411     12408     12411     12413     12414
     12408     12411     12413     12415     12409     12408     12411     12412
     12409     12408     12411     12413     12410     12408     12411     12412
     12410     12408     12411     12413     12411     12413     12415     12416
     12411     12413     12415     12417     12411     12413     12415     12418
     12412     12411     12413     12414     12412     12411     12413     12415
     12413     12415     12418     12419     12413     12415     12418     12420
     12413     12415     12418     12421     12414     12413     12415     12416
     12414     12413     12415     12417     12414     12413     12415     12418
     12415     12418     12421     12422     12415     12418     12421     12423
     12415     12418     12421     12424     12416     12415     12418     12419
     12416     12415     12418     12420     12416     12415     12418     12421
     12417     12415     12418     12419     12417     12415     12418     12420
     12417     12415     12418     12421     12418     12421     12424     12425
     12418     12421     12424     12426     12418     12421     12424     12427
     12419     12418     12421     12422     12419     12418     12421     12423
     12419     12418     12421     12424     12420     12418     12421     12422
     12420     12418     12421     12423     12420     12418     12421     12424
     12421     12424     12427     12428     12421     12424     12427     12429
     12421     12424     12427     12430     12422     12421     12424     12425
     12422     12421     12424     12426     12422     12421     12424     12427
     12423     12421     12424     12425     12423     12421     12424     12426
     12423     12421     12424     12427     12424     12427     12430     12431
     12424     12427     12430     12432     12424     12427     12430     12433
     12425     12424     12427     12428     12425     12424     12427     12429
     12425     12424     12427     12430     12426     12424     12427     12428
     12426     12424     12427     12429     12426     12424     12427     12430
     12427     12430     12433     12434     12427     12430     12433     12435
     12427     12430     12433     12436     12428     12427     12430     12431
     12428     12427     12430     12432     12428     12427     12430     12433
     12429     12427     12430     12431     12429     12427     12430     12432
     12429     12427     12430     12433     12430     12433     12436     12437
     12430     12433     12436     12438     12430     12433     12436     12439
     12431     12430     12433     12434     12431     12430     12433     12435
     12431     12430     12433     12436     12432     12430     12433     12434
     12432     12430     12433     12435     12432     12430     12433     12436
     12434     12433     12436     12437     12434     12433     12436     12438
     12434     12433     12436     12439     12435     12433     12436     12437
     12435     12433     12436     12438     12435     12433     12436     12439
     12440     12443     12446     12447     12440     12443     12446     12448
     12440     12443     12446     12449     12441     12440     12443     12444
     12441     12440     12443     12445     12441     12440     12443     12446
     12442     12440     12443     12444     12442     12440     12443     12445
     12442     12440     12443     12446     12443     12446     12449     12450
     12443     12446     12449     12451     12443     12446     12449     12452
     12444     12443     12446     12447     12444     12443     12446     12448
     12444     12443     12446     12449     12445     12443     12446     12447
     12445     12443     12446     12448     12445     12443     12446     12449
     12446     12449     12452     12453     12446     12449     12452     12454
     12446     12449     12452     12455     12447     12446     12449     12450
     12447     12446     12449     12451     12447     12446     12449     12452
     12448     12446     12449     12450     12448     12446     12449     12451
     12448     12446     12449     12452     12449     12452     12455     12456
     12449     12452     12455     12457     12449     12452     12455     12458
     12450     12449     12452     12453     12450     12449     12452     12454
     12450     12449     12452     12455     12451     12449     12452     12453
     12451     12449     12452     12454     12451     12449     12452     12455
     12452     12455     12458     12459     12452     12455     12458     12460
     12452     12455     12458     12461     12453     12452     12455     12456
     12453     12452     12455     12457     12453     12452     12455     12458
     12454     12452     12455     12456     12454     12452     12455     12457
     12454     12452     12455     12458     12455     12458     12461     12462
     12455     12458     12461     12463     12455     12458     12461     12464
     12456     12455     12458     12459     12456     12455     12458     12460
     12456     12455     12458     12461     12457     12455     12458     12459
     12457     12455     12458     12460     12457     12455     12458     12461
     12458     12461     12464     12465     12458     12461     12464     12466
     12458     12461     12464     12467     12459     12458     12461     12462
     12459     12458     12461     12463     12459     12458     12461     12464
     12460     12458     12461     12462     12460     12458     12461     12463
     12460     12458     12461     12464     12461     12464     12467     12468
     12461     12464     12467     12469     12461     12464     12467     12470
     12462     12461     12464     12465     12462     12461     12464     12466
     12462     12461     12464     12467     12463     12461     12464     12465
     12463     12461     12464     12466     12463     12461     12464     12467
     12464     12467     12470     12471     12464     12467     12470     12472
     12464     12467     12470     12473     12465     12464     12467     12468
     12465     12464     12467     12469     12465     12464     12467     12470
     12466     12464     12467     12468     12466     12464     12467     12469
     12466     12464     12467     12470     12467     12470     12473     12474
     12467     12470     12473     12475     12467     12470     12473     12476
     12468     12467     12470     12471     12468     12467     12470     12472
     12468     12467     12470     12473     12469     12467     12470     12471
     12469     12467     12470     12472     12469     12467     12470     12473
     12470     12473     12476     12477     12470     12473     12476     12478
     12470     12473     12476     12479     12471     12470     12473     12474
     12471     12470     12473     12475     12471     12470     12473     12476
     12472     12470     12473     12474     12472     12470     12473     12475
     12472     12470     12473     12476     12473     12476     12479     12480
     12473     12476     12479     12481     12473     12476     12479     12482
     12474     12473     12476     12477     12474     12473     12476     12478
     12474     12473     12476     12479     12475     12473     12476     12477
     12475     12473     12476     12478     12475     12473     12476     12479
     12477     12476     12479     12480     12477     12476     12479     12481
     12477     12476     12479     12482     12478     12476     12479     12480
     12478     12476     12479     12481     12478     12476     12479     12482

       190 !NIMPHI: impropers
         5         1         7         6         7         5         9         8
        22         9        24        23        17        19        14        18
        17        14        19        18        19        17        20        21
        19        17        21        20        24        22        26        25
        32        26        34        33        34        32        38        35
        46        38        48        47        48        46        50        49
        56        50        58        57        58        56        60        59
        77        60        79        78        79        77        81        80
        99        81       101       100       101        99       103       102
       121       103       123       122       123       121       125       124
       131       125       133       132       133       131       135       134
       141       135       143       142       143       141       145       144
       163       145       165       164       165       163       167       166
       185       167       187       186       187       185       189       188
       204       189       206       205       206       204       208       207
       214       208       216       215       216       214       218       217
       229       218       231       230       226       223       228       227
       231       229       233       232       242       240       244       243
       240       233       242       241      1881      1883      1829      1882
      1829      1881      1831      1830      1959      1958      1961      1960
      1968      1967      1970      1969      2086      2085      2088      2087
      2095      2094      2097      2096      2069      2067      2071      2070
      2269      2271      2217      2270      2217      2269      2219      2218
      2347      2346      2349      2348      2356      2355      2358      2357
      2472      2471      2474      2473      2481      2480      2483      2482
      2599      2598      2601      2600      2608      2607      2610      2609
      2582      2580      2584      2583      2724      2723      2726      2725
      2733      2732      2735      2734      2851      2850      2853      2852
      2860      2859      2862      2861      2834      2832      2836      2835
      2985      2984      2987      2986      2994      2993      2996      2995
      3110      3109      3112      3111      3119      3118      3121      3120
      3244      3243      3246      3245      3253      3252      3255      3254
      3371      3370      3373      3372      3380      3379      3382      3381
      3354      3352      3356      3355      3554      3556      3502      3555
      3502      3554      3504      3503      3632      3631      3634      3633
      3641      3640      3643      3642      3759      3758      3761      3760
      3768      3767      3770      3769      3742      3740      3744      3743
      3942      3944      3890      3943      3890      3942      3892      3891
      4020      4019      4022      4021      4029      4028      4031      4030
      4203      4205      4151      4204      4151      4203      4153      4152
      4272      4271      4274      4273      4281      4280      4283      4282
      4406      4405      4408      4407      4415      4414      4417      4416
      4540      4539      4542      4541      4549      4548      4551      4550
      4665      4664      4667      4666      4674      4673      4676      4675
      4799      4798      4801      4800      4808      4807      4810      4809
      4924      4923      4926      4925      4933      4932      4935      4934
      5049      5048      5051      5050      5058      5057      5060      5059
      5174      5173      5176      5175      5183      5182      5185      5184
      5357      5359      5305      5358      5305      5357      5307      5306
      5484      5486      5432      5485      5432      5484      5434      5433
      5553      5552      5555      5554      5562      5561      5564      5563
      5678      5677      5680      5679      5687      5686      5689      5688
      5861      5863      5809      5862      5809      5861      5811      5810
      5932      5931      5934      5933      5941      5940      5943      5942
      5915      5913      5917      5916      6057      6056      6059      6058
      6066      6065      6068      6067      6191      6190      6193      6192
      6200      6199      6202      6201      6316      6315      6318      6317
      6325      6324      6327      6326      6450      6449      6452      6451
      6459      6458      6461      6460      6584      6583      6586      6585
      6593      6592      6595      6594      6767      6769      6715      6768
      6715      6767      6717      6716      8392      8391      8394      8393
      8401      8400      8403      8402      8375      8373      8377      8376
      8575      8577      8523      8576      8523      8575      8525      8524
      8646      8645      8648      8647      8655      8654      8657      8656
      8629      8627      8631      8630      8773      8772      8775      8774
      8782      8781      8784      8783      8756      8754      8758      8757
      8907      8906      8909      8908      8916      8915      8918      8917
      9090      9092      9038      9091      9038      9090      9040      9039
      9168      9167      9170      9169      9177      9176      9179      9178
      9351      9353      9299      9352      9299      9351      9301      9300
      9420      9419      9422      9421      9429      9428      9431      9430
      9547      9546      9549      9548      9556      9555      9558      9557
      9530      9528      9532      9531      9681      9680      9683      9682
      9690      9689      9692      9691      9806      9805      9808      9807
      9815      9814      9817      9816      9940      9939      9942      9941
      9949      9948      9951      9950     10123     10125     10071     10124
     10071     10123     10073     10072     10201     10200     10203     10202
     10210     10209     10212     10211     10326     10325     10328     10327
     10335     10334     10337     10336     10451     10450     10453     10452
     10460     10459     10462     10461     10576     10575     10578     10577
     10585     10584     10587     10586     10701     10700     10703     10702
     10710     10709     10712     10711     10884     10886     10832     10885
     10832     10884     10834     10833     10962     10961     10964     10963
     10971     10970     10973     10972     11087     11086     11089     11088
     11096     11095     11098     11097     11221     11220     11223     11222
     11230     11229     11232     11231     11346     11345     11348     11347
     11355     11354     11357     11356     11471     11470     11473     11472
     11480     11479     11482     11481     11654     11656     11602     11655
     11602     11654     11604     11603     11732     11731     11734     11733
     11741     11740     11743     11742     11857     11856     11859     11858
     11866     11865     11868     11867     11991     11990     11993     11992
     12000     11999     12002     12001     12174     12176     12122     12175
     12122     12174     12124     12123     12252     12251     12254     12253
     12261     12260     12263     12262     12379     12378     12381     12380
     12388     12387     12390     12389     12362     12360     12364     12363

         0 !NDON: donors


         0 !NACC: acceptors


         0 !NNB

         0         0         0         0         0         0         0         0
         0         0         0         0         0         0         0         0
         0         0         0         0         0         0         0         0
         0         0         0         0         0         0         0         0
         0         0         0         0         0         0         0         0
         0         0         0         0         0         0         0         0
         0         0         0         0         0         0         0         0
         0         0         0         0         0         0         0         0
         0         0         0         0         0         0         0         0
         0         0         0         0         0         0         0         0
         0         0         0         0         0         0         0         0
         0         0         0         0         0         0         0         0
         0         0         0         0         0         0         0         0
         0         0         0         0         0         0         0         0
         0         0         0         0         0         0         0         0
         0         0         0         0         0         0         0         0
         0         0         0         0         0         0         0         0
         0         0         0         0         0         0         0         0
         0         0         0         0         0         0         0         0
         0         0         0         0         0         0         0         0
         0         0         0         0         0         0         0         0
         0         0         0         0         0         0         0         0
         0         0         0         0         0         0         0         0
         0         0         0         0         0         0         0         0
         0         0         0         0         0         0         0         0
         0         0         0         0         0         0         0         0
         0         0         0         0         0         0         0         0
         0         0         0         0         0         0         0         0
         0         0         0         0         0         0         0         0
         0         0         0         0         0         0         0         0
         0         0         0         0         0         0         0         0
         0         0         0         0         0         0         0         0
         0         0         0         0         0         0         0         0
         0         0         0         0         0         0         0         0
         0         0         0         0         0         0         0         0
         0         0         0         0         0         0         0         0
         0         0         0         0         0         0         0         0
         0         0         0         0         0         0         0         0
         0         0         0         0         0         0         0         0
         0         0         0         0         0         0         0         0
         0         0         0         0         0         0         0         0
         0         0         0         0         0         0         0         0
         0         0         0         0         0         0         0         0
         0         0         0         0         0         0         0         0
         0         0         0         0         0         0         0         0
         0         0         0         0         0         0         0         0
         0         0         0         0         0         0         0         0
         0         0         0         0         0         0         0         0
         0         0         0         0         0         0         0         0
         0         0         0         0         0         0         0         0
         0         0         0         0         0         0         0         0
         0         0         0         0         0         0         0         0
         0         0         0         0         0         0         0         0
         0         0         0         0         0         0         0         0
         0         0         0         0         0         0         0         0
         0         0         0         0         0         0         0         0
         0         0         0         0         0         0         0         0
         0         0         0         0         0         0         0         0
         0         0         0         0         0         0         0         0
         0         0         0         0         0         0         0         0
         0         0         0         0         0         0         0         0
         0         0         0         0         0         0         0         0
         0         0         0         0         0         0         0         0
         0         0         0         0         0         0         0         0
         0         0         0         0         0         0         0         0
         0         0         0         0         0         0         0         0
         0         0         0         0         0         0         0         0
         0         0         0         0         0         0         0         0
         0         0         0         0         0         0         0         0
         0         0         0         0         0         0         0         0
         0         0         0         0         0         0         0         0
         0         0         0         0         0         0         0         0
         0         0         0         0         0         0         0         0
         0         0         0         0         0         0         0         0
         0         0         0         0         0         0         0         0
         0         0         0         0         0         0         0         0
         0         0         0         0         0         0         0         0
         0         0         0         0         0         0         0         0
         0         0         0         0         0         0         0         0
         0         0         0         0         0         0         0         0
         0         0         0         0         0         0         0         0
         0         0         0         0         0         0         0         0
         0         0         0         0         0         0         0         0
         0         0         0         0         0         0         0         0
         0         0         0         0         0         0         0         0
         0         0         0         0         0         0         0         0
         0         0         0         0         0         0         0         0
         0         0         0         0         0         0         0         0
         0         0         0         0         0         0         0         0
         0         0         0         0         0         0         0         0
         0         0         0         0         0         0         0         0
         0         0         0         0         0         0         0         0
         0         0         0         0         0         0         0         0
         0         0         0         0         0         0         0         0
         0         0         0         0         0         0         0         0
         0         0         0         0         0         0         0         0
         0         0         0         0         0         0         0         0
         0         0         0         0         0         0         0         0
         0         0         0         0         0         0         0         0
         0         0         0         0         0         0         0         0
         0         0         0         0         0         0         0         0
         0         0         0         0         0         0         0         0
         0         0         0         0         0         0         0         0
         0         0         0         0         0         0         0         0
         0         0         0         0         0         0         0         0
         0         0         0         0         0         0         0         0
         0         0         0         0         0         0         0         0
         0         0         0         0         0         0         0         0
         0         0         0         0         0         0         0         0
         0         0         0         0         0         0         0         0
         0         0         0         0         0         0         0         0
         0         0         0         0         0         0         0         0
         0         0         0         0         0         0         0         0
         0         0         0         0         0         0         0         0
         0         0         0         0         0         0         0         0
         0         0         0         0         0         0         0         0
         0         0         0         0         0         0         0         0
         0         0         0         0         0         0         0         0
         0         0         0         0         0         0         0         0
         0         0         0         0         0         0         0         0
         0         0         0         0         0         0         0         0
         0         0         0         0         0         0         0         0
         0         0         0         0         0         0         0         0
         0         0         0         0         0         0         0         0
         0         0         0         0         0         0         0         0
         0         0         0         0         0         0         0         0
         0         0         0         0         0         0         0         0
         0         0         0         0         0         0         0         0
         0         0         0         0         0         0         0         0
         0         0         0         0         0         0         0         0
         0         0         0         0         0         0         0         0
         0         0         0         0         0         0         0         0
         0         0         0         0         0         0         0         0
         0         0         0         0         0         0         0         0
         0         0         0         0         0         0         0         0
         0         0         0         0         0         0         0         0
         0         0         0         0         0         0         0         0
         0         0         0         0         0         0         0         0
         0         0         0         0         0         0         0         0
         0         0         0         0         0         0         0         0
         0         0         0         0         0         0         0         0
         0         0         0         0         0         0         0         0
         0         0         0         0         0         0         0         0
         0         0         0         0         0         0         0         0
         0         0         0         0         0         0         0         0
         0         0         0         0         0         0         0         0
         0         0         0         0         0         0         0         0
         0         0         0         0         0         0         0         0
         0         0         0         0         0         0         0         0
         0         0         0         0         0         0         0         0
         0         0         0         0         0         0         0         0
         0         0         0         0         0         0         0         0
         0         0         0         0         0         0         0         0
         0         0         0         0         0         0         0         0
         0         0         0         0         0         0         0         0
         0         0         0         0         0         0         0         0
         0         0         0         0         0         0         0         0
         0         0         0         0         0         0         0         0
         0         0         0         0         0         0         0         0
         0         0         0         0         0         0         0         0
         0         0         0         0         0         0         0         0
         0         0         0         0         0         0         0         0
         0         0         0         0         0         0         0         0
         0         0         0         0         0         0         0         0
         0         0         0         0         0         0         0         0
         0         0         0         0         0         0         0         0
         0         0         0         0         0         0         0         0
         0         0         0         0         0         0         0         0
         0         0         0         0         0         0         0         0
         0         0         0         0         0         0         0         0
         0         0         0         0         0         0         0         0
         0         0         0         0         0         0         0         0
         0         0         0         0         0         0         0         0
         0         0         0         0         0         0         0         0
         0         0         0         0         0         0         0         0
         0         0         0         0         0         0         0         0
         0         0         0         0         0         0         0         0
         0         0         0         0         0         0         0         0
         0         0         0         0         0         0         0         0
         0         0         0         0         0         0         0         0
         0         0         0         0         0         0         0         0
         0         0         0         0         0         0         0         0
         0         0         0         0         0         0         0         0
         0         0         0         0         0         0         0         0
         0         0         0         0         0         0         0         0
         0         0         0         0         0         0         0         0
         0         0         0         0         0         0         0         0
         0         0         0         0         0         0         0         0
         0         0         0         0         0         0         0         0
         0         0         0         0         0         0         0         0
         0         0         0         0         0         0         0         0
         0         0         0         0         0         0         0         0
         0         0         0         0         0         0         0         0
         0         0         0         0         0         0         0         0
         0         0         0         0         0         0         0         0
         0         0         0         0         0         0         0         0
         0         0         0         0         0         0         0         0
         0         0         0         0         0         0         0         0
         0         0         0         0         0         0         0         0
         0         0         0         0         0         0         0         0
         0         0         0         0         0         0         0         0
         0         0         0         0         0         0         0         0
         0         0         0         0         0         0         0         0
         0         0         0         0         0         0         0         0
         0         0         0         0         0         0         0         0
         0         0         0         0         0         0         0         0
         0         0         0         0         0         0         0         0
         0         0         0         0         0         0         0         0
         0         0         0         0         0         0         0         0
         0         0         0         0         0         0         0         0
         0         0         0         0         0         0         0         0
         0         0         0         0         0         0         0         0
         0         0         0         0         0         0         0         0
         0         0         0         0         0         0         0         0
         0         0         0         0         0         0         0         0
         0         0         0         0         0         0         0         0
         0         0         0         0         0         0         0         0
         0         0         0         0         0         0         0         0
         0         0         0         0         0         0         0         0
         0         0         0         0         0         0         0         0
         0         0         0         0         0         0         0         0
         0         0         0         0         0         0         0         0
         0         0         0         0         0         0         0         0
         0         0         0         0         0         0         0         0
         0         0         0         0         0         0         0         0
         0         0         0         0         0         0         0         0
         0         0         0         0         0         0         0         0
         0         0         0         0         0         0         0         0
         0         0         0         0         0         0         0         0
         0         0         0         0         0         0         0         0
         0         0         0         0         0         0         0         0
         0         0         0         0         0         0         0         0
         0         0         0         0         0         0         0         0
         0         0         0         0         0         0         0         0
         0         0         0         0         0         0         0         0
         0         0         0         0         0         0         0         0
         0         0         0         0         0         0         0         0
         0         0         0         0         0         0         0         0
         0         0         0         0         0         0         0         0
         0         0         0         0         0         0         0         0
         0         0         0         0         0         0         0         0
         0         0         0         0         0         0         0         0
         0         0         0         0         0         0         0         0
         0         0         0         0         0         0         0         0
         0         0         0         0         0         0         0         0
         0         0         0         0         0         0         0         0
         0         0         0         0         0         0         0         0
         0         0         0         0         0         0         0         0
         0         0         0         0         0         0         0         0
         0         0         0         0         0         0         0         0
         0         0         0         0         0         0         0         0
         0         0         0         0         0         0         0         0
         0         0         0         0         0         0         0         0
         0         0         0         0         0         0         0         0
         0         0         0         0         0         0         0         0
         0         0         0         0         0         0         0         0
         0         0         0         0         0         0         0         0
         0         0         0         0         0         0         0         0
         0         0         0         0         0         0         0         0
         0         0         0         0         0         0         0         0
         0         0         0         0         0         0         0         0
         0         0         0         0         0         0         0         0
         0         0         0         0         0         0         0         0
         0         0         0         0         0         0         0         0
         0         0         0         0         0         0         0         0
         0         0         0         0         0         0         0         0
         0         0         0         0         0         0         0         0
         0         0         0         0         0         0         0         0
         0         0         0         0         0         0         0         0
         0         0         0         0         0         0         0         0
         0         0         0         0         0         0         0         0
         0         0         0         0         0         0         0         0
         0         0         0         0         0         0         0         0
         0         0         0         0         0         0         0         0
         0         0         0         0         0         0         0         0
         0         0         0         0         0         0         0         0
         0         0         0         0         0         0         0         0
         0         0         0         0         0         0         0         0
         0         0         0         0         0         0         0         0
         0         0         0         0         0         0         0         0
         0         0         0         0         0         0         0         0
         0         0         0         0         0         0         0         0
         0         0         0         0         0         0         0         0
         0         0         0         0         0         0         0         0
         0         0         0         0         0         0         0         0
         0         0         0         0         0         0         0         0
         0         0         0         0         0         0         0         0
         0         0         0         0         0         0         0         0
         0         0         0         0         0         0         0         0
         0         0         0         0         0         0         0         0
         0         0         0         0         0         0         0         0
         0         0         0         0         0         0         0         0
         0         0         0         0         0         0         0         0
         0         0         0         0         0         0         0         0
         0         0         0         0         0         0         0         0
         0         0         0         0         0         0         0         0
         0         0         0         0         0         0         0         0
         0         0         0         0         0         0         0         0
         0         0         0         0         0         0         0         0
         0         0         0         0         0         0         0         0
         0         0         0         0         0         0         0         0
         0         0         0         0         0         0         0         0
         0         0         0         0         0         0         0         0
         0         0         0         0         0         0         0         0
         0         0         0         0         0         0         0         0
         0         0         0         0         0         0         0         0
         0         0         0         0         0         0         0         0
         0         0         0         0         0         0         0         0
         0         0         0         0         0         0         0         0
         0         0         0         0         0         0         0         0
         0         0         0         0         0         0         0         0
         0         0         0         0         0         0         0         0
         0         0         0         0         0         0         0         0
         0         0         0         0         0         0         0         0
         0         0         0         0         0         0         0         0
         0         0         0         0         0         0         0         0
         0         0         0         0         0         0         0         0
         0         0         0         0         0         0         0         0
         0         0         0         0         0         0         0         0
         0         0         0         0         0         0         0         0
         0         0         0         0         0         0         0         0
         0         0         0         0         0         0         0         0
         0         0         0         0         0         0         0         0
         0         0         0         0         0         0         0         0
         0         0         0         0         0         0         0         0
         0         0         0         0         0         0         0         0
         0         0         0         0         0         0         0         0
         0         0         0         0         0         0         0         0
         0         0         0         0         0         0         0         0
         0         0         0         0         0         0         0         0
         0         0         0         0         0         0         0         0
         0         0         0         0         0         0         0         0
         0         0         0         0         0         0         0         0
         0         0         0         0         0         0         0         0
         0         0         0         0         0         0         0         0
         0         0         0         0         0         0         0         0
         0         0         0         0         0         0         0         0
         0         0         0         0         0         0         0         0
         0         0         0         0         0         0         0         0
         0         0         0         0         0         0         0         0
         0         0         0         0         0         0         0         0
         0         0         0         0         0         0         0         0
         0         0         0         0         0         0         0         0
         0         0         0         0         0         0         0         0
         0         0         0         0         0         0         0         0
         0         0         0         0         0         0         0         0
         0         0         0         0         0         0         0         0
         0         0         0         0         0         0         0         0
         0         0         0         0         0         0         0         0
         0         0         0         0         0         0         0         0
         0         0         0         0         0         0         0         0
         0         0         0         0         0         0         0         0
         0         0         0         0         0         0         0         0
         0         0         0         0         0         0         0         0
         0         0         0         0         0         0         0         0
         0         0         0         0         0         0         0         0
         0         0         0         0         0         0         0         0
         0         0         0         0         0         0         0         0
         0         0         0         0         0         0         0         0
         0         0         0         0         0         0         0         0
         0         0         0         0         0         0         0         0
         0         0         0         0         0         0         0         0
         0         0         0         0         0         0         0         0
         0         0         0         0         0         0         0         0
         0         0         0         0         0         0         0         0
         0         0         0         0         0         0         0         0
         0         0         0         0         0         0         0         0
         0         0         0         0         0         0         0         0
         0         0         0         0         0         0         0         0
         0         0         0         0         0         0         0         0
         0         0         0         0         0         0         0         0
         0         0         0         0         0         0         0         0
         0         0         0         0         0         0         0         0
         0         0         0         0         0         0         0         0
         0         0         0         0         0         0         0         0
         0         0         0         0         0         0         0         0
         0         0         0         0         0         0         0         0
         0         0         0         0         0         0         0         0
         0         0         0         0         0         0         0         0
         0         0         0         0         0         0         0         0
         0         0         0         0         0         0         0         0
         0         0         0         0         0         0         0         0
         0         0         0         0         0         0         0         0
         0         0         0         0         0         0         0         0
         0         0         0         0         0         0         0         0
         0         0         0         0         0         0         0         0
         0         0         0         0         0         0         0         0
         0         0         0         0         0         0         0         0
         0         0         0         0         0         0         0         0
         0         0         0         0         0         0         0         0
         0         0         0         0         0         0         0         0
         0         0         0         0         0         0         0         0
         0         0         0         0         0         0         0         0
         0         0         0         0         0         0         0         0
         0         0         0         0         0         0         0         0
         0         0         0         0         0         0         0         0
         0         0         0         0         0         0         0         0
         0         0         0         0         0         0         0         0
         0         0         0         0         0         0         0         0
         0         0         0         0         0         0         0         0
         0         0         0         0         0         0         0         0
         0         0         0         0         0         0         0         0
         0         0         0         0         0         0         0         0
         0         0         0         0         0         0         0         0
         0         0         0         0         0         0         0         0
         0         0         0         0         0         0         0         0
         0         0         0         0         0         0         0         0
         0         0         0         0         0         0         0         0
         0         0         0         0         0         0         0         0
         0         0         0         0         0         0         0         0
         0         0         0         0         0         0         0         0
         0         0         0         0         0         0         0         0
         0         0         0         0         0         0         0         0
         0         0         0         0         0         0         0         0
         0         0         0         0         0         0         0         0
         0         0         0         0         0         0         0         0
         0         0         0         0         0         0         0         0
         0         0         0         0         0         0         0         0
         0         0         0         0         0         0         0         0
         0         0         0         0         0         0         0         0
         0         0         0         0         0         0         0         0
         0         0         0         0         0         0         0         0
         0         0         0         0         0         0         0         0
         0         0         0         0         0         0         0         0
         0         0         0         0         0         0         0         0
         0         0         0         0         0         0         0         0
         0         0         0         0         0         0         0         0
         0         0         0         0         0         0         0         0
         0         0         0         0         0         0         0         0
         0         0         0         0         0         0         0         0
         0         0         0         0         0         0         0         0
         0         0         0         0         0         0         0         0
         0         0         0         0         0         0         0         0
         0         0         0         0         0         0         0         0
         0         0         0         0         0         0         0         0
         0         0         0         0         0         0         0         0
         0         0         0         0         0         0         0         0
         0         0         0         0         0         0         0         0
         0         0         0         0         0         0         0         0
         0         0         0         0         0         0         0         0
         0         0         0         0         0         0         0         0
         0         0         0         0         0         0         0         0
         0         0         0         0         0         0         0         0
         0         0         0         0         0         0         0         0
         0         0         0         0         0         0         0         0
         0         0         0         0         0         0         0         0
         0         0         0         0         0         0         0         0
         0         0         0         0         0         0         0         0
         0         0         0         0         0         0         0         0
         0         0         0         0         0         0         0         0
         0         0         0         0         0         0         0         0
         0         0         0         0         0         0         0         0
         0         0         0         0         0         0         0         0
         0         0         0         0         0         0         0         0
         0         0         0         0         0         0         0         0
         0         0         0         0         0         0         0         0
         0         0         0         0         0         0         0         0
         0         0         0         0         0         0         0         0
         0         0         0         0         0         0         0         0
         0         0         0         0         0         0         0         0
         0         0         0         0         0         0         0         0
         0         0         0         0         0         0         0         0
         0         0         0         0         0         0         0         0
         0         0         0         0         0         0         0         0
         0         0         0         0         0         0         0         0
         0         0         0         0         0         0         0         0
         0         0         0         0         0         0         0         0
         0         0         0         0         0         0         0         0
         0         0         0         0         0         0         0         0
         0         0         0         0         0         0         0         0
         0         0         0         0         0         0         0         0
         0         0         0         0         0         0         0         0
         0         0         0         0         0         0         0         0
         0         0         0         0         0         0         0         0
         0         0         0         0         0         0         0         0
         0         0         0         0         0         0         0         0
         0         0         0         0         0         0         0         0
         0         0         0         0         0         0         0         0
         0         0         0         0         0         0         0         0
         0         0         0         0         0         0         0         0
         0         0         0         0         0         0         0         0
         0         0         0         0         0         0         0         0
         0         0         0         0         0         0         0         0
         0         0         0         0         0         0         0         0
         0         0         0         0         0         0         0         0
         0         0         0         0         0         0         0         0
         0         0         0         0         0         0         0         0
         0         0         0         0         0         0         0         0
         0         0         0         0         0         0         0         0
         0         0         0         0         0         0         0         0
         0         0         0         0         0         0         0         0
         0         0         0         0         0         0         0         0
         0         0         0         0         0         0         0         0
         0         0         0         0         0         0         0         0
         0         0         0         0         0         0         0         0
         0         0         0         0         0         0         0         0
         0         0         0         0         0         0         0         0
         0         0         0         0         0         0         0         0
         0         0         0         0         0         0         0         0
         0         0         0         0         0         0         0         0
         0         0         0         0         0         0         0         0
         0         0         0         0         0         0         0         0
         0         0         0         0         0         0         0         0
         0         0         0         0         0         0         0         0
         0         0         0         0         0         0         0         0
         0         0         0         0         0         0         0         0
         0         0         0         0         0         0         0         0
         0         0         0         0         0         0         0         0
         0         0         0         0         0         0         0         0
         0         0         0         0         0         0         0         0
         0         0         0         0         0         0         0         0
         0         0         0         0         0         0         0         0
         0         0         0         0         0         0         0         0
         0         0         0         0         0         0         0         0
         0         0         0         0         0         0         0         0
         0         0         0         0         0         0         0         0
         0         0         0         0         0         0         0         0
         0         0         0         0         0         0         0         0
         0         0         0         0         0         0         0         0
         0         0         0         0         0         0         0         0
         0         0         0         0         0         0         0         0
         0         0         0         0         0         0         0         0
         0         0         0         0         0         0         0         0
         0         0         0         0         0         0         0         0
         0         0         0         0         0         0         0         0
         0         0         0         0         0         0         0         0
         0         0         0         0         0         0         0         0
         0         0         0         0         0         0         0         0
         0         0         0         0         0         0         0         0
         0         0         0         0         0         0         0         0
         0         0         0         0         0         0         0         0
         0         0         0         0         0         0         0         0
         0         0         0         0         0         0         0         0
         0         0         0         0         0         0         0         0
         0         0         0         0         0         0         0         0
         0         0         0         0         0         0         0         0
         0         0         0         0         0         0         0         0
         0         0         0         0         0         0         0         0
         0         0         0         0         0         0         0         0
         0         0         0         0         0         0         0         0
         0         0         0         0         0         0         0         0
         0         0         0         0         0         0         0         0
         0         0         0         0         0         0         0         0
         0         0         0         0         0         0         0         0
         0         0         0         0         0         0         0         0
         0         0         0         0         0         0         0         0
         0         0         0         0         0         0         0         0
         0         0         0         0         0         0         0         0
         0         0         0         0         0         0         0         0
         0         0         0         0         0         0         0         0
         0         0         0         0         0         0         0         0
         0         0         0         0         0         0         0         0
         0         0         0         0         0         0         0         0
         0         0         0         0         0         0         0         0
         0         0         0         0         0         0         0         0
         0         0         0         0         0         0         0         0
         0         0         0         0         0         0         0         0
         0         0         0         0         0         0         0         0
         0         0         0         0         0         0         0         0
         0         0         0         0         0         0         0         0
         0         0         0         0         0         0         0         0
         0         0         0         0         0         0         0         0
         0         0         0         0         0         0         0         0
         0         0         0         0         0         0         0         0
         0         0         0         0         0         0         0         0
         0         0         0         0         0         0         0         0
         0         0         0         0         0         0         0         0
         0         0         0         0         0         0         0         0
         0         0         0         0         0         0         0         0
         0         0         0         0         0         0         0         0
         0         0         0         0         0         0         0         0
         0         0         0         0         0         0         0         0
         0         0         0         0         0         0         0         0
         0         0         0         0         0         0         0         0
         0         0         0         0         0         0         0         0
         0         0         0         0         0         0         0         0
         0         0         0         0         0         0         0         0
         0         0         0         0         0         0         0         0
         0         0         0         0         0         0         0         0
         0         0         0         0         0         0         0         0
         0         0         0         0         0         0         0         0
         0         0         0         0         0         0         0         0
         0         0         0         0         0         0         0         0
         0         0         0         0         0         0         0         0
         0         0         0         0         0         0         0         0
         0         0         0         0         0         0         0         0
         0         0         0         0         0         0         0         0
         0         0         0         0         0         0         0         0
         0         0         0         0         0         0         0         0
         0         0         0         0         0         0         0         0
         0         0         0         0         0         0         0         0
         0         0         0         0         0         0         0         0
         0         0         0         0         0         0         0         0
         0         0         0         0         0         0         0         0
         0         0         0         0         0         0         0         0
         0         0         0         0         0         0         0         0
         0         0         0         0         0         0         0         0
         0         0         0         0         0         0         0         0
         0         0         0         0         0         0         0         0
         0         0         0         0         0         0         0         0
         0         0         0         0         0         0         0         0
         0         0         0         0         0         0         0         0
         0         0         0         0         0         0         0         0
         0         0         0         0         0         0         0         0
         0         0         0         0         0         0         0         0
         0         0         0         0         0         0         0         0
         0         0         0         0         0         0         0         0
         0         0         0         0         0         0         0         0
         0         0         0         0         0         0         0         0
         0         0         0         0         0         0         0         0
         0         0         0         0         0         0         0         0
         0         0         0         0         0         0         0         0
         0         0         0         0         0         0         0         0
         0         0         0         0         0         0         0         0
         0         0         0         0         0         0         0         0
         0         0         0         0         0         0         0         0
         0         0         0         0         0         0         0         0
         0         0         0         0         0         0         0         0
         0         0         0         0         0         0         0         0
         0         0         0         0         0         0         0         0
         0         0         0         0         0         0         0         0
         0         0         0         0         0         0         0         0
         0         0         0         0         0         0         0         0
         0         0         0         0         0         0         0         0
         0         0         0         0         0         0         0         0
         0         0         0         0         0         0         0         0
         0         0         0         0         0         0         0         0
         0         0         0         0         0         0         0         0
         0         0         0         0         0         0         0         0
         0         0         0         0         0         0         0         0
         0         0         0         0         0         0         0         0
         0         0         0         0         0         0         0         0
         0         0         0         0         0         0         0         0
         0         0         0         0         0         0         0         0
         0         0         0         0         0         0         0         0
         0         0         0         0         0         0         0         0
         0         0         0         0         0         0         0         0
         0         0         0         0         0         0         0         0
         0         0         0         0         0         0         0         0
         0         0         0         0         0         0         0         0
         0         0         0         0         0         0         0         0
         0         0         0         0         0         0         0         0
         0         0         0         0         0         0         0         0
         0         0         0         0         0         0         0         0
         0         0         0         0         0         0         0         0
         0         0         0         0         0         0         0         0
         0         0         0         0         0         0         0         0
         0         0         0         0         0         0         0         0
         0         0         0         0         0         0         0         0
         0         0         0         0         0         0         0         0
         0         0         0         0         0         0         0         0
         0         0         0         0         0         0         0         0
         0         0         0         0         0         0         0         0
         0         0         0         0         0         0         0         0
         0         0         0         0         0         0         0         0
         0         0         0         0         0         0         0         0
         0         0         0         0         0         0         0         0
         0         0         0         0         0         0         0         0
         0         0         0         0         0         0         0         0
         0         0         0         0         0         0         0         0
         0         0         0         0         0         0         0         0
         0         0         0         0         0         0         0         0
         0         0         0         0         0         0         0         0
         0         0         0         0         0         0         0         0
         0         0         0         0         0         0         0         0
         0         0         0         0         0         0         0         0
         0         0         0         0         0         0         0         0
         0         0         0         0         0         0         0         0
         0         0         0         0         0         0         0         0
         0         0         0         0         0         0         0         0
         0         0         0         0         0         0         0         0
         0         0         0         0         0         0         0         0
         0         0         0         0         0         0         0         0
         0         0         0         0         0         0         0         0
         0         0         0         0         0         0         0         0
         0         0         0         0         0         0         0         0
         0         0         0         0         0         0         0         0
         0         0         0         0         0         0         0         0
         0         0         0         0         0         0         0         0
         0         0         0         0         0         0         0         0
         0         0         0         0         0         0         0         0
         0         0         0         0         0         0         0         0
         0         0         0         0         0         0         0         0
         0         0         0         0         0         0         0         0
         0         0         0         0         0         0         0         0
         0         0         0         0         0         0         0         0
         0         0         0         0         0         0         0         0
         0         0         0         0         0         0         0         0
         0         0         0         0         0         0         0         0
         0         0         0         0         0         0         0         0
         0         0         0         0         0         0         0         0
         0         0         0         0         0         0         0         0
         0         0         0         0         0         0         0         0
         0         0         0         0         0         0         0         0
         0         0         0         0         0         0         0         0
         0         0         0         0         0         0         0         0
         0         0         0         0         0         0         0         0
         0         0         0         0         0         0         0         0
         0         0         0         0         0         0         0         0
         0         0         0         0         0         0         0         0
         0         0         0         0         0         0         0         0
         0         0         0         0         0         0         0         0
         0         0         0         0         0         0         0         0
         0         0         0         0         0         0         0         0
         0         0         0         0         0         0         0         0
         0         0         0         0         0         0         0         0
         0         0         0         0         0         0         0         0
         0         0         0         0         0         0         0         0
         0         0         0         0         0         0         0         0
         0         0         0         0         0         0         0         0
         0         0         0         0         0         0         0         0
         0         0         0         0         0         0         0         0
         0         0         0         0         0         0         0         0
         0         0         0         0         0         0         0         0
         0         0         0         0         0         0         0         0
         0         0         0         0         0         0         0         0
         0         0         0         0         0         0         0         0
         0         0         0         0         0         0         0         0
         0         0         0         0         0         0         0         0
         0         0         0         0         0         0         0         0
         0         0         0         0         0         0         0         0
         0         0         0         0         0         0         0         0
         0         0         0         0         0         0         0         0
         0         0         0         0         0         0         0         0
         0         0         0         0         0         0         0         0
         0         0         0         0         0         0         0         0
         0         0         0         0         0         0         0         0
         0         0         0         0         0         0         0         0
         0         0         0         0         0         0         0         0
         0         0         0         0         0         0         0         0
         0         0         0         0         0         0         0         0
         0         0         0         0         0         0         0         0
         0         0         0         0         0         0         0         0
         0         0         0         0         0         0         0         0
         0         0         0         0         0         0         0         0
         0         0         0         0         0         0         0         0
         0         0         0         0         0         0         0         0
         0         0         0         0         0         0         0         0
         0         0         0         0         0         0         0         0
         0         0         0         0         0         0         0         0
         0         0         0         0         0         0         0         0
         0         0         0         0         0         0         0         0
         0         0         0         0         0         0         0         0
         0         0         0         0         0         0         0         0
         0         0         0         0         0         0         0         0
         0         0         0         0         0         0         0         0
         0         0         0         0         0         0         0         0
         0         0         0         0         0         0         0         0
         0         0         0         0         0         0         0         0
         0         0         0         0         0         0         0         0
         0         0         0         0         0         0         0         0
         0         0         0         0         0         0         0         0
         0         0         0         0         0         0         0         0
         0         0         0         0         0         0         0         0
         0         0         0         0         0         0         0         0
         0         0         0         0         0         0         0         0
         0         0         0         0         0         0         0         0
         0         0         0         0         0         0         0         0
         0         0         0         0         0         0         0         0
         0         0         0         0         0         0         0         0
         0         0         0         0         0         0         0         0
         0         0         0         0         0         0         0         0
         0         0         0         0         0         0         0         0
         0         0         0         0         0         0         0         0
         0         0         0         0         0         0         0         0
         0         0         0         0         0         0         0         0
         0         0         0         0         0         0         0         0
         0         0         0         0         0         0         0         0
         0         0         0         0         0         0         0         0
         0         0         0         0         0         0         0         0
         0         0         0         0         0         0         0         0
         0         0         0         0         0         0         0         0
         0         0         0         0         0         0         0         0
         0         0         0         0         0         0         0         0
         0         0         0         0         0         0         0         0
         0         0         0         0         0         0         0         0
         0         0         0         0         0         0         0         0
         0         0         0         0         0         0         0         0
         0         0         0         0         0         0         0         0
         0         0         0         0         0         0         0         0
         0         0         0         0         0         0         0         0
         0         0         0         0         0         0         0         0
         0         0         0         0         0         0         0         0
         0         0         0         0         0         0         0         0
         0         0         0         0         0         0         0         0
         0         0         0         0         0         0         0         0
         0         0         0         0         0         0         0         0
         0         0         0         0         0         0         0         0
         0         0         0         0         0         0         0         0
         0         0         0         0         0         0         0         0
         0         0         0         0         0         0         0         0
         0         0         0         0         0         0         0         0
         0         0         0         0         0         0         0         0
         0         0         0         0         0         0         0         0
         0         0         0         0         0         0         0         0
         0         0         0         0         0         0         0         0
         0         0         0         0         0         0         0         0
         0         0         0         0         0         0         0         0
         0         0         0         0         0         0         0         0
         0         0         0         0         0         0         0         0
         0         0         0         0         0         0         0         0
         0         0         0         0         0         0         0         0
         0         0         0         0         0         0         0         0
         0         0         0         0         0         0         0         0
         0         0         0         0         0         0         0         0
         0         0         0         0         0         0         0         0
         0         0         0         0         0         0         0         0
         0         0         0         0         0         0         0         0
         0         0         0         0         0         0         0         0
         0         0         0         0         0         0         0         0
         0         0         0         0         0         0         0         0
         0         0         0         0         0         0         0         0
         0         0         0         0         0         0         0         0
         0         0         0         0         0         0         0         0
         0         0         0         0         0         0         0         0
         0         0         0         0         0         0         0         0
         0         0         0         0         0         0         0         0
         0         0         0         0         0         0         0         0
         0         0         0         0         0         0         0         0
         0         0         0         0         0         0         0         0
         0         0         0         0         0         0         0         0
         0         0         0         0         0         0         0         0
         0         0         0         0         0         0         0         0
         0         0         0         0         0         0         0         0
         0         0         0         0         0         0         0         0
         0         0         0         0         0         0         0         0
         0         0         0         0         0         0         0         0
         0         0         0         0         0         0         0         0
         0         0         0         0         0         0         0         0
         0         0         0         0         0         0         0         0
         0         0         0         0         0         0         0         0
         0         0         0         0         0         0         0         0
         0         0         0         0         0         0         0         0
         0         0         0         0         0         0         0         0
         0         0         0         0         0         0         0         0
         0         0         0         0         0         0         0         0
         0         0         0         0         0         0         0         0
         0         0         0         0         0         0         0         0
         0         0         0         0         0         0         0         0
         0         0         0         0         0         0         0         0
         0         0         0         0         0         0         0         0
         0         0         0         0         0         0         0         0
         0         0         0         0         0         0         0         0
         0         0         0         0         0         0         0         0
         0         0         0         0         0         0         0         0
         0         0         0         0         0         0         0         0
         0         0         0         0         0         0         0         0
         0         0         0         0         0         0         0         0
         0         0         0         0         0         0         0         0
         0         0         0         0         0         0         0         0
         0         0         0         0         0         0         0         0
         0         0         0         0         0         0         0         0
         0         0         0         0         0         0         0         0
         0         0         0         0         0         0         0         0
         0         0         0         0         0         0         0         0
         0         0         0         0         0         0         0         0
         0         0         0         0         0         0         0         0
         0         0         0         0         0         0         0         0
         0         0         0         0         0         0         0         0
         0         0         0         0         0         0         0         0
         0         0         0         0         0         0         0         0
         0         0         0         0         0         0         0         0
         0         0         0         0         0         0         0         0
         0         0         0         0         0         0         0         0
         0         0         0         0         0         0         0         0
         0         0         0         0         0         0         0         0
         0         0         0         0         0         0         0         0
         0         0         0         0         0         0         0         0
         0         0         0         0         0         0         0         0
         0         0         0         0         0         0         0         0
         0         0         0         0         0         0         0         0
         0         0         0         0         0         0         0         0
         0         0         0         0         0         0         0         0
         0         0         0         0         0         0         0         0
         0         0         0         0         0         0         0         0
         0         0         0         0         0         0         0         0
         0         0         0         0         0         0         0         0
         0         0         0         0         0         0         0         0
         0         0         0         0         0         0         0         0
         0         0         0         0         0         0         0         0
         0         0         0         0         0         0         0         0
         0         0         0         0         0         0         0         0
         0         0         0         0         0         0         0         0
         0         0         0         0         0         0         0         0
         0         0         0         0         0         0         0         0
         0         0         0         0         0         0         0         0
         0         0         0         0         0         0         0         0
         0         0         0         0         0         0         0         0
         0         0         0         0         0         0         0         0
         0         0         0         0         0         0         0         0
         0         0         0         0         0         0         0         0
         0         0         0         0         0         0         0         0
         0         0         0         0         0         0         0         0
         0         0         0         0         0         0         0         0
         0         0         0         0         0         0         0         0
         0         0         0         0         0         0         0         0
         0         0         0         0         0         0         0         0
         0         0         0         0         0         0         0         0
         0         0         0         0         0         0         0         0
         0         0         0         0         0         0         0         0
         0         0         0         0         0         0         0         0
         0         0         0         0         0         0         0         0
         0         0         0         0         0         0         0         0
         0         0         0         0         0         0         0         0
         0         0         0         0         0         0         0         0
         0         0         0         0         0         0         0         0
         0         0         0         0         0         0         0         0
         0         0         0         0         0         0         0         0
         0         0         0         0         0         0         0         0
         0         0         0         0         0         0         0         0
         0         0         0         0         0         0         0         0
         0         0         0         0         0         0         0         0
         0         0         0         0         0         0         0         0
         0         0         0         0         0         0         0         0
         0         0         0         0         0         0         0         0
         0         0         0         0         0         0         0         0
         0         0         0         0         0         0         0         0
         0         0         0         0         0         0         0         0
         0         0         0         0         0         0         0         0
         0         0         0         0         0         0         0         0
         0         0         0         0         0         0         0         0
         0         0         0         0         0         0         0         0
         0         0         0         0         0         0         0         0
         0         0         0         0         0         0         0         0
         0         0         0         0         0         0         0         0
         0         0         0         0         0         0         0         0
         0         0         0         0         0         0         0         0
         0         0         0         0         0         0         0         0
         0         0         0         0         0         0         0         0
         0         0         0         0         0         0         0         0
         0         0         0         0         0         0         0         0
         0         0         0         0         0         0         0         0
         0         0         0         0         0         0         0         0
         0         0         0         0         0         0         0         0
         0         0         0         0         0         0         0         0
         0         0         0         0         0         0         0         0
         0         0         0         0         0         0         0         0
         0         0         0         0         0         0         0         0
         0         0         0         0         0         0         0         0
         0         0         0         0         0         0         0         0
         0         0         0         0         0         0         0         0
         0         0         0         0         0         0         0         0
         0         0         0         0         0         0         0         0
         0         0         0         0         0         0         0         0
         0         0         0         0         0         0         0         0
         0         0         0         0         0         0         0         0
         0         0         0         0         0         0         0         0
         0         0         0         0         0         0         0         0
         0         0         0         0         0         0         0         0
         0         0         0         0         0         0         0         0
         0         0         0         0         0         0         0         0
         0         0         0         0         0         0         0         0
         0         0         0         0         0         0         0         0
         0         0         0         0         0         0         0         0
         0         0         0         0         0         0         0         0
         0         0         0         0         0         0         0         0
         0         0         0         0         0         0         0         0
         0         0         0         0         0         0         0         0
         0         0         0         0         0         0         0         0
         0         0         0         0         0         0         0         0
         0         0         0         0         0         0         0         0
         0         0         0         0         0         0         0         0
         0         0         0         0         0         0         0         0
         0         0         0         0         0         0         0         0
         0         0         0         0         0         0         0         0
         0         0         0         0         0         0         0         0
         0         0         0         0         0         0         0         0
         0         0         0         0         0         0         0         0
         0         0         0         0         0         0         0         0
         0         0         0         0         0         0         0         0
         0         0         0         0         0         0         0         0
         0         0         0         0         0         0         0         0
         0         0         0         0         0         0         0         0
         0         0         0         0         0         0         0         0
         0         0         0         0         0         0         0         0
         0         0         0         0         0         0         0         0
         0         0         0         0         0         0         0         0
         0         0         0         0         0         0         0         0
         0         0         0         0         0         0         0         0
         0         0         0         0         0         0         0         0
         0         0         0         0         0         0         0         0
         0         0         0         0         0         0         0         0
         0         0         0         0         0         0         0         0
         0         0         0         0         0         0         0         0
         0         0         0         0         0         0         0         0
         0         0         0         0         0         0         0         0
         0         0         0         0         0         0         0         0
         0         0         0         0         0         0         0         0
         0         0         0         0         0         0         0         0
         0         0         0         0         0         0         0         0
         0         0         0         0         0         0         0         0
         0         0         0         0         0         0         0         0
         0         0         0         0         0         0         0         0
         0         0         0         0         0         0         0         0
         0         0         0         0         0         0         0         0
         0         0         0         0         0         0         0         0
         0         0         0         0         0         0         0         0
         0         0         0         0         0         0         0         0
         0         0         0         0         0         0         0         0
         0         0         0         0         0         0         0         0
         0         0         0         0         0         0         0         0
         0         0         0         0         0         0         0         0
         0         0         0         0         0         0         0         0
         0         0         0         0         0         0         0         0
         0         0         0         0         0         0         0         0
         0         0         0         0         0         0         0         0
         0         0         0         0         0         0         0         0
         0         0         0         0         0         0         0         0
         0         0         0         0         0         0         0         0
         0         0         0         0         0         0         0         0
         0         0         0         0         0         0         0         0
         0         0         0         0         0         0         0         0
         0         0         0         0         0         0         0         0
         0         0         0         0         0         0         0         0
         0         0         0         0         0         0         0         0
         0         0         0         0         0         0         0         0
         0         0         0         0         0         0         0         0
         0         0         0         0         0         0         0         0
         0         0         0         0         0         0         0         0
         0         0         0         0         0         0         0         0
         0         0         0         0         0         0         0         0
         0         0         0         0         0         0         0         0
         0         0         0         0         0         0         0         0
         0         0         0         0         0         0         0         0
         0         0         0         0         0         0         0         0
         0         0         0         0         0         0         0         0
         0         0         0         0         0         0         0         0
         0         0         0         0         0         0         0         0
         0         0         0         0         0         0         0         0
         0         0         0         0         0         0         0         0
         0         0         0         0         0         0         0         0
         0         0         0         0         0         0         0         0
         0         0         0         0         0         0         0         0
         0         0         0         0         0         0         0         0
         0         0         0         0         0         0         0         0
         0         0         0         0         0         0         0         0
         0         0         0         0         0         0         0         0
         0         0         0         0         0         0         0         0
         0         0         0         0         0         0         0         0
         0         0         0         0         0         0         0         0
         0         0         0         0         0         0         0         0
         0         0         0         0         0         0         0         0
         0         0         0         0         0         0         0         0
         0         0         0         0         0         0         0         0
         0         0         0         0         0         0         0         0
         0         0         0         0         0         0         0         0
         0         0         0         0         0         0         0         0
         0         0         0         0         0         0         0         0
         0         0         0         0         0         0         0         0
         0         0         0         0         0         0         0         0
         0         0         0         0         0         0         0         0
         0         0         0         0         0         0         0         0
         0         0         0         0         0         0         0         0
         0         0         0         0         0         0         0         0
         0         0         0         0         0         0         0         0
         0         0         0         0         0         0         0         0
         0         0         0         0         0         0         0         0
         0         0         0         0         0         0         0         0
         0         0         0         0         0         0         0         0
         0         0         0         0         0         0         0         0
         0         0         0         0         0         0         0         0
         0         0         0         0         0         0         0         0
         0         0         0         0         0         0         0         0
         0         0         0         0         0         0         0         0
         0         0         0         0         0         0         0         0
         0         0         0         0         0         0         0         0
         0         0         0         0         0         0         0         0
         0         0         0         0         0         0         0         0
         0         0         0         0         0         0         0         0
         0         0         0         0         0         0         0         0
         0         0         0         0         0         0         0         0
         0         0         0         0         0         0         0         0
         0         0         0         0         0         0         0         0
         0         0         0         0         0         0         0         0
         0         0         0         0         0         0         0         0
         0         0         0         0         0         0         0         0
         0         0         0         0         0         0         0         0
         0         0         0         0         0         0         0         0
         0         0         0         0         0         0         0         0
         0         0         0         0         0         0         0         0
         0         0         0         0         0         0         0         0
         0         0         0         0         0         0         0         0
         0         0         0         0         0         0         0         0
         0         0         0         0         0         0         0         0
         0         0         0         0         0         0         0         0
         0         0         0         0         0         0         0         0
         0         0         0         0         0         0         0         0
         0         0         0         0         0         0         0         0
         0         0         0         0         0         0         0         0
         0         0         0         0         0         0         0         0
         0         0         0         0         0         0         0         0
         0         0         0         0         0         0         0         0
         0         0         0         0         0         0         0         0
         0         0         0         0         0         0         0         0
         0         0         0         0         0         0         0         0
         0         0         0         0         0         0         0         0
         0         0         0         0         0         0         0         0
         0         0         0         0         0         0         0         0
         0         0         0         0         0         0         0         0
         0         0         0         0         0         0         0         0
         0         0         0         0         0         0         0         0
         0         0         0         0         0         0         0         0
         0         0         0         0         0         0         0         0
         0         0         0         0         0         0         0         0
         0         0         0         0         0         0         0         0
         0         0         0         0         0         0         0         0
         0         0         0         0         0         0         0         0
         0         0         0         0         0         0         0         0
         0         0         0         0         0         0         0         0
         0         0         0         0         0         0         0         0
         0         0         0         0         0         0         0         0
         0         0         0         0         0         0         0         0
         0         0         0         0         0         0         0         0
         0         0         0         0         0         0         0         0
         0         0         0         0         0         0         0         0
         0         0         0         0         0         0         0         0
         0         0         0         0         0         0         0         0
         0         0         0         0         0         0         0         0
         0         0         0         0         0         0         0         0
         0         0         0         0         0         0         0         0
         0         0         0         0         0         0         0         0
         0         0         0         0         0         0         0         0
         0         0         0         0         0         0         0         0
         0         0         0         0         0         0         0         0
         0         0         0         0         0         0         0         0
         0         0         0         0         0         0         0         0
         0         0         0         0         0         0         0         0
         0         0         0         0         0         0         0         0
         0         0         0         0         0         0         0         0
         0         0         0         0         0         0         0         0
         0         0         0         0         0         0         0         0
         0         0         0         0         0         0         0         0
         0         0         0         0         0         0         0         0
         0         0         0         0         0         0         0         0
         0         0         0         0         0         0         0         0
         0         0         0         0         0         0         0         0
         0         0         0         0         0         0         0         0
         0         0         0         0         0         0         0         0
         0         0         0         0         0         0         0         0
         0         0         0         0         0         0         0         0
         0         0         0         0         0         0         0         0
         0         0         0         0         0         0         0         0
         0         0         0         0         0         0         0         0
         0         0         0         0         0         0         0         0
         0         0         0         0         0         0         0         0
         0         0         0         0         0         0         0         0
         0         0         0         0         0         0         0         0
         0         0         0         0         0         0         0         0
         0         0         0         0         0         0         0         0
         0         0         0         0         0         0         0         0
         0         0         0         0         0         0         0         0
         0         0         0         0         0         0         0         0
         0         0         0         0         0         0         0         0
         0         0         0         0         0         0         0         0
         0         0         0         0         0         0         0         0
         0         0         0         0         0         0         0         0
         0         0         0         0         0         0         0         0
         0         0         0         0         0         0         0         0
         0         0         0         0         0         0         0         0
         0         0         0         0         0         0         0         0
         0         0         0         0         0         0         0         0
         0         0         0         0         0         0         0         0
         0         0         0         0         0         0         0         0
         0         0         0         0         0         0         0         0
         0         0         0         0         0         0         0         0
         0         0         0         0         0         0         0         0
         0         0         0         0         0         0         0         0
         0         0         0         0         0         0         0         0
         0         0         0         0         0         0         0         0
         0         0         0         0         0         0         0         0
         0         0         0         0         0         0         0         0
         0         0         0         0         0         0         0         0
         0         0         0         0         0         0         0         0
         0         0         0         0         0         0         0         0
         0         0         0         0         0         0         0         0
         0         0         0         0         0         0         0         0
         0         0         0         0         0         0         0         0
         0         0         0         0         0         0         0         0
         0         0         0         0         0         0         0         0
         0         0         0         0         0         0         0         0
         0         0         0         0         0         0         0         0
         0         0         0         0         0         0         0         0
         0         0         0         0         0         0         0         0
         0         0         0         0         0         0         0         0
         0         0         0         0         0         0         0         0
         0         0         0         0         0         0         0         0
         0         0         0         0         0         0         0         0
         0         0         0         0         0         0         0         0
         0         0         0         0         0         0         0         0
         0         0         0         0         0         0         0         0
         0         0         0         0         0         0         0         0
         0         0         0         0         0         0         0         0
         0         0         0         0         0         0         0         0
         0         0         0         0         0         0         0         0
         0         0         0         0         0         0         0         0
         0         0         0         0         0         0         0         0
         0         0         0         0         0         0         0         0
         0         0         0         0         0         0         0         0
         0         0         0         0         0         0         0         0
         0         0         0         0         0         0         0         0
         0         0         0         0         0         0         0         0
         0         0         0         0         0         0         0         0
         0         0         0         0         0         0         0         0
         0         0         0         0         0         0         0         0
         0         0         0         0         0         0         0         0
         0         0         0         0         0         0         0         0
         0         0         0         0         0         0         0         0
         0         0         0         0         0         0         0         0
         0         0         0         0         0         0         0         0
         0         0         0         0         0         0         0         0
         0         0         0         0         0         0         0         0
         0         0         0         0         0         0         0         0
         0         0         0         0         0         0         0         0
         0         0         0         0         0         0         0         0
         0         0         0         0         0         0         0         0
         0         0         0         0         0         0         0         0
         0         0         0         0         0         0         0         0
         0         0         0         0         0         0         0         0
         0         0         0         0         0         0         0         0
         0         0         0         0         0         0         0         0
         0         0         0         0         0         0         0         0
         0         0         0         0         0         0         0         0
         0         0         0         0         0         0         0         0
         0         0         0         0         0         0         0         0
         0         0         0         0         0         0         0         0
         0         0         0         0         0         0         0         0
         0         0         0         0         0         0         0         0
         0         0         0         0         0         0         0         0
         0         0         0         0         0         0         0         0
         0         0         0         0         0         0         0         0
         0         0         0         0         0         0         0         0
         0         0         0         0         0         0         0         0
         0         0         0         0         0         0         0         0
         0         0         0         0         0         0         0         0
         0         0         0         0         0         0         0         0
         0         0         0         0         0         0         0         0
         0         0         0         0         0         0         0         0
         0         0         0         0         0         0         0         0
         0         0         0         0         0         0         0         0
         0         0         0         0         0         0         0         0
         0         0         0         0         0         0         0         0
         0         0         0         0         0         0         0         0
         0         0         0         0         0         0         0         0
         0         0         0         0         0         0         0         0
         0         0         0         0         0         0         0         0
         0         0         0         0         0         0         0         0
         0         0         0         0         0         0         0         0
         0         0         0         0         0         0         0         0
         0         0         0         0         0         0         0         0
         0         0         0         0         0         0         0         0
         0         0         0         0         0         0         0         0
         0         0         0         0         0         0         0         0
         0         0         0         0         0         0         0         0
         0         0         0         0         0         0         0         0
         0         0         0         0         0         0         0         0
         0         0         0         0         0         0         0         0
         0         0         0         0         0         0         0         0
         0         0         0         0         0         0         0         0
         0         0         0         0         0         0         0         0
         0         0         0         0         0         0         0         0
         0         0         0         0         0         0         0         0
         0         0         0         0         0         0         0         0
         0         0         0         0         0         0         0         0
         0         0         0         0         0         0         0         0
         0         0         0         0         0         0         0         0
         0         0         0         0         0         0         0         0
         0         0         0         0         0         0         0         0
         0         0         0         0         0         0         0         0
         0         0         0         0         0         0         0         0
         0         0         0         0         0         0         0         0
         0         0         0         0         0         0         0         0
         0         0         0         0         0         0         0         0
         0         0         0         0         0         0         0         0
         0         0         0         0         0         0         0         0
         0         0         0         0         0         0         0         0
         0         0         0         0         0         0         0         0
         0         0         0         0         0         0         0         0
         0         0         0         0         0         0         0         0
         0         0         0         0         0         0         0         0
         0         0         0         0         0         0         0         0
         0         0         0         0         0         0         0         0
         0         0         0         0         0         0         0         0
         0         0         0         0         0         0         0         0
         0         0         0         0         0         0         0         0
         0         0         0         0         0         0         0         0
         0         0         0         0         0         0         0         0
         0         0         0         0         0         0         0         0
         0         0         0         0         0         0         0         0
         0         0         0         0         0         0         0         0
         0         0         0         0         0         0         0         0
         0         0         0         0         0         0         0         0
         0         0         0         0         0         0         0         0
         0         0         0         0         0         0         0         0
         0         0         0         0         0         0         0         0
         0         0         0         0         0         0         0         0
         0         0         0         0         0         0         0         0
         0         0         0         0         0         0         0         0
         0         0         0         0         0         0         0         0
         0         0         0         0         0         0         0         0
         0         0         0         0         0         0         0         0
         0         0         0         0         0         0         0         0
         0         0         0         0         0         0         0         0
         0         0         0         0         0         0         0         0
         0         0         0         0         0         0         0         0
         0         0         0         0         0         0         0         0
         0         0         0         0         0         0         0         0
         0         0         0         0         0         0         0         0
         0         0         0         0         0         0         0         0
         0         0         0         0         0         0         0         0
         0         0         0         0         0         0         0         0
         0         0         0         0         0         0         0         0
         0         0         0         0         0         0         0         0
         0         0         0         0         0         0         0         0
         0         0         0         0         0         0         0         0
         0         0         0         0         0         0         0         0
         0         0         0         0         0         0         0         0
         0         0         0         0         0         0         0         0
         0         0         0         0         0         0         0         0
         0         0         0         0         0         0         0         0
         0         0         0         0         0         0         0         0
         0         0         0         0         0         0         0         0
         0         0         0         0         0         0         0         0
         0         0         0         0         0         0         0         0
         0         0         0         0         0         0         0         0
         0         0         0         0         0         0         0         0
         0         0         0         0         0         0         0         0
         0         0         0         0         0         0         0         0
         0         0         0         0         0         0         0         0
         0         0         0         0         0         0         0         0
         0         0         0         0         0         0         0         0
         0         0         0         0         0         0         0         0
         0         0         0         0         0         0         0         0
         0         0         0         0         0         0         0         0
         0         0         0         0         0         0         0         0
         0         0         0         0         0         0         0         0
         0         0         0         0         0         0         0         0
         0         0         0         0         0         0         0         0
         0         0         0         0         0         0         0         0
         0         0         0         0         0         0         0         0
         0         0         0         0         0         0         0         0
         0         0         0         0         0         0         0         0
         0         0         0         0         0         0         0         0
         0         0         0         0         0         0         0         0
         0         0         0         0         0         0         0         0
         0         0         0         0         0         0         0         0
         0         0         0         0         0         0         0         0
         0         0         0         0         0         0         0         0
         0         0         0         0         0         0         0         0
         0         0         0         0         0         0         0         0
         0         0         0         0         0         0         0         0
         0         0         0         0         0         0         0         0
         0         0         0         0         0         0         0         0
         0         0         0         0         0         0         0         0
         0         0         0         0         0         0         0         0
         0         0         0         0         0         0         0         0
         0         0         0         0         0         0         0         0
         0         0         0         0         0         0         0         0
         0         0         0         0         0         0         0         0
         0         0         0         0         0         0         0         0
         0         0         0         0         0         0         0         0
         0         0         0         0         0         0         0         0
         0         0         0         0         0         0         0         0
         0         0         0         0         0         0         0         0
         0         0         0         0         0         0         0         0
         0         0         0         0         0         0         0         0
         0         0         0         0         0         0         0         0
         0         0         0         0         0         0         0         0
         0         0         0         0         0         0         0         0
         0         0         0         0         0         0         0         0
         0         0         0         0         0         0         0         0
         0         0         0         0         0         0         0         0
         0         0         0         0         0         0         0         0
         0         0         0         0         0         0         0         0
         0         0         0         0         0         0         0         0
         0         0         0         0         0         0         0         0
         0         0         0         0         0         0         0         0
         0         0         0         0         0         0         0         0
         0         0         0         0         0         0         0         0
         0         0         0         0         0         0         0         0
         0         0         0         0         0         0         0         0
         0         0         0         0         0         0         0         0
         0         0         0         0         0         0         0         0
         0         0         0         0         0         0         0         0
         0         0         0         0         0         0         0         0
         0         0         0         0         0         0         0         0
         0         0         0         0         0         0         0         0
         0         0         0         0         0         0         0         0
         0         0         0         0         0         0         0         0
         0         0         0         0         0         0         0         0
         0         0         0         0         0         0         0         0
         0         0         0         0         0         0         0         0
         0         0         0         0         0         0         0         0
         0         0         0         0         0         0         0         0
         0         0         0         0         0         0         0         0
         0         0         0         0         0         0         0         0
         0         0         0         0         0         0         0         0
         0         0         0         0         0         0         0         0
         0         0         0         0         0         0         0         0
         0         0         0         0         0         0         0         0
         0         0         0         0         0         0         0         0
         0         0         0         0         0         0         0         0
         0         0         0         0         0         0         0         0
         0         0         0         0         0         0         0         0
         0         0         0         0         0         0         0         0
         0         0         0         0         0         0         0         0
         0         0         0         0         0         0         0         0
         0         0         0         0         0         0         0         0
         0         0         0         0         0         0         0         0
         0         0         0         0         0         0         0         0
         0         0         0         0         0         0         0         0
         0         0         0         0         0         0         0         0
         0         0         0         0         0         0         0         0
         0         0         0         0         0         0         0         0
         0         0         0         0         0         0         0         0
         0         0         0         0         0         0         0         0
         0         0         0         0         0         0         0         0
         0         0         0         0         0         0         0         0
         0         0         0         0         0         0         0         0
         0         0         0         0         0         0         0         0
         0         0         0         0         0         0         0         0
         0         0         0         0         0         0         0         0
         0         0         0         0         0         0         0         0
         0         0         0         0         0         0         0         0
         0         0         0         0         0         0         0         0
         0         0         0         0         0         0         0         0
         0         0         0         0         0         0         0         0
         0         0         0         0         0         0         0         0
         0         0         0         0         0         0         0         0
         0         0         0         0         0         0         0         0
         0         0         0         0         0         0         0         0
         0         0         0         0         0         0         0         0
         0         0         0         0         0         0         0         0
         0         0         0         0         0         0         0         0
         0         0         0         0         0         0         0         0
         0         0         0         0         0         0         0         0
         0         0         0         0         0         0         0         0
         0         0         0         0         0         0         0         0
         0         0         0         0         0         0         0         0
         0         0         0         0         0         0         0         0
         0         0         0         0         0         0         0         0
         0         0         0         0         0         0         0         0
         0         0         0         0         0         0         0         0
         0         0         0         0         0         0         0         0
         0         0         0         0         0         0         0         0
         0         0         0         0         0         0         0         0
         0         0         0         0         0         0         0         0
         0         0         0         0         0         0         0         0
         0         0         0         0         0         0         0         0
         0         0         0         0         0         0         0         0
         0         0         0         0         0         0         0         0
         0         0         0         0         0         0         0         0
         0         0         0         0         0         0         0         0
         0         0         0         0         0         0         0         0
         0         0         0         0         0         0         0         0
         0         0         0         0         0         0         0         0
         0         0         0         0         0         0         0         0
         0         0         0         0         0         0         0         0
         0         0         0         0         0         0         0         0
         0         0         0         0         0         0         0         0
         0         0         0         0         0         0         0         0
         0         0         0         0         0         0         0         0
         0         0         0         0         0         0         0         0
         0         0         0         0         0         0         0         0
         0         0         0         0         0         0         0         0
         0         0         0         0         0         0         0         0
         0         0         0         0         0         0         0         0
         0         0         0         0         0         0         0         0
         0         0         0         0         0         0         0         0
         0         0         0         0         0         0         0         0
         0         0         0         0         0         0         0         0
         0         0         0         0         0         0         0         0
         0         0         0         0         0         0         0         0
         0         0         0         0         0         0         0         0
         0         0         0         0         0         0         0         0
         0         0         0         0         0         0         0         0
         0         0         0         0         0         0         0         0
         0         0         0         0         0         0         0         0
         0         0         0         0         0         0         0         0
         0         0         0         0         0         0         0         0
         0         0         0         0         0         0         0         0
         0         0         0         0         0         0         0         0
         0         0         0         0         0         0         0         0
         0         0         0         0         0         0         0         0
         0         0         0         0         0         0         0         0
         0         0         0         0         0         0         0         0
         0         0         0         0         0         0         0         0
         0         0         0         0         0         0         0         0
         0         0         0         0         0         0         0         0
         0         0         0         0         0         0         0         0
         0         0         0         0         0         0         0         0
         0         0         0         0         0         0         0         0
         0         0         0         0         0         0         0         0
         0         0         0         0         0         0         0         0
         0         0         0         0         0         0         0         0
         0         0         0         0         0         0         0         0
         0         0         0         0         0         0         0         0
         0         0         0         0         0         0         0         0
         0         0         0         0         0         0         0         0
         0         0         0         0         0         0         0         0
         0         0         0         0         0         0         0         0
         0         0         0         0         0         0         0         0
         0         0         0         0         0         0         0         0
         0         0         0         0         0         0         0         0
         0         0         0         0         0         0         0         0
         0         0         0         0         0         0         0         0
         0         0         0         0         0         0         0         0
         0         0         0         0         0         0         0         0
         0         0         0         0         0         0         0         0
         0         0         0         0         0         0         0         0
         0         0         0         0         0         0         0         0
         0         0         0         0         0         0         0         0
         0         0         0         0         0         0         0         0
         0         0         0         0         0         0         0         0
         0         0         0         0         0         0         0         0
         0         0         0         0         0         0         0         0
         0         0         0         0         0         0         0         0
         0         0         0         0         0         0         0         0
         0         0         0         0         0         0         0         0
         0         0         0         0         0         0         0         0
         0         0         0         0         0         0         0         0
         0         0         0         0         0         0         0         0
         0         0         0         0         0         0         0         0
         0         0         0         0         0         0         0         0
         0         0         0         0         0         0         0         0
         0         0         0         0         0         0         0         0
         0         0         0         0         0         0         0         0
         0         0         0         0         0         0         0         0
         0         0         0         0         0         0         0         0
         0         0         0         0         0         0         0         0
         0         0         0         0         0         0         0         0
         0         0         0         0         0         0         0         0
         0         0         0         0         0         0         0         0
         0         0         0         0         0         0         0         0
         0         0         0         0         0         0         0         0
         0         0         0         0         0         0         0         0
         0         0         0         0         0         0         0         0
         0         0         0         0         0         0         0         0
         0         0         0         0         0         0         0         0
         0         0         0         0         0         0         0         0
         0         0         0         0         0         0         0         0
         0         0         0         0         0         0         0         0
         0         0         0         0         0         0         0         0
         0         0         0         0         0         0         0         0
         0         0         0         0         0         0         0         0
         0         0         0         0         0         0         0         0
         0         0         0         0         0         0         0         0
         0         0         0         0         0         0         0         0
         0         0         0         0         0         0         0         0
         0         0         0         0         0         0         0         0
         0         0         0         0         0         0         0         0
         0         0         0         0         0         0         0         0
         0         0         0         0         0         0         0         0
         0         0         0         0         0         0         0         0
         0         0         0         0         0         0         0         0
         0         0         0         0         0         0         0         0
         0         0         0         0         0         0         0         0
         0         0         0         0         0         0         0         0
         0         0         0         0         0         0         0         0
         0         0         0         0         0         0         0         0
         0         0         0         0         0         0         0         0
         0         0         0         0         0         0         0         0
         0         0         0         0         0         0         0         0
         0         0         0         0         0         0         0         0
         0         0         0         0         0         0         0         0
         0         0         0         0         0         0         0         0
         0         0         0         0         0         0         0         0
         0         0         0         0         0         0         0         0
         0         0         0         0         0         0         0         0
         0         0         0         0         0         0         0         0
         0         0         0         0         0         0         0         0
         0         0         0         0         0         0         0         0
         0         0         0         0         0         0         0         0
         0         0         0         0         0         0         0         0
         0         0         0         0         0         0         0         0
         0         0         0         0         0         0         0         0
         0         0         0         0         0         0         0         0
         0         0         0         0         0         0         0         0
         0         0         0         0         0         0         0         0
         0         0         0         0         0         0         0         0
         0         0         0         0         0         0         0         0
         0         0         0         0         0         0         0         0
         0         0         0         0         0         0         0         0
         0         0         0         0         0         0         0         0
         0         0         0         0         0         0         0         0
         0         0         0         0         0         0         0         0
         0         0         0         0         0         0         0         0
         0         0         0         0         0         0         0         0
         0         0         0         0         0         0         0         0
         0         0         0         0         0         0         0         0
         0         0         0         0         0         0         0         0
         0         0         0         0         0         0         0         0
         0         0         0         0         0         0         0         0
         0         0         0         0         0         0         0         0
         0         0         0         0         0         0         0         0
         0         0         0         0         0         0         0         0
         0         0         0         0         0         0         0         0
         0         0         0         0         0         0         0         0
         0         0         0         0         0         0         0         0
         0         0         0         0         0         0         0         0
         0         0         0         0         0         0         0         0
         0         0         0         0         0         0         0         0
         0         0         0         0         0         0         0         0
         0         0         0         0         0         0         0         0
         0         0         0         0         0         0         0         0
         0         0         0         0         0         0         0         0
         0         0         0         0         0         0         0         0
         0         0         0         0         0         0         0         0
         0         0         0         0         0         0         0         0
         0         0         0         0         0         0         0         0
         0         0         0         0         0         0         0         0
         0         0         0         0         0         0         0         0
         0         0         0         0         0         0         0         0
         0         0         0         0         0         0         0         0
         0         0         0         0         0         0         0         0
         0         0         0         0         0         0         0         0
         0         0         0         0         0         0         0         0
         0         0         0         0         0         0         0         0
         0         0         0         0         0         0         0         0
         0         0         0         0         0         0         0         0
         0         0         0         0         0         0         0         0
         0         0         0         0         0         0         0         0
         0         0         0         0         0         0         0         0
         0         0         0         0         0         0         0         0
         0         0         0         0         0         0         0         0
         0         0         0         0         0         0         0         0
         0         0         0         0         0         0         0         0
         0         0         0         0         0         0         0         0
         0         0         0         0         0         0         0         0
         0         0         0         0         0         0         0         0
         0         0         0         0         0         0         0         0
         0         0         0         0         0         0         0         0
         0         0         0         0         0         0         0         0
         0         0         0         0         0         0         0         0
         0         0         0         0         0         0         0         0
         0         0         0         0         0         0         0         0
         0         0         0         0         0         0         0         0
         0         0         0         0         0         0         0         0
         0         0         0         0         0         0         0         0
         0         0         0         0         0         0         0         0
         0         0         0         0         0         0         0         0
         0         0         0         0         0         0         0         0
         0         0         0         0         0         0         0         0
         0         0         0         0         0         0         0         0
         0         0         0         0         0         0         0         0
         0         0         0         0         0         0         0         0
         0         0         0         0         0         0         0         0
         0         0         0         0         0         0         0         0
         0         0         0         0         0         0         0         0
         0         0         0         0         0         0         0         0
         0         0         0         0         0         0         0         0
         0         0         0         0         0         0         0         0
         0         0         0         0         0         0         0         0
         0         0         0         0         0         0         0         0
         0         0         0         0         0         0         0         0
         0         0         0         0         0         0         0         0
         0         0         0         0         0         0         0         0
         0         0         0         0         0         0         0         0
         0         0         0         0         0         0         0         0
         0         0         0         0         0         0         0         0
         0         0         0         0         0         0         0         0
         0         0         0         0         0         0         0         0
         0         0         0         0         0         0         0         0
         0         0         0         0         0         0         0         0
         0         0         0         0         0         0         0         0
         0         0         0         0         0         0         0         0
         0         0         0         0         0         0         0         0
         0         0         0         0         0         0         0         0
         0         0         0         0         0         0         0         0
         0         0         0         0         0         0         0         0
         0         0         0         0         0         0         0         0
         0         0         0         0         0         0         0         0
         0         0         0         0         0         0         0         0
         0         0         0         0         0         0         0         0
         0         0         0         0         0         0         0         0
         0         0         0         0         0         0         0         0
         0         0         0         0         0         0         0         0
         0         0         0         0         0         0         0         0
         0         0         0         0         0         0         0         0
         0         0         0         0         0         0         0         0
         0         0         0         0         0         0         0         0
         0         0         0         0         0         0         0         0
         0         0         0         0         0         0         0         0
         0         0         0         0         0         0         0         0
         0         0         0         0         0         0         0         0
         0         0         0         0         0         0         0         0
         0         0         0         0         0         0         0         0
         0         0         0         0         0         0         0         0
         0         0         0         0         0         0         0         0
         0         0         0         0         0         0         0         0
         0         0         0         0         0         0         0         0
         0         0         0         0         0         0         0         0
         0         0         0         0         0         0         0         0
         0         0         0         0         0         0         0         0
         0         0         0         0         0         0         0         0
         0         0         0         0         0         0         0         0
         0         0         0         0         0         0         0         0
         0         0         0         0         0         0         0         0
         0         0         0         0         0         0         0         0
         0         0         0         0         0         0         0         0
         0         0         0         0         0         0         0         0
         0         0         0         0         0         0         0         0
         0         0         0         0         0         0         0         0
         0         0         0         0         0         0         0         0
         0         0         0         0         0         0         0         0
         0         0         0         0         0         0         0         0
         0         0         0         0         0         0         0         0
         0         0         0         0         0         0         0         0
         0         0         0         0         0         0         0         0
         0         0         0         0         0         0         0         0
         0         0         0         0         0         0         0         0
         0         0         0         0         0         0         0         0
         0         0         0         0         0         0         0         0
         0         0         0         0         0         0         0         0
         0         0         0         0         0         0         0         0
         0         0         0         0         0         0         0         0
         0         0         0         0         0         0         0         0
         0         0         0         0         0         0         0         0
         0         0         0         0         0         0         0         0
         0         0         0         0         0         0         0         0
         0         0         0         0         0         0         0         0
         0         0         0         0         0         0         0         0
         0         0         0         0         0         0         0         0
         0         0         0         0         0         0         0         0
         0         0         0         0         0         0         0         0
         0         0         0         0         0         0         0         0
         0         0         0         0         0         0         0         0
         0         0         0         0         0         0         0         0
         0         0         0         0         0         0         0         0
         0         0         0         0         0         0         0         0
         0         0         0         0         0         0         0         0
         0         0         0         0         0         0         0         0
         0         0         0         0         0         0         0         0
         0         0         0         0         0         0         0         0
         0         0         0         0         0         0         0         0
         0         0         0         0         0         0         0         0
         0         0         0         0         0         0         0         0
         0         0         0         0         0         0         0         0
         0         0         0         0         0         0         0         0
         0         0         0         0         0         0         0         0
         0         0         0         0         0         0         0         0
         0         0         0         0         0         0         0         0
         0         0         0         0         0         0         0         0
         0         0         0         0         0         0         0         0
         0         0         0         0         0         0         0         0
         0         0         0         0         0         0         0         0
         0         0         0         0         0         0         0         0
         0         0         0         0         0         0         0         0
         0         0         0         0         0         0         0         0
         0         0         0         0         0         0         0         0
         0         0         0         0         0         0         0         0
         0         0         0         0         0         0         0         0
         0         0         0         0         0         0         0         0
         0         0         0         0         0         0         0         0
         0         0         0         0         0         0         0         0
         0         0         0         0         0         0         0         0
         0         0         0         0         0         0         0         0
         0         0         0         0         0         0         0         0
         0         0         0         0         0         0         0         0
         0         0         0         0         0         0         0         0
         0         0         0         0         0         0         0         0
         0         0         0         0         0         0         0         0
         0         0         0         0         0         0         0         0
         0         0         0         0         0         0         0         0
         0         0         0         0         0         0         0         0
         0         0         0         0         0         0         0         0
         0         0         0         0         0         0         0         0
         0         0         0         0         0         0         0         0
         0         0         0         0         0         0         0         0
         0         0         0         0         0         0         0         0
         0         0         0         0         0         0         0         0
         0         0         0         0         0         0         0         0
         0         0         0         0         0         0         0         0
         0         0         0         0         0         0         0         0
         0         0         0         0         0         0         0         0
         0         0         0         0         0         0         0         0
         0         0         0         0         0         0         0         0
         0         0         0         0         0         0         0         0
         0         0         0         0         0         0         0         0
         0         0         0         0         0         0         0         0
         0         0         0         0         0         0         0         0
         0         0         0         0         0         0         0         0
         0         0         0         0         0         0         0         0
         0         0         0         0         0         0         0         0
         0         0         0         0         0         0         0         0
         0         0         0         0         0         0         0         0
         0         0         0         0         0         0         0         0
         0         0         0         0         0         0         0         0
         0         0         0         0         0         0         0         0
         0         0         0         0         0         0         0         0
         0         0         0         0         0         0         0         0
         0         0         0         0         0         0         0         0
         0         0         0         0         0         0         0         0
         0         0         0         0         0         0         0         0
         0         0         0         0         0         0         0         0
         0         0         0         0         0         0         0         0
         0         0         0         0         0         0         0         0
         0         0         0         0         0         0         0         0
         0         0         0         0         0         0         0         0
         0         0         0         0         0         0         0         0
         0         0         0         0         0         0         0         0
         0         0         0         0         0         0         0         0
         0         0         0         0         0         0         0         0
         0         0         0         0         0         0         0         0
         0         0         0         0         0         0         0         0
         0         0         0         0         0         0         0         0
         0         0         0         0         0         0         0         0
         0         0         0         0         0         0         0         0
         0         0         0         0         0         0         0         0
         0         0         0         0         0         0         0         0
         0         0         0         0         0         0         0         0
         0         0         0         0         0         0         0         0
         0         0         0         0         0         0         0         0
         0         0         0         0         0         0         0         0
         0         0         0         0         0         0         0         0
         0         0         0         0         0         0         0         0
         0         0         0         0         0         0         0         0
         0         0         0         0         0         0         0         0
         0         0         0         0         0         0         0         0
         0         0         0         0         0         0         0         0
         0         0         0         0         0         0         0         0
         0         0         0         0         0         0         0         0
         0         0         0         0         0         0         0         0
         0         0         0         0         0         0         0         0
         0         0         0         0         0         0         0         0
         0         0         0         0         0         0         0         0
         0         0         0         0         0         0         0         0
         0         0         0         0         0         0         0         0
         0         0         0         0         0         0         0         0
         0         0         0         0         0         0         0         0
         0         0         0         0         0         0         0         0
         0         0         0         0         0         0         0         0
         0         0         0         0         0         0         0         0
         0         0         0         0         0         0         0         0
         0         0         0         0         0         0         0         0
         0         0         0         0         0         0         0         0
         0         0         0         0         0         0         0         0
         0         0         0         0         0         0         0         0
         0         0         0         0         0         0         0         0
         0         0         0         0         0         0         0         0
         0         0         0         0         0         0         0         0
         0         0         0         0         0         0         0         0
         0         0         0         0         0         0         0         0
         0         0         0         0         0         0         0         0
         0         0         0         0         0         0         0         0
         0         0         0         0         0         0         0         0
         0         0         0         0         0         0         0         0
         0         0         0         0         0         0         0         0
         0         0         0         0         0         0         0         0
         0         0         0         0         0         0         0         0
         0         0         0         0         0         0         0         0
         0         0         0         0         0         0         0         0
         0         0         0         0         0         0         0         0
         0         0         0         0         0         0         0         0
         0         0         0         0         0         0         0         0
         0         0         0         0         0         0         0         0
         0         0         0         0         0         0         0         0
         0         0         0         0         0         0         0         0
         0         0         0         0         0         0         0         0
         0         0         0         0         0         0         0         0
         0         0         0         0         0         0         0         0
         0         0         0         0         0         0         0         0
         0         0         0         0         0         0         0         0
         0         0         0         0         0         0         0         0
         0         0         0         0         0         0         0         0
         0         0         0         0         0         0         0         0
         0         0         0         0         0         0         0         0
         0         0         0         0         0         0         0         0
         0         0         0         0         0         0         0         0
         0         0         0         0         0         0         0         0
         0         0         0         0         0         0         0         0
         0         0         0         0         0         0         0         0
         0         0         0         0         0         0         0         0
         0         0         0         0         0         0         0         0
         0         0         0         0         0         0         0         0
         0         0         0         0         0         0         0         0
         0         0         0         0         0         0         0         0
         0         0         0         0         0         0         0         0
         0         0         0         0         0         0         0         0
         0         0         0         0         0         0         0         0
         0         0         0         0         0         0         0         0
         0         0         0         0         0         0         0         0
         0         0         0         0         0         0         0         0
         0         0         0         0         0         0         0         0
         0         0         0         0         0         0         0         0
         0         0         0         0         0         0         0         0
         0         0         0         0         0         0         0         0
         0         0         0         0         0         0         0         0
         0         0         0         0         0         0         0         0
         0         0         0         0         0         0         0         0
         0         0         0         0         0         0         0         0
         0         0         0         0         0         0         0         0
         0         0         0         0         0         0         0         0
         0         0         0         0         0         0         0         0
         0         0         0         0         0         0         0         0
         0         0         0         0         0         0         0         0
         0         0         0         0         0         0         0         0
         0         0         0         0         0         0         0         0
         0         0         0         0         0         0         0         0
         0         0         0         0         0         0         0         0
         0         0         0         0         0         0         0         0
         0         0         0         0         0         0         0         0
         0         0         0         0         0         0         0         0
         0         0         0         0         0         0         0         0
         0         0         0         0         0         0         0         0
         0         0         0         0         0         0         0         0
         0         0         0         0         0         0         0         0
         0         0         0         0         0         0         0         0
         0         0         0         0         0         0         0         0
         0         0         0         0         0         0         0         0
         0         0         0         0         0         0         0         0
         0         0         0         0         0         0         0         0
         0         0         0         0         0         0         0         0
         0         0         0         0         0         0         0         0
         0         0         0         0         0         0         0         0
         0         0         0         0         0         0         0         0
         0         0         0         0         0         0         0         0
         0         0         0         0         0         0         0         0
         0         0         0         0         0         0         0         0
         0         0         0         0         0         0         0         0
         0         0         0         0         0         0         0         0
         0         0         0         0         0         0         0         0
         0         0         0         0         0         0         0         0
         0         0         0         0         0         0         0         0
         0         0         0         0         0         0         0         0
         0         0         0         0         0         0         0         0
         0         0         0         0         0         0         0         0
         0         0         0         0         0         0         0         0
         0         0         0         0         0         0         0         0
         0         0         0         0         0         0         0         0
         0         0         0         0         0         0         0         0
         0         0         0         0         0         0         0         0
         0         0         0         0         0         0         0         0
         0         0         0         0         0         0         0         0
         0         0         0         0         0         0         0         0
         0         0         0         0         0         0         0         0
         0         0         0         0         0         0         0         0
         0         0         0         0         0         0         0         0
         0         0         0         0         0         0         0         0
         0         0         0         0         0         0         0         0
         0         0         0         0         0         0         0         0
         0         0         0         0         0         0         0         0
         0         0         0         0         0         0         0         0
         0         0         0         0         0         0         0         0
         0         0         0         0         0         0         0         0
         0         0         0         0         0         0         0         0
         0         0         0         0         0         0         0         0
         0         0         0         0         0         0         0         0
         0         0         0         0         0         0         0         0
         0         0         0         0         0         0         0         0
         0         0         0         0         0         0         0         0
         0         0         0         0         0         0         0         0
         0         0         0         0         0         0         0         0
         0         0         0         0         0         0         0         0
         0         0         0         0         0         0         0         0
         0         0         0         0         0         0         0         0
         0         0         0         0         0         0         0         0
         0         0         0         0         0         0         0         0
         0         0         0         0         0         0         0         0
         0         0         0         0         0         0         0         0
         0         0         0         0         0         0         0         0
         0         0         0         0         0         0         0         0
         0         0         0         0         0         0         0         0
         0         0         0         0         0         0         0         0
         0         0         0         0         0         0         0         0
         0         0         0         0         0         0         0         0
         0         0         0         0         0         0         0         0
         0         0         0         0         0         0         0         0
         0         0         0         0         0         0         0         0
         0         0         0         0         0         0         0         0
         0         0         0         0         0         0         0         0
         0         0         0         0         0         0         0         0
         0         0         0         0         0         0         0         0
         0         0         0         0         0         0         0         0
         0         0         0         0         0         0         0         0
         0         0         0         0         0         0         0         0
         0         0         0         0         0         0         0         0
         0         0         0         0         0         0         0         0
         0         0         0         0         0         0         0         0
         0         0         0         0         0         0         0         0
         0         0         0         0         0         0         0         0
         0         0         0         0         0         0         0         0
         0         0         0         0         0         0         0         0
         0         0         0         0         0         0         0         0
         0         0         0         0         0         0         0         0
         0         0         0         0         0         0         0         0
         0         0         0         0         0         0         0         0
         0         0         0         0         0         0         0         0
         0         0         0         0         0         0         0         0
         0         0         0         0         0         0         0         0
         0         0         0         0         0         0         0         0
         0         0         0         0         0         0         0         0
         0         0         0         0         0         0         0         0
         0         0         0         0         0         0         0         0
         0         0         0         0         0         0         0         0
         0         0         0         0         0         0         0         0
         0         0         0         0         0         0         0         0
         0         0         0         0         0         0         0         0
         0         0         0         0         0         0         0         0
         0         0         0         0         0         0         0         0
         0         0         0         0         0         0         0         0
         0         0         0         0         0         0         0         0
         0         0         0         0         0         0         0         0
         0         0         0         0         0         0         0         0
         0         0         0         0         0         0         0         0
         0         0         0         0         0         0         0         0
         0         0         0         0         0         0         0         0
         0         0         0         0         0         0         0         0
         0         0         0         0         0         0         0         0
         0         0         0         0         0         0         0         0
         0         0         0         0         0         0         0         0
         0         0         0         0         0         0         0         0
         0         0         0         0         0         0         0         0
         0         0         0         0         0         0         0         0
         0         0         0         0         0         0         0         0
         0         0         0         0         0         0         0         0
         0         0         0         0         0         0         0         0
         0         0         0         0         0         0         0         0
         0         0         0         0         0         0         0         0
         0         0         0         0         0         0         0         0
         0         0         0         0         0         0         0         0
         0         0         0         0         0         0         0         0
         0         0         0         0         0         0         0         0
         0         0         0         0         0         0         0         0
         0         0         0         0         0         0         0         0
         0         0         0         0         0         0         0         0
         0         0         0         0         0         0         0         0
         0         0         0         0         0         0         0         0
         0         0         0         0         0         0         0         0
         0         0         0         0         0         0         0         0
         0         0         0         0         0         0         0         0
         0         0         0         0         0         0         0         0
         0         0         0         0         0         0         0         0
         0         0         0         0         0         0         0         0
         0         0         0         0         0         0         0         0
         0         0         0         0         0         0         0         0
         0         0         0         0         0         0         0         0
         0         0         0         0         0         0         0         0
         0         0         0         0         0         0         0         0
         0         0         0         0         0         0         0         0
         0         0         0         0         0         0         0         0
         0         0         0         0         0         0         0         0
         0         0         0         0         0         0         0         0
         0         0         0         0         0         0         0         0
         0         0         0         0         0         0         0         0
         0         0         0         0         0         0         0         0
         0         0         0         0         0         0         0         0
         0         0         0         0         0         0         0         0
         0         0         0         0         0         0         0         0
         0         0         0         0         0         0         0         0
         0         0         0         0         0         0         0         0
         0         0         0         0         0         0         0         0
         0         0         0         0         0         0         0         0
         0         0         0         0         0         0         0         0
         0         0         0         0         0         0         0         0
         0         0         0         0         0         0         0         0
         0         0         0         0         0         0         0         0
         0         0         0         0         0         0         0         0
         0         0         0         0         0         0         0         0
         0         0         0         0         0         0         0         0
         0         0         0         0         0         0         0         0
         0         0         0         0         0         0         0         0
         0         0         0         0         0         0         0         0
         0         0         0         0         0         0         0         0
         0         0         0         0         0         0         0         0
         0         0         0         0         0         0         0         0
         0         0         0         0         0         0         0         0
         0         0         0         0         0         0         0         0
         0         0         0         0         0         0         0         0
         0         0         0         0         0         0         0         0
         0         0         0         0         0         0         0         0
         0         0         0         0         0         0         0         0
         0         0         0         0         0         0         0         0
         0         0         0         0         0         0         0         0
         0         0         0         0         0         0         0         0
         0         0         0         0         0         0         0         0
         0         0         0         0         0         0         0         0
         0         0         0         0         0         0         0         0
         0         0         0         0         0         0         0         0
         0         0         0         0         0         0         0         0
         0         0         0         0         0         0         0         0
         0         0         0         0         0         0         0         0
         0         0         0         0         0         0         0         0
         0         0         0         0         0         0         0         0
         0         0         0         0         0         0         0         0
         0         0         0         0         0         0         0         0
         0         0         0         0         0         0         0         0
         0         0         0         0         0         0         0         0
         0         0         0         0         0         0         0         0
         0         0         0         0         0         0         0         0
         0         0         0         0         0         0         0         0
         0         0         0         0         0         0         0         0
         0         0         0         0         0         0         0         0
         0         0         0         0         0         0         0         0
         0         0         0         0         0         0         0         0
         0         0         0         0         0         0         0         0
         0         0         0         0         0         0         0         0
         0         0         0         0         0         0         0         0
         0         0         0         0         0         0         0         0
         0         0         0         0         0         0         0         0
         0         0         0         0         0         0         0         0
         0         0         0         0         0         0         0         0
         0         0         0         0         0         0         0         0
         0         0         0         0         0         0         0         0
         0         0         0         0         0         0         0         0
         0         0         0         0         0         0         0         0
         0         0         0         0         0         0         0         0
         0         0         0         0         0         0         0         0
         0         0         0         0         0         0         0         0
         0         0         0         0         0         0         0         0
         0         0         0         0         0         0         0         0
         0         0         0         0         0         0         0         0
         0         0         0         0         0         0         0         0
         0         0         0         0         0         0         0         0
         0         0         0         0         0         0         0         0
         0         0         0         0         0         0         0         0
         0         0         0         0         0         0         0         0
         0         0         0         0         0         0         0         0
         0         0         0         0         0         0         0         0
         0         0         0         0         0         0         0         0
         0         0         0         0         0         0         0         0
         0         0         0         0         0         0         0         0
         0         0         0         0         0         0         0         0
         0         0         0         0         0         0         0         0
         0         0         0         0         0         0         0         0
         0         0         0         0         0         0         0         0
         0         0         0         0         0         0         0         0
         0         0         0         0         0         0         0         0
         0         0         0         0         0         0         0         0
         0         0         0         0         0         0         0         0
         0         0         0         0         0         0         0         0
         0         0         0         0         0         0         0         0
         0         0         0         0         0         0         0         0
         0         0         0         0         0         0         0         0
         0         0         0         0         0         0         0         0
         0         0         0         0         0         0         0         0
         0         0         0         0         0         0         0         0
         0         0         0         0         0         0         0         0
         0         0         0         0         0         0         0         0
         0         0         0         0         0         0         0         0
         0         0         0         0         0         0         0         0
         0         0         0         0         0         0         0         0
         0         0         0         0         0         0         0         0
         0         0         0         0         0         0         0         0
         0         0         0         0         0         0         0         0
         0         0         0         0         0         0         0         0
         0         0         0         0         0         0         0         0
         0         0         0         0         0         0         0         0
         0         0         0         0         0         0         0         0
         0         0         0         0         0         0         0         0
         0         0         0         0         0         0         0         0
         0         0         0         0         0         0         0         0
         0         0         0         0         0         0         0         0
         0         0         0         0         0         0         0         0
         0         0         0         0         0         0         0         0
         0         0         0         0         0         0         0         0
         0         0         0         0         0         0         0         0
         0         0         0         0         0         0         0         0
         0         0         0         0         0         0         0         0
         0         0         0         0         0         0         0         0
         0         0         0         0         0         0         0         0
         0         0         0         0         0         0         0         0
         0         0         0         0         0         0         0         0
         0         0         0         0         0         0         0         0
         0         0         0         0         0         0         0         0
         0         0         0         0         0         0         0         0
         0         0         0         0         0         0         0         0
         0         0         0         0         0         0         0         0
         0         0         0         0         0         0         0         0
         0         0         0         0         0         0         0         0
         0         0         0         0         0         0         0         0
         0         0         0         0         0         0         0         0
         0         0         0         0         0         0         0         0
         0         0         0         0         0         0         0         0
         0         0         0         0         0         0         0         0
         0         0         0         0         0         0         0         0
         0         0         0         0         0         0         0         0
         0         0         0         0         0         0         0         0
         0         0         0         0         0         0         0         0
         0         0         0         0         0         0         0         0
         0         0         0         0         0         0         0         0
         0         0         0         0         0         0         0         0
         0         0         0         0         0         0         0         0
         0         0         0         0         0         0         0         0
         0         0         0         0         0         0         0         0
         0         0         0         0         0         0         0         0
         0         0         0         0         0         0         0         0
         0         0         0         0         0         0         0         0
         0         0         0         0         0         0         0         0
         0         0         0         0         0         0         0         0
         0         0         0         0         0         0         0         0
         0         0         0         0         0         0         0         0
         0         0         0         0         0         0         0         0
         0         0         0         0         0         0         0         0
         0         0         0         0         0         0         0         0
         0         0         0         0         0         0         0         0
         0         0         0         0         0         0         0         0
         0         0         0         0         0         0         0         0
         0         0         0         0         0         0         0         0
         0         0         0         0         0         0         0         0
         0         0         0         0         0         0         0         0
         0         0         0         0         0         0         0         0
         0         0         0         0         0         0         0         0
         0         0         0         0         0         0         0         0
         0         0         0         0         0         0         0         0
         0         0         0         0         0         0         0         0
         0         0         0         0         0         0         0         0
         0         0         0         0         0         0         0         0
         0         0         0         0         0         0         0         0
         0         0         0         0         0         0         0         0
         0         0         0         0         0         0         0         0
         0         0         0         0         0         0         0         0
         0         0         0         0         0         0         0         0
         0         0         0         0         0         0         0         0
         0         0         0         0         0         0         0         0
         0         0         0         0         0         0         0         0
         0         0         0         0         0         0         0         0
         0         0         0         0         0         0         0         0
         0         0         0         0         0         0         0         0
         0         0         0         0         0         0         0         0
         0         0         0         0         0         0         0         0
         0         0         0         0         0         0         0         0
         0         0         0         0         0         0         0         0
         0         0         0         0         0         0         0         0
         0         0         0         0         0         0         0         0
         0         0         0         0         0         0         0         0
         0         0         0         0         0         0         0         0
         0         0         0         0         0         0         0         0
         0         0         0         0         0         0         0         0
         0         0         0         0         0         0         0         0
         0         0         0         0         0         0         0         0
         0         0         0         0         0         0         0         0
         0         0         0         0         0         0         0         0
         0         0         0         0         0         0         0         0
         0         0         0         0         0         0         0         0
         0         0         0         0         0         0         0         0
         0         0         0         0         0         0         0         0
         0         0         0         0         0         0         0         0
         0         0         0         0         0         0         0         0
         0         0         0         0         0         0         0         0
         0         0         0         0         0         0         0         0
         0         0         0         0         0         0         0         0
         0         0         0         0         0         0         0         0
         0         0         0         0         0         0         0         0
         0         0         0         0         0         0         0         0
         0         0         0         0         0         0         0         0
         0         0         0         0         0         0         0         0
         0         0         0         0         0         0         0         0
         0         0         0         0         0         0         0         0
         0         0         0         0         0         0         0         0
         0         0         0         0         0         0         0         0
         0         0         0         0         0         0         0         0
         0         0         0         0         0         0         0         0
         0         0         0         0         0         0         0         0
         0         0         0         0         0         0         0         0
         0         0         0         0         0         0         0         0
         0         0         0         0         0         0         0         0
         0         0         0         0         0         0         0         0
         0         0         0         0         0         0         0         0
         0         0         0         0         0         0         0         0
         0         0         0         0         0         0         0         0
         0         0         0         0         0         0         0         0
         0         0         0         0         0         0         0         0
         0         0         0         0         0         0         0         0
         0         0         0         0         0         0         0         0
         0         0         0         0         0         0         0         0
         0         0         0         0         0         0         0         0
         0         0         0         0         0         0         0         0
         0         0         0         0         0         0         0         0
         0         0         0         0         0         0         0         0
         0         0         0         0         0         0         0         0
         0         0         0         0         0         0         0         0
         0         0         0         0         0         0         0         0
         0         0         0         0         0         0         0         0
         0         0         0         0         0         0         0         0
         0         0         0         0         0         0         0         0
         0         0         0         0         0         0         0         0
         0         0         0         0         0         0         0         0
         0         0         0         0         0         0         0         0
         0         0         0         0         0         0         0         0
         0         0         0         0         0         0         0         0
         0         0         0         0         0         0         0         0
         0         0         0         0         0         0         0         0
         0         0         0         0         0         0         0         0
         0         0         0         0         0         0         0         0
         0         0         0         0         0         0         0         0
         0         0         0         0         0         0         0         0
         0         0         0         0         0         0         0         0
         0         0         0         0         0         0         0         0
         0         0         0         0         0         0         0         0
         0         0         0         0         0         0         0         0
         0         0         0         0         0         0         0         0
         0         0         0         0         0         0         0         0
         0         0         0         0         0         0         0         0
         0         0         0         0         0         0         0         0
         0         0         0         0         0         0         0         0
         0         0         0         0         0         0         0         0
         0         0         0         0         0         0         0         0
         0         0         0         0         0         0         0         0
         0         0         0         0         0         0         0         0
         0         0         0         0         0         0         0         0
         0         0         0         0         0         0         0         0
         0         0         0         0         0         0         0         0
         0         0         0         0         0         0         0         0
         0         0         0         0         0         0         0         0
         0         0         0         0         0         0         0         0
         0         0         0         0         0         0         0         0
         0         0         0         0         0         0         0         0
         0         0         0         0         0         0         0         0
         0         0         0         0         0         0         0         0
         0         0         0         0         0         0         0         0
         0         0         0         0         0         0         0         0
         0         0         0         0         0         0         0         0
         0         0         0         0         0         0         0         0
         0         0         0         0         0         0         0         0
         0         0         0         0         0         0         0         0
         0         0         0         0         0         0         0         0
         0         0         0         0         0         0         0         0
         0         0         0         0         0         0         0         0
         0         0         0         0         0         0         0         0
         0         0         0         0         0         0         0         0
         0         0         0         0         0         0         0         0
         0         0         0         0         0         0         0         0
         0         0         0         0         0         0         0         0
         0         0         0         0         0         0         0         0
         0         0         0         0         0         0         0         0
         0         0         0         0         0         0         0         0
         0         0         0         0         0         0         0         0
         0         0         0         0         0         0         0         0
         0         0         0         0         0         0         0         0
         0         0         0         0         0         0         0         0
         0         0         0         0         0         0         0         0
         0         0         0         0         0         0         0         0
         0         0         0         0         0         0         0         0
         0         0         0         0         0         0         0         0
         0         0         0         0         0         0         0         0
         0         0         0         0         0         0         0         0
         0         0         0         0         0         0         0         0
         0         0         0         0         0         0         0         0
         0         0         0         0         0         0         0         0
         0         0         0         0         0         0         0         0
         0         0         0         0         0         0         0         0
         0         0         0         0         0         0         0         0
         0         0         0         0         0         0         0         0
         0         0         0         0         0         0         0         0
         0         0         0         0         0         0         0         0
         0         0         0         0         0         0         0         0
         0         0         0         0         0         0         0         0
         0         0         0         0         0         0         0         0
         0         0         0         0         0         0         0         0
         0         0         0         0         0         0         0         0
         0         0         0         0         0         0         0         0
         0         0         0         0         0         0         0         0
         0         0         0         0         0         0         0         0
         0         0         0         0         0         0         0         0
         0         0         0         0         0         0         0         0
         0         0         0         0         0         0         0         0
         0         0         0         0         0         0         0         0
         0         0         0         0         0         0         0         0
         0         0         0         0         0         0         0         0
         0         0         0         0         0         0         0         0
         0         0         0         0         0         0         0         0
         0         0         0         0         0         0         0         0
         0         0         0         0         0         0         0         0
         0         0         0         0         0         0         0         0
         0         0         0         0         0         0         0         0
         0         0         0         0         0         0         0         0
         0         0         0         0         0         0         0         0
         0         0         0         0         0         0         0         0
         0         0         0         0         0         0         0         0
         0         0         0         0         0         0         0         0
         0         0         0         0         0         0         0         0
         0         0         0         0         0         0         0         0
         0         0         0         0         0         0         0         0
         0         0         0         0         0         0         0         0
         0         0         0         0         0         0         0         0
         0         0         0         0         0         0         0         0
         0         0         0         0         0         0         0         0
         0         0         0         0         0         0         0         0
         0         0         0         0         0         0         0         0
         0         0         0         0         0         0         0         0
         0         0         0         0         0         0         0         0
         0         0         0         0         0         0         0         0
         0         0         0         0         0         0         0         0
         0         0         0         0         0         0         0         0
         0         0         0         0         0         0         0         0
         0         0         0         0         0         0         0         0
         0         0         0         0         0         0         0         0
         0         0         0         0         0         0         0         0
         0         0         0         0         0         0         0         0
         0         0         0         0         0         0         0         0
         0         0         0         0         0         0         0         0
         0         0         0         0         0         0         0         0
         0         0         0         0         0         0         0         0
         0         0         0         0         0         0         0         0
         0         0         0         0         0         0         0         0
         0         0         0         0         0         0         0         0
         0         0         0         0         0         0         0         0
         0         0         0         0         0         0         0         0
         0         0         0         0         0         0         0         0
         0         0         0         0         0         0         0         0
         0         0         0         0         0         0         0         0
         0         0         0         0         0         0         0         0
         0         0         0         0         0         0         0         0
         0         0         0         0         0         0         0         0
         0         0         0         0         0         0         0         0
         0         0         0         0         0         0         0         0
         0         0         0         0         0         0         0         0
         0         0         0         0         0         0         0         0
         0         0         0         0         0         0         0         0
         0         0         0         0         0         0         0         0
         0         0         0         0         0         0         0         0
         0         0         0         0         0         0         0         0
         0         0         0         0         0         0         0         0
         0         0         0         0         0         0         0         0
         0         0         0         0         0         0         0         0
         0         0         0         0         0         0         0         0
         0         0         0         0         0         0         0         0
         0         0         0         0         0         0         0         0
         0         0         0         0         0         0         0         0
         0         0         0         0         0         0         0         0
         0         0         0         0         0         0         0         0
         0         0         0         0         0         0         0         0
         0         0         0         0         0         0         0         0
         0         0         0         0         0         0         0         0
         0         0         0         0         0         0         0         0
         0         0         0         0         0         0         0         0
         0         0         0         0         0         0         0         0
         0         0         0         0         0         0         0         0
         0         0         0         0         0         0         0         0
         0         0         0         0         0         0         0         0
         0         0         0         0         0         0         0         0
         0         0         0         0         0         0         0         0
         0         0         0         0         0         0         0         0
         0         0         0         0         0         0         0         0
         0         0         0         0         0         0         0         0
         0         0         0         0         0         0         0         0
         0         0         0         0         0         0         0         0
         0         0         0         0         0         0         0         0
         0         0         0         0         0         0         0         0
         0         0         0         0         0         0         0         0
         0         0         0         0         0         0         0         0
         0         0         0         0         0         0         0         0
         0         0         0         0         0         0         0         0
         0         0         0         0         0         0         0         0
         0         0         0         0         0         0         0         0
         0         0         0         0         0         0         0         0
         0         0         0         0         0         0         0         0
         0         0         0         0         0         0         0         0
         0         0         0         0         0         0         0         0
         0         0         0         0         0         0         0         0
         0         0         0         0         0         0         0         0
         0         0         0         0         0         0         0         0
         0         0         0         0         0         0         0         0
         0         0         0         0         0         0         0         0
         0         0         0         0         0         0         0         0
         0         0         0         0         0         0         0         0
         0         0         0         0         0         0         0         0
         0         0         0         0         0         0         0         0
         0         0         0         0         0         0         0         0
         0         0         0         0         0         0         0         0
         0         0         0         0         0         0         0         0
         0         0         0         0         0         0         0         0
         0         0         0         0         0         0         0         0
         0         0         0         0         0         0         0         0
         0         0         0         0         0         0         0         0
         0         0         0         0         0         0         0         0
         0         0         0         0         0         0         0         0
         0         0         0         0         0         0         0         0
         0         0         0         0         0         0         0         0
         0         0         0         0         0         0         0         0
         0         0         0         0         0         0         0         0
         0         0         0         0         0         0         0         0
         0         0         0         0         0         0         0         0
         0         0         0         0         0         0         0         0
         0         0         0         0         0         0         0         0
         0         0         0         0         0         0         0         0
         0         0         0         0         0         0         0         0
         0         0         0         0         0         0         0         0
         0         0         0         0         0         0         0         0
         0         0         0         0         0         0         0         0
         0         0         0         0         0         0         0         0
         0         0         0         0         0         0         0         0
         0         0         0         0         0         0         0         0
         0         0         0         0         0         0         0         0
         0         0         0         0         0         0         0         0
         0         0         0         0         0         0         0         0
         0         0         0         0         0         0         0         0
         0         0         0         0         0         0         0         0
         0         0         0         0         0         0         0         0
         0         0         0         0         0         0         0         0
         0         0         0         0         0         0         0         0
         0         0         0         0         0         0         0         0
         0         0         0         0         0         0         0         0
         0         0         0         0         0         0         0         0
         0         0         0         0         0         0         0         0
         0         0         0         0         0         0         0         0
         0         0         0         0         0         0         0         0
         0         0         0         0         0         0         0         0
         0         0         0         0         0         0         0         0
         0         0         0         0         0         0         0         0
         0         0         0         0         0         0         0         0
         0         0         0         0         0         0         0         0
         0         0         0         0         0         0         0         0
         0         0         0         0         0         0         0         0
         0         0         0         0         0         0         0         0
         0         0         0         0         0         0         0         0
         0         0         0         0         0         0         0         0
         0         0         0         0         0         0         0         0
         0         0         0         0         0         0         0         0
         0         0         0         0         0         0         0         0
         0         0         0         0         0         0         0         0
         0         0         0         0         0         0         0         0
         0         0         0         0         0         0         0         0
         0         0         0         0         0         0         0         0
         0         0         0         0         0         0         0         0
         0         0         0         0         0         0         0         0
         0         0         0         0         0         0         0         0
         0         0         0         0         0         0         0         0
         0         0         0         0         0         0         0         0
         0         0         0         0         0         0         0         0
         0         0         0         0         0         0         0         0
         0         0         0         0         0         0         0         0
         0         0         0         0         0         0         0         0
         0         0         0         0         0         0         0         0
         0         0         0         0         0         0         0         0
         0         0         0         0         0         0         0         0
         0         0         0         0         0         0         0         0
         0         0         0         0         0         0         0         0
         0         0         0         0         0         0         0         0
         0         0         0         0         0         0         0         0
         0         0         0         0         0         0         0         0
         0         0         0         0         0         0         0         0
         0         0         0         0         0         0         0         0
         0         0         0         0         0         0         0         0
         0         0         0         0         0         0         0         0
         0         0         0         0         0         0         0         0
         0         0         0         0         0         0         0         0
         0         0         0         0         0         0         0         0
         0         0         0         0         0         0         0         0
         0         0         0         0         0         0         0         0
         0         0         0         0         0         0         0         0
         0         0         0         0         0         0         0         0
         0         0         0         0         0         0         0         0
         0         0         0         0         0         0         0         0
         0         0         0         0         0         0         0         0
         0         0         0         0         0         0         0         0
         0         0         0         0         0         0         0         0
         0         0         0         0         0         0         0         0
         0         0         0         0         0         0         0         0
         0         0         0         0         0         0         0         0
         0         0         0         0         0         0         0         0
         0         0         0         0         0         0         0         0
         0         0         0         0         0         0         0         0
         0         0         0         0         0         0         0         0
         0         0         0         0         0         0         0         0
         0         0         0         0         0         0         0         0
         0         0         0         0         0         0         0         0
         0         0         0         0         0         0         0         0
         0         0         0         0         0         0         0         0
         0         0         0         0         0         0         0         0
         0         0         0         0         0         0         0         0
         0         0         0         0         0         0         0         0
         0         0         0         0         0         0         0         0
         0         0         0         0         0         0         0         0
         0         0         0         0         0         0         0         0
         0         0         0         0         0         0         0         0
         0         0         0         0         0         0         0         0
         0         0         0         0         0         0         0         0
         0         0         0         0         0         0         0         0
         0         0         0         0         0         0         0         0
         0         0         0         0         0         0         0         0
         0         0         0         0         0         0         0         0
         0         0         0         0         0         0         0         0
         0         0         0         0         0         0         0         0
         0         0         0         0         0         0         0         0
         0         0         0         0         0         0         0         0
         0         0         0         0         0         0         0         0
         0         0         0         0         0         0         0         0
         0         0         0         0         0         0         0         0
         0         0         0         0         0         0         0         0
         0         0         0         0         0         0         0         0
         0         0         0         0         0         0         0         0
         0         0         0         0         0         0         0         0
         0         0         0         0         0         0         0         0
         0         0         0         0         0         0         0         0
         0         0         0         0         0         0         0         0
         0         0         0         0         0         0         0         0
         0         0         0         0         0         0         0         0
         0         0         0         0         0         0         0         0
         0         0         0         0         0         0         0         0
         0         0         0         0         0         0         0         0
         0         0         0         0         0         0         0         0
         0         0         0         0         0         0         0         0
         0         0         0         0         0         0         0         0
         0         0         0         0         0         0         0         0
         0         0         0         0         0         0         0         0
         0         0         0         0         0         0         0         0
         0         0         0         0         0         0         0         0
         0         0         0         0         0         0         0         0
         0         0         0         0         0         0         0         0
         0         0         0         0         0         0         0         0
         0         0         0         0         0         0         0         0
         0         0         0         0         0         0         0         0
         0         0         0         0         0         0         0         0
         0         0         0         0         0         0         0         0
         0         0         0         0         0         0         0         0
         0         0         0         0         0         0         0         0
         0         0         0         0         0         0         0         0
         0         0         0         0         0         0         0         0
         0         0         0         0         0         0         0         0
         0         0         0         0         0         0         0         0
         0         0         0         0         0         0         0         0
         0         0         0         0         0         0         0         0
         0         0         0         0         0         0         0         0
         0         0         0         0         0         0         0         0
         0         0         0         0         0         0         0         0
         0         0         0         0         0         0         0         0
         0         0         0         0         0         0         0         0
         0         0         0         0         0         0         0         0
         0         0         0         0         0         0         0         0
         0         0         0         0         0         0         0         0
         0         0         0         0         0         0         0         0
         0         0         0         0         0         0         0         0
         0         0         0         0         0         0         0         0
         0         0         0         0         0         0         0         0
         0         0         0         0         0         0         0         0
         0         0         0         0         0         0         0         0
         0         0         0         0         0         0         0         0
         0         0         0         0         0         0         0         0
         0         0         0         0         0         0         0         0
         0         0         0         0         0         0         0         0
         0         0         0         0         0         0         0         0
         0         0         0         0         0         0         0         0
         0         0         0         0         0         0         0         0
         0         0         0         0         0         0         0         0
         0         0         0         0         0         0         0         0
         0         0         0         0         0         0         0         0
         0         0         0         0         0         0         0         0
         0         0         0         0         0         0         0         0
         0         0         0         0         0         0         0         0
         0         0         0         0         0         0         0         0
         0         0         0         0         0         0         0         0
         0         0         0         0         0         0         0         0
         0         0         0         0         0         0         0         0
         0         0         0         0         0         0         0         0
         0         0         0         0         0         0         0         0
         0         0         0         0         0         0         0         0
         0         0         0         0         0         0         0         0
         0         0         0         0         0         0         0         0
         0         0         0         0         0         0         0         0
         0         0         0         0         0         0         0         0
         0         0         0         0         0         0         0         0
         0         0         0         0         0         0         0         0
         0         0         0         0         0         0         0         0
         0         0         0         0         0         0         0         0
         0         0         0         0         0         0         0         0
         0         0         0         0         0         0         0         0
         0         0         0         0         0         0         0         0
         0         0         0         0         0         0         0         0
         0         0         0         0         0         0         0         0
         0         0         0         0         0         0         0         0
         0         0         0         0         0         0         0         0
         0         0         0         0         0         0         0         0
         0         0         0         0         0         0         0         0
         0         0         0         0         0         0         0         0
         0         0         0         0         0         0         0         0
         0         0         0         0         0         0         0         0
         0         0         0         0         0         0         0         0
         0         0         0         0         0         0         0         0
         0         0         0         0         0         0         0         0
         0         0         0         0         0         0         0         0
         0         0         0         0         0         0         0         0
         0         0         0         0         0         0         0         0
         0         0         0         0         0         0         0         0
         0         0         0         0         0         0         0         0
         0         0         0         0         0         0         0         0
         0         0         0         0         0         0         0         0
         0         0         0         0         0         0         0         0
         0         0         0         0         0         0         0         0
         0         0         0         0         0         0         0         0
         0         0         0         0         0         0         0         0
         0         0         0         0         0         0         0         0
         0         0         0         0         0         0         0         0
         0         0         0         0         0         0         0         0
         0         0         0         0         0         0         0         0
         0         0         0         0         0         0         0         0
         0         0         0         0         0         0         0         0
         0         0         0         0         0         0         0         0
         0         0         0         0         0         0         0         0
         0         0         0         0         0         0         0         0
         0         0         0         0         0         0         0         0
         0         0         0         0         0         0         0         0
         0         0         0         0         0         0         0         0
         0         0         0         0         0         0         0         0
         0         0         0         0         0         0         0         0
         0         0         0         0         0         0         0         0
         0         0         0         0         0         0         0         0
         0         0         0         0         0         0         0         0
         0         0         0         0         0         0         0         0
         0         0         0         0         0         0         0         0
         0         0         0         0         0         0         0         0
         0         0         0         0         0         0         0         0
         0         0         0         0         0         0         0         0
         0         0         0         0         0         0         0         0
         0         0         0         0         0         0         0         0
         0         0         0         0         0         0         0         0
         0         0         0         0         0         0         0         0
         0         0         0         0         0         0         0         0
         0         0         0         0         0         0         0         0
         0         0         0         0         0         0         0         0
         0         0         0         0         0         0         0         0
         0         0         0         0         0         0         0         0
         0         0         0         0         0         0         0         0
         0         0         0         0         0         0         0         0
         0         0         0         0         0         0         0         0
         0         0         0         0         0         0         0         0
         0         0         0         0         0         0         0         0
         0         0         0         0         0         0         0         0
         0         0         0         0         0         0         0         0
         0         0         0         0         0         0         0         0
         0         0         0         0         0         0         0         0
         0         0         0         0         0         0         0         0
         0         0         0         0         0         0         0         0
         0         0         0         0         0         0         0         0
         0         0         0         0         0         0         0         0
         0         0         0         0         0         0         0         0
         0         0         0         0         0         0         0         0
         0         0         0         0         0         0         0         0
         0         0         0         0         0         0         0         0
         0         0         0         0         0         0         0         0
         0         0         0         0         0         0         0         0
         0         0         0         0         0         0         0         0
         0         0         0         0         0         0         0         0
         0         0         0         0         0         0         0         0
         0         0         0         0         0         0         0         0
         0         0         0         0         0         0         0         0
         0         0         0         0         0         0         0         0
         0         0         0         0         0         0         0         0
         0         0         0         0         0         0         0         0
         0         0         0         0         0         0         0         0
         0         0         0         0         0         0         0         0
         0         0         0         0         0         0         0         0
         0         0         0         0         0         0         0         0
         0         0         0         0         0         0         0         0
         0         0         0         0         0         0         0         0
         0         0         0         0         0         0         0         0
         0         0         0         0         0         0         0         0
         0         0         0         0         0         0         0         0
         0         0         0         0         0         0         0         0
         0         0         0         0         0         0         0         0
         0         0         0         0         0         0         0         0
         0         0         0         0         0         0         0         0
         0         0         0         0         0         0         0         0
         0         0         0         0         0         0         0         0
         0         0         0         0         0         0         0         0
         0         0         0         0         0         0         0         0
         0         0         0         0         0         0         0         0
         0         0         0         0         0         0         0         0
         0         0         0         0         0         0         0         0
         0         0         0         0         0         0         0         0
         0         0         0         0         0         0         0         0
         0         0         0         0         0         0         0         0
         0         0         0         0         0         0         0         0
         0         0         0         0         0         0         0         0
         0         0         0         0         0         0         0         0
         0         0         0         0         0         0         0         0
         0         0         0         0         0         0         0         0
         0         0         0         0         0         0         0         0
         0         0         0         0         0         0         0         0
         0         0         0         0         0         0         0         0
         0         0         0         0         0         0         0         0
         0         0         0         0         0         0         0         0
         0         0         0         0         0         0         0         0
         0         0         0         0         0         0         0         0
         0         0         0         0         0         0         0         0
         0         0         0         0         0         0         0         0
         0         0         0         0         0         0         0         0
         0         0         0         0         0         0         0         0
         0         0         0         0         0         0         0         0
         0         0         0         0         0         0         0         0
         0         0         0         0         0         0         0         0
         0         0         0         0         0         0         0         0
         0         0         0         0         0         0         0         0
         0         0         0         0         0         0         0         0
         0         0         0         0         0         0         0         0
         0         0         0         0         0         0         0         0
         0         0         0         0         0         0         0         0
         0         0         0         0         0         0         0         0
         0         0         0         0         0         0         0         0
         0         0         0         0         0         0         0         0
         0         0         0         0         0         0         0         0
         0         0         0         0         0         0         0         0
         0         0         0         0         0         0         0         0
         0         0         0         0         0         0         0         0
         0         0         0         0         0         0         0         0
         0         0         0         0         0         0         0         0
         0         0         0         0         0         0         0         0
         0         0         0         0         0         0         0         0
         0         0         0         0         0         0         0         0
         0         0         0         0         0         0         0         0
         0         0         0         0         0         0         0         0
         0         0         0         0         0         0         0         0
         0         0         0         0         0         0         0         0
         0         0         0         0         0         0         0         0
         0         0         0         0         0         0         0         0
         0         0         0         0         0         0         0         0
         0         0         0         0         0         0         0         0
         0         0         0         0         0         0         0         0
         0         0         0         0         0         0         0         0
         0         0         0         0         0         0         0         0
         0         0         0         0         0         0         0         0
         0         0         0         0         0         0         0         0
         0         0         0         0         0         0         0         0
         0         0         0         0         0         0         0         0
         0         0         0         0         0         0         0         0
         0         0         0         0         0         0         0         0
         0         0         0         0         0         0         0         0
         0         0         0         0         0         0         0         0
         0         0         0         0         0         0         0         0
         0         0         0         0         0         0         0         0
         0         0         0         0         0         0         0         0
         0         0         0         0         0         0         0         0
         0         0         0         0         0         0         0         0
         0         0         0         0         0         0         0         0
         0         0         0         0         0         0         0         0
         0         0         0         0         0         0         0         0
         0         0         0         0         0         0         0         0
         0         0         0         0         0         0         0         0
         0         0         0         0         0         0         0         0
         0         0         0         0         0         0         0         0
         0         0         0         0         0         0         0         0
         0         0         0         0         0         0         0         0
         0         0         0         0         0         0         0         0
         0         0         0         0         0         0         0         0
         0         0         0         0         0         0         0         0
         0         0         0         0         0         0         0         0
         0         0         0         0         0         0         0         0
         0         0         0         0         0         0         0         0
         0         0         0         0         0         0         0         0
         0         0         0         0         0         0         0         0
         0         0         0         0         0         0         0         0
         0         0         0         0         0         0         0         0
         0         0         0         0         0         0         0         0
         0         0         0         0         0         0         0         0
         0         0         0         0         0         0         0         0
         0         0         0         0         0         0         0         0
         0         0         0         0         0         0         0         0
         0         0         0         0         0         0         0         0
         0         0         0         0         0         0         0         0
         0         0         0         0         0         0         0         0
         0         0         0         0         0         0         0         0
         0         0         0         0         0         0         0         0
         0         0         0         0         0         0         0         0
         0         0         0         0         0         0         0         0
         0         0         0         0         0         0         0         0
         0         0         0         0         0         0         0         0
         0         0         0         0         0         0         0         0
         0         0         0         0         0         0         0         0
         0         0         0         0         0         0         0         0
         0         0         0         0         0         0         0         0
         0         0         0         0         0         0         0         0
         0         0         0         0         0         0         0         0
         0         0         0         0         0         0         0         0
         0         0         0         0         0         0         0         0
         0         0         0         0         0         0         0         0
         0         0         0         0         0         0         0         0
         0         0         0         0         0         0         0         0
         0         0         0         0         0         0         0         0
         0         0         0         0         0         0         0         0
         0         0         0         0         0         0         0         0
         0         0         0         0         0         0         0         0
         0         0         0         0         0         0         0         0
         0         0         0         0         0         0         0         0
         0         0         0         0         0         0         0         0
         0         0         0         0         0         0         0         0
         0         0         0         0         0         0         0         0
         0         0         0         0         0         0         0         0
         0         0         0         0         0         0         0         0
         0         0         0         0         0         0         0         0
         0         0         0         0         0         0         0         0
         0         0         0         0         0         0         0         0
         0         0         0         0         0         0         0         0
         0         0         0         0         0         0         0         0
         0         0         0         0         0         0         0         0
         0         0         0         0         0         0         0         0
         0         0         0         0         0         0         0         0
         0         0         0         0         0         0         0         0
         0         0         0         0         0         0         0         0
         0         0         0         0         0         0         0         0
         0         0         0         0         0         0         0         0
         0         0         0         0         0         0         0         0
         0         0         0         0         0         0         0         0
         0         0         0         0         0         0         0         0
         0         0         0         0         0         0         0         0
         0         0         0         0         0         0         0         0
         0         0         0         0         0         0         0         0
         0         0         0         0         0         0         0         0
         0         0         0         0         0         0         0         0
         0         0         0         0         0         0         0         0
         0         0         0         0         0         0         0         0
         0         0         0         0         0         0         0         0
         0         0         0         0         0         0         0         0
         0         0         0         0         0         0         0         0
         0         0         0         0         0         0         0         0
         0         0         0         0         0         0         0         0
         0         0         0         0         0         0         0         0
         0         0         0         0         0         0         0         0
         0         0         0         0         0         0         0         0
         0         0         0         0         0         0         0         0
         0         0         0         0         0         0         0         0
         0         0         0         0         0         0         0         0
         0         0         0         0         0         0         0         0
         0         0         0         0         0         0         0         0
         0         0         0         0         0         0         0         0
         0         0         0         0         0         0         0         0
         0         0         0         0         0         0         0         0
         0         0         0         0         0         0         0         0
         0         0         0         0         0         0         0         0
         0         0         0         0         0         0         0         0
         0         0         0         0         0         0         0         0
         0         0         0         0         0         0         0         0
         0         0         0         0         0         0         0         0
         0         0         0         0         0         0         0         0
         0         0         0         0         0         0         0         0
         0         0         0         0         0         0         0         0
         0         0         0         0         0         0         0         0
         0         0         0         0         0         0         0         0
         0         0         0         0         0         0         0         0
         0         0         0         0         0         0         0         0
         0         0         0         0         0         0         0         0
         0         0         0         0         0         0         0         0
         0         0         0         0         0         0         0         0
         0         0         0         0         0         0         0         0
         0         0         0         0         0         0         0         0
         0         0         0         0         0         0         0         0
         0         0         0         0         0         0         0         0
         0         0         0         0         0         0         0         0
         0         0         0         0         0         0         0         0
         0         0         0         0         0         0         0         0
         0         0         0         0         0         0         0         0
         0         0         0         0         0         0         0         0
         0         0         0         0         0         0         0         0
         0         0         0         0         0         0         0         0
         0         0         0         0         0         0         0         0
         0         0         0         0         0         0         0         0
         0         0         0         0         0         0         0         0
         0         0         0         0         0         0         0         0
         0         0         0         0         0         0         0         0
         0         0         0         0         0         0         0         0
         0         0         0         0         0         0         0         0
         0         0         0         0         0         0         0         0
         0         0         0         0         0         0         0         0
         0         0         0         0         0         0         0         0
         0         0         0         0         0         0         0         0
         0         0         0         0         0         0         0         0
         0         0         0         0         0         0         0         0
         0         0         0         0         0         0         0         0
         0         0         0         0         0         0         0         0
         0         0         0         0         0         0         0         0
         0         0         0         0         0         0         0         0
         0         0         0         0         0         0         0         0
         0         0         0         0         0         0         0         0
         0         0         0         0         0         0         0         0
         0         0         0         0         0         0         0         0
         0         0         0         0         0         0         0         0
         0         0         0         0         0         0         0         0
         0         0         0         0         0         0         0         0
         0         0         0         0         0         0         0         0
         0         0         0         0         0         0         0         0
         0         0         0         0         0         0         0         0
         0         0         0         0         0         0         0         0
         0         0         0         0         0         0         0         0
         0         0         0         0         0         0         0         0
         0         0         0         0         0         0         0         0
         0         0         0         0         0         0         0         0
         0         0         0         0         0         0         0         0
         0         0         0         0         0         0         0         0
         0         0         0         0         0         0         0         0
         0         0         0         0         0         0         0         0
         0         0         0         0         0         0         0         0
         0         0         0         0         0         0         0         0
         0         0         0         0         0         0         0         0
         0         0         0         0         0         0         0         0
         0         0         0         0         0         0         0         0
         0         0         0         0         0         0         0         0
         0         0         0         0         0         0         0         0
         0         0         0         0         0         0         0         0
         0         0         0         0         0         0         0         0
         0         0         0         0         0         0         0         0
         0         0         0         0         0         0         0         0
         0         0         0         0         0         0         0         0
         0         0         0         0         0         0         0         0
         0         0         0         0         0         0         0         0
         0         0         0         0         0         0         0         0
         0         0         0         0         0         0         0         0
         0         0         0         0         0         0         0         0
         0         0         0         0         0         0         0         0
         0         0         0         0         0         0         0         0
         0         0         0         0         0         0         0         0
         0         0         0         0         0         0         0         0
         0         0         0         0         0         0         0         0
         0         0         0         0         0         0         0         0
         0         0         0         0         0         0         0         0
         0         0         0         0         0         0         0         0
         0         0         0         0         0         0         0         0
         0         0         0         0         0         0         0         0
         0         0         0         0         0         0         0         0
         0         0         0         0         0         0         0         0
         0         0         0         0         0         0         0         0
         0         0         0         0         0         0         0         0
         0         0         0         0         0         0         0         0
         0         0         0         0         0         0         0         0
         0         0         0         0         0         0         0         0
         0         0         0         0         0         0         0         0
         0         0         0         0         0         0         0         0
         0         0         0         0         0         0         0         0
         0         0         0         0         0         0         0         0
         0         0         0         0         0         0         0         0
         0         0         0         0         0         0         0         0
         0         0         0         0         0         0         0         0
         0         0         0         0         0         0         0         0
         0         0         0         0         0         0         0         0
         0         0         0         0         0         0         0         0
         0         0         0         0         0         0         0         0
         0         0         0         0         0         0         0         0
         0         0         0         0         0         0         0         0
         0         0         0         0         0         0         0         0
         0         0         0         0         0         0         0         0
         0         0         0         0         0         0         0         0
         0         0         0         0         0         0         0         0
         0         0         0         0         0         0         0         0
         0         0         0         0         0         0         0         0
         0         0         0         0         0         0         0         0
         0         0         0         0         0         0         0         0
         0         0         0         0         0         0         0         0
         0         0         0         0         0         0         0         0
         0         0         0         0         0         0         0         0
         0         0         0         0         0         0         0         0
         0         0         0         0         0         0         0         0
         0         0         0         0         0         0         0         0
         0         0         0         0         0         0         0         0
         0         0         0         0         0         0         0         0
         0         0         0         0         0         0         0         0
         0         0         0         0         0         0         0         0
         0         0         0         0         0         0         0         0
         0         0         0         0         0         0         0         0
         0         0         0         0         0         0         0         0
         0         0         0         0         0         0         0         0
         0         0         0         0         0         0         0         0
         0         0         0         0         0         0         0         0
         0         0         0         0         0         0         0         0
         0         0         0         0         0         0         0         0
         0         0         0         0         0         0         0         0
         0         0         0         0         0         0         0         0
         0         0         0         0         0         0         0         0
         0         0         0         0         0         0         0         0
         0         0         0         0         0         0         0         0
         0         0         0         0         0         0         0         0
         0         0         0         0         0         0         0         0
         0         0         0         0         0         0         0         0
         0         0         0         0         0         0         0         0
         0         0         0         0         0         0         0         0
         0         0         0         0         0         0         0         0
         0         0         0         0         0         0         0         0
         0         0         0         0         0         0         0         0
         0         0         0         0         0         0         0         0
         0         0         0         0         0         0         0         0
         0         0         0         0         0         0         0         0
         0         0         0         0         0         0         0         0
         0         0         0         0         0         0         0         0
         0         0         0         0         0         0         0         0
         0         0         0         0         0         0         0         0
         0         0         0         0         0         0         0         0
         0         0         0         0         0         0         0         0
         0         0         0         0         0         0         0         0
         0         0         0         0         0         0         0         0
         0         0         0         0         0         0         0         0
         0         0         0         0         0         0         0         0
         0         0         0         0         0         0         0         0
         0         0         0         0         0         0         0         0
         0         0         0         0         0         0         0         0
         0         0         0         0         0         0         0         0
         0         0         0         0         0         0         0         0
         0         0         0         0         0         0         0         0
         0         0         0         0         0         0         0         0
         0         0         0         0         0         0         0         0
         0         0         0         0         0         0         0         0
         0         0         0         0         0         0         0         0
         0         0         0         0         0         0         0         0
         0         0         0         0         0         0         0         0
         0         0         0         0         0         0         0         0
         0         0         0         0         0         0         0         0
         0         0         0         0         0         0         0         0
         0         0         0         0         0         0         0         0
         0         0         0         0         0         0         0         0
         0         0         0         0         0         0         0         0
         0         0         0         0         0         0         0         0
         0         0         0         0         0         0         0         0
         0         0         0         0         0         0         0         0
         0         0         0         0         0         0         0         0
         0         0         0         0         0         0         0         0
         0         0         0         0         0         0         0         0
         0         0         0         0         0         0         0         0
         0         0         0         0         0         0         0         0
         0         0         0         0         0         0         0         0
         0         0         0         0         0         0         0         0
         0         0         0         0         0         0         0         0
         0         0         0         0         0         0         0         0
         0         0         0         0         0         0         0         0
         0         0         0         0         0         0         0         0
         0         0         0         0         0         0         0         0
         0         0         0         0         0         0         0         0
         0         0         0         0         0         0         0         0
         0         0         0         0         0         0         0         0
         0         0         0         0         0         0         0         0
         0         0         0         0         0         0         0         0
         0         0         0         0         0         0         0         0
         0         0         0         0         0         0         0         0
         0         0         0         0         0         0         0         0
         0         0         0         0         0         0         0         0
         0         0         0         0         0         0         0         0
         0         0         0         0         0         0         0         0
         0         0         0         0         0         0         0         0
         0         0         0         0         0         0         0         0
         0         0         0         0         0         0         0         0
         0         0         0         0         0         0         0         0
         0         0         0         0         0         0         0         0
         0         0         0         0         0         0         0         0
         0         0         0         0         0         0         0         0
         0         0         0         0         0         0         0         0
         0         0         0         0         0         0         0         0
         0         0         0         0         0         0         0         0
         0         0         0         0         0         0         0         0
         0         0         0         0         0         0         0         0
         0         0         0         0         0         0         0         0
         0         0         0         0         0         0         0         0
         0         0         0         0         0         0         0         0
         0         0         0         0         0         0         0         0
         0         0         0         0         0         0         0         0
         0         0         0         0         0         0         0         0
         0         0         0         0         0         0         0         0
         0         0         0         0         0         0         0         0
         0         0         0         0         0         0         0         0
         0         0         0         0         0         0         0         0
         0         0         0         0         0         0         0         0
         0         0         0         0         0         0         0         0
         0         0         0         0         0         0         0         0
         0         0         0         0         0         0         0         0
         0         0         0         0         0         0         0         0
         0         0         0         0         0         0         0         0
         0         0         0         0         0         0         0         0
         0         0         0         0         0         0         0         0
         0         0         0         0         0         0         0         0
         0         0         0         0         0         0         0         0
         0         0         0         0         0         0         0         0
         0         0         0         0         0         0         0         0
         0         0         0         0         0         0         0         0
         0         0         0         0         0         0         0         0
         0         0         0         0         0         0         0         0
         0         0         0         0         0         0         0         0
         0         0         0         0         0         0         0         0
         0         0         0         0         0         0         0         0
         0         0         0         0         0         0         0         0
         0         0         0         0         0         0         0         0
         0         0         0         0         0         0         0         0
         0         0         0         0         0         0         0         0
         0         0         0         0         0         0         0         0
         0         0         0         0         0         0         0         0
         0         0         0         0         0         0         0         0
         0         0         0         0         0         0         0         0
         0         0         0         0         0         0         0         0
         0         0         0         0         0         0         0         0
         0         0         0         0         0         0         0         0
         0         0         0         0         0         0         0         0
         0         0         0         0         0         0         0         0
         0         0         0         0         0         0         0         0
         0         0         0         0         0         0         0         0
         0         0         0         0         0         0         0         0
         0         0         0         0         0         0         0         0
         0         0         0         0         0         0         0         0
         0         0         0         0         0         0         0         0
         0         0         0         0         0         0         0         0
         0         0         0         0         0         0         0         0
         0         0         0         0         0         0         0         0
         0         0         0         0         0         0         0         0
         0         0         0         0         0         0         0         0
         0         0         0         0         0         0         0         0
         0         0         0         0         0         0         0         0
         0         0         0         0         0         0         0         0
         0         0         0         0         0         0         0         0
         0         0         0         0         0         0         0         0
         0         0         0         0         0         0         0         0
         0         0         0         0         0         0         0         0
         0         0         0         0         0         0         0         0
         0         0         0         0         0         0         0         0
         0         0         0         0         0         0         0         0
         0         0         0         0         0         0         0         0
         0         0         0         0         0         0         0         0
         0         0         0         0         0         0         0         0
         0         0         0         0         0         0         0         0
         0         0         0         0         0         0         0         0
         0         0         0         0         0         0         0         0
         0         0         0         0         0         0         0         0
         0         0         0         0         0         0         0         0
         0         0         0         0         0         0         0         0
         0         0         0         0         0         0         0         0
         0         0         0         0         0         0         0         0
         0         0         0         0         0         0         0         0
         0         0         0         0         0         0         0         0
         0         0         0         0         0         0         0         0
         0         0         0         0         0         0         0         0
         0         0         0         0         0         0         0         0
         0         0         0         0         0         0         0         0
         0         0         0         0         0         0         0         0
         0         0         0         0         0         0         0         0
         0         0         0         0         0         0         0         0
         0         0         0         0         0         0         0         0
         0         0         0         0         0         0         0         0
         0         0         0         0         0         0         0         0
         0         0         0         0         0         0         0         0
         0         0         0         0         0         0         0         0
         0         0         0         0         0         0         0         0
         0         0         0         0         0         0         0         0
         0         0         0         0         0         0         0         0
         0         0         0         0         0         0         0         0
         0         0         0         0         0         0         0         0
         0         0         0         0         0         0         0         0
         0         0         0         0         0         0         0         0
         0         0         0         0         0         0         0         0
         0         0         0         0         0         0         0         0
         0         0         0         0         0         0         0         0
         0         0         0         0         0         0         0         0
         0         0         0         0         0         0         0         0
         0         0         0         0         0         0         0         0
         0         0         0         0         0         0         0         0
         0         0         0         0         0         0         0         0
         0         0         0         0         0         0         0         0
         0         0         0         0         0         0         0         0
         0         0         0         0         0         0         0         0
         0         0         0         0         0         0         0         0
         0         0         0         0         0         0         0         0
         0         0         0         0         0         0         0         0
         0         0         0         0         0         0         0         0
         0         0         0         0         0         0         0         0
         0         0         0         0         0         0         0         0
         0         0         0         0         0         0         0         0
         0         0         0         0         0         0         0         0
         0         0         0         0         0         0         0         0
         0         0         0         0         0         0         0         0
         0         0         0         0         0         0         0         0
         0         0         0         0         0         0         0         0
         0         0         0         0         0         0         0         0
         0         0         0         0         0         0         0         0
         0         0         0         0         0         0         0         0
         0         0         0         0         0         0         0         0
         0         0         0         0         0         0         0         0
         0         0         0         0         0         0         0         0
         0         0         0         0         0         0         0         0
         0         0         0         0         0         0         0         0
         0         0         0         0         0         0         0         0
         0         0         0         0         0         0         0         0
         0         0         0         0         0         0         0         0
         0         0         0         0         0         0         0         0
         0         0         0         0         0         0         0         0
         0         0         0         0         0         0         0         0
         0         0         0         0         0         0         0         0
         0         0         0         0         0         0         0         0
         0         0         0         0         0         0         0         0
         0         0         0         0         0         0         0         0
         0         0         0         0         0         0         0         0
         0         0         0         0         0         0         0         0
         0         0         0         0         0         0         0         0
         0         0         0         0         0         0         0         0
         0         0         0         0         0         0         0         0
         0         0         0         0         0         0         0         0
         0         0         0         0         0         0         0         0
         0         0         0         0         0         0         0         0
         0         0         0         0         0         0         0         0
         0         0         0         0         0         0         0         0
         0         0         0         0         0         0         0         0
         0         0         0         0         0         0         0         0
         0         0         0         0         0         0         0         0
         0         0         0         0         0         0         0         0
         0         0         0         0         0         0         0         0
         0         0         0         0         0         0         0         0
         0         0         0         0         0         0         0         0
         0         0         0         0         0         0         0         0
         0         0         0         0         0         0         0         0
         0         0         0         0         0         0         0         0
         0         0         0         0         0         0         0         0
         0         0         0         0         0         0         0         0
         0         0         0         0         0         0         0         0
         0         0         0         0         0         0         0         0
         0         0         0         0         0         0         0         0
         0         0         0         0         0         0         0         0
         0         0         0         0         0         0         0         0
         0         0         0         0         0         0         0         0
         0         0         0         0         0         0         0         0
         0         0         0         0         0         0         0         0
         0         0         0         0         0         0         0         0
         0         0         0         0         0         0         0         0
         0         0         0         0         0         0         0         0
         0         0         0         0         0         0         0         0
         0         0         0         0         0         0         0         0
         0         0         0         0         0         0         0         0
         0         0         0         0         0         0         0         0
         0         0         0         0         0         0         0         0
         0         0         0         0         0         0         0         0
         0         0         0         0         0         0         0         0
         0         0         0         0         0         0         0         0
         0         0         0         0         0         0         0         0
         0         0         0         0         0         0         0         0
         0         0         0         0         0         0         0         0
         0         0         0         0         0         0         0         0
         0         0         0         0         0         0         0         0
         0         0         0         0         0         0         0         0
         0         0         0         0         0         0         0         0
         0         0         0         0         0         0         0         0
         0         0         0         0         0         0         0         0
         0         0         0         0         0         0         0         0
         0         0         0         0         0         0         0         0
         0         0         0         0         0         0         0         0
         0         0         0         0         0         0         0         0
         0         0         0         0         0         0         0         0
         0         0         0         0         0         0         0         0
         0         0         0         0         0         0         0         0
         0         0         0         0         0         0         0         0
         0         0         0         0         0         0         0         0
         0         0         0         0         0         0         0         0
         0         0         0         0         0         0         0         0
         0         0         0         0         0         0         0         0
         0         0         0         0         0         0         0         0
         0         0         0         0         0         0         0         0
         0         0         0         0         0         0         0         0
         0         0         0         0         0         0         0         0
         0         0         0         0         0         0         0         0
         0         0         0         0         0         0         0         0
         0         0         0         0         0         0         0         0
         0         0         0         0         0         0         0         0
         0         0         0         0         0         0         0         0
         0         0         0         0         0         0         0         0
         0         0         0         0         0         0         0         0
         0         0         0         0         0         0         0         0
         0         0         0         0         0         0         0         0
         0         0         0         0         0         0         0         0
         0         0         0         0         0         0         0         0
         0         0         0         0         0         0         0         0
         0         0         0         0         0         0         0         0
         0         0         0         0         0         0         0         0
         0         0         0         0         0         0         0         0
         0         0         0         0         0         0         0         0
         0         0         0         0         0         0         0         0
         0         0         0         0         0         0         0         0
         0         0         0         0         0         0         0         0
         0         0         0         0         0         0         0         0
         0         0         0         0         0         0         0         0
         0         0         0         0         0         0         0         0
         0         0         0         0         0         0         0         0
         0         0         0         0         0         0         0         0
         0         0         0         0         0         0         0         0
         0         0         0         0         0         0         0         0
         0         0         0         0         0         0         0         0
         0         0         0         0         0         0         0         0
         0         0         0         0         0         0         0         0
         0         0         0         0         0         0         0         0
         0         0         0         0         0         0         0         0
         0         0         0         0         0         0         0         0
         0         0         0         0         0         0         0         0
         0         0         0         0         0         0         0         0
         0         0         0         0         0         0         0         0
         0         0         0         0         0         0         0         0
         0         0         0         0         0         0         0         0
         0         0         0         0         0         0         0         0
         0         0         0         0         0         0         0         0
         0         0         0         0         0         0         0         0
         0         0         0         0         0         0         0         0
         0         0         0         0         0         0         0         0
         0         0         0         0         0         0         0         0
         0         0         0         0         0         0         0         0
         0         0         0         0         0         0         0         0
         0         0         0         0         0         0         0         0
         0

         0         0 !NGRP NST2


         0         0 !NUMLP NUMLPH

        15 !NCRTERM: cross-terms
         5         7         9        22         7         9        22        24
        22        24        26        32        24        26        32        34
        32        34        38        46        34        38        46        48
        46        48        50        56        48        50        56        58
        56        58        60        77        58        60        77        79
        77        79        81        99        79        81        99       101
        99       101       103       121       101       103       121       123
       121       123       125       131       123       125       131       133
       131       133       135       141       133       135       141       143
       141       143       145       163       143       145       163       165
       163       165       167       185       165       167       185       187
       185       187       189       204       187       189       204       206
       204       206       208       214       206       208       214       216
       214       216       218       229       216       218       229       231
       229       231       233       240       231       233       240       242

